<event>
12    1  0.8053217E-002  0.2396490E+03  0.7818608E-02  0.1120171E+00
         21   -1    0    0  501  502  0.00000000000E+00  0.00000000000E+00  0.10578024823E+03  0.10578024823E+03  0.00000000000E+00 0. -1.
         21   -1    0    0  502  503 -0.00000000000E+00 -0.00000000000E+00 -0.64733002549E+03  0.64733002549E+03  0.00000000000E+00 0.  1.
         -6    2    1    2    0  503  0.74030052570E+02 -0.14978962685E+03 -0.42299103339E+03  0.48573820397E+03  0.17059544975E+03 0.  0.
        -24    2    3    3    0    0  0.11468687788E+03 -0.92366493707E+02 -0.27858669242E+03  0.32503631426E+03  0.79708288646E+02 0.  0.
          6    2    1    2  501    0 -0.74030052570E+02  0.14978962685E+03 -0.11855874386E+03  0.26737206975E+03  0.17179716802E+03 0.  0.
         24    2    5    5    0    0 -0.91735069259E+02  0.79372364975E+02 -0.12914668010E+03  0.19384484500E+03  0.78623556877E+02 0.  0.
          5    1    5    5  501    0  0.17705016689E+02  0.70417261872E+02  0.10587936241E+02  0.73527224750E+02  0.47000000000E+01 0. -1.
        -13    1    6    6    0    0 -0.88066045892E+02  0.29437365224E+02 -0.69595863744E+02  0.11604210943E+03  0.00000000000E+00 0.  1.
         14    1    6    6    0    0 -0.36690233673E+01  0.49934999751E+02 -0.59550816361E+02  0.77802735568E+02  0.00000000000E+00 0. -1.
         -5    1    3    3    0  503 -0.40656825313E+02 -0.57423133140E+02 -0.14440434098E+03  0.16070188971E+03  0.47000000000E+01 0.  1.
         11    1    4    4    0    0  0.60759433068E+02 -0.95617884909E+02 -0.19456432950E+03  0.22514388052E+03  0.00000000000E+00 0. -1.
        -12    1    4    4    0    0  0.53927444815E+02  0.32513912018E+01 -0.84022362919E+02  0.99892433746E+02  0.00000000000E+00 0.  1.
</event>
<event>
12    1  0.8053217E-002  0.2335786E+03  0.7818608E-02  0.1124247E+00
         21   -1    0    0  501  502  0.00000000000E+00  0.00000000000E+00  0.14173179012E+03  0.14173179012E+03  0.00000000000E+00 0.  1.
         21   -1    0    0  502  503 -0.00000000000E+00 -0.00000000000E+00 -0.60399107060E+03  0.60399107060E+03  0.00000000000E+00 0.  1.
         -6    2    1    2    0  503  0.14546773920E+03  0.61249015832E+02 -0.45635168406E+03  0.51265564982E+03  0.17218202769E+03 0.  0.
        -24    2    3    3    0    0  0.93730770156E+02 -0.29365187845E+02 -0.21813670486E+03  0.25254776030E+03  0.80925754217E+02 0.  0.
          6    2    1    2  501    0 -0.14546773920E+03 -0.61249015832E+02 -0.59075964248E+01  0.23306721090E+03  0.17138588043E+03 0.  0.
         24    2    5    5    0    0 -0.49716118191E+02 -0.86552353261E+02 -0.30373508844E+02  0.13094325347E+03  0.79123848021E+02 0.  0.
          5    1    5    5  501    0 -0.95751621011E+02  0.25303337429E+02  0.24465912419E+02  0.10212395743E+03  0.47000000000E+01 0. -1.
        -11    1    6    6    0    0 -0.47501324469E+02 -0.31887952190E+02  0.15799804361E+02  0.59353611002E+02  0.00000000000E+00 0.  1.
         12    1    6    6    0    0 -0.22147937222E+01 -0.54664401071E+02 -0.46173313205E+02  0.71589642463E+02  0.00000000000E+00 0. -1.
         -5    1    3    3    0  503  0.51736969046E+02  0.90614203677E+02 -0.23821497920E+03  0.26010788952E+03  0.47000000000E+01 0.  1.
         13    1    4    4    0    0  0.48668714550E+02 -0.56251122910E+00 -0.30501135291E+02  0.57439354530E+02  0.00000000000E+00 0. -1.
        -14    1    4    4    0    0  0.45062055606E+02 -0.28802676615E+02 -0.18763556957E+03  0.19510840577E+03  0.00000000000E+00 0.  1.
</event>
<event>
12    1  0.8053217E-002  0.3017179E+03  0.7818608E-02  0.1084547E+00
         21   -1    0    0  501  502  0.00000000000E+00  0.00000000000E+00  0.24407992913E+03  0.24407992913E+03  0.00000000000E+00 0. -1.
         21   -1    0    0  502  503 -0.00000000000E+00 -0.00000000000E+00 -0.65331337204E+03  0.65331337204E+03  0.00000000000E+00 0. -1.
         -6    2    1    2    0  503  0.24378282168E+03 -0.37402531137E+02 -0.49913294627E+03  0.58256697077E+03  0.17152715209E+03 0.  0.
        -24    2    3    3    0    0  0.19635724085E+03  0.21589651837E+02 -0.29014024806E+03  0.36023995650E+03  0.81050500418E+02 0.  0.
          6    2    1    2  501    0 -0.24378282168E+03  0.37402531137E+02  0.89899503359E+02  0.31482633040E+03  0.17379494851E+03 0.  0.
         24    2    5    5    0    0 -0.18354049993E+03  0.45656911014E+02 -0.16531453376E+01  0.20482065055E+03  0.78594512294E+02 0.  0.
          5    1    5    5  501    0 -0.60242321742E+02 -0.82543798768E+01  0.91552648697E+02  0.11000567985E+03  0.47000000000E+01 0. -1.
        -13    1    6    6    0    0 -0.23831590082E+02  0.32711330258E+02 -0.16911372959E+02  0.43863086398E+02  0.00000000000E+00 0.  1.
         14    1    6    6    0    0 -0.15970890985E+03  0.12945580756E+02  0.15258227621E+02  0.16095756415E+03  0.00000000000E+00 0. -1.
         -5    1    3    3    0  503  0.47425580826E+02 -0.58992182974E+02 -0.20899269821E+03  0.22232701427E+03  0.47000000000E+01 0.  1.
         13    1    4    4    0    0  0.11435154538E+03 -0.23389098972E+02 -0.12935852137E+03  0.17423246808E+03  0.00000000000E+00 0. -1.
        -14    1    4    4    0    0  0.82005695469E+02  0.44978750808E+02 -0.16078172668E+03  0.18600748842E+03  0.00000000000E+00 0.  1.
</event>
<event>
12    1  0.8053217E-002  0.1828883E+03  0.7818608E-02  0.1165130E+00
         21   -1    0    0  501  502  0.00000000000E+00  0.00000000000E+00  0.54130964689E+02  0.54130964689E+02  0.00000000000E+00 0.  1.
         21   -1    0    0  502  503 -0.00000000000E+00 -0.00000000000E+00 -0.72644699372E+03  0.72644699372E+03  0.00000000000E+00 0. -1.
         -6    2    1    2    0  503 -0.59025622313E+01  0.62516491096E+02 -0.48824359346E+03  0.52137313779E+03  0.17177016723E+03 0.  0.
        -24    2    3    3    0    0 -0.31376624076E+02 -0.27866467904E+02 -0.27976755417E+03  0.29267605415E+03  0.75022368242E+02 0.  0.
          6    2    1    2  501    0  0.59025622313E+01 -0.62516491096E+02 -0.18407243557E+03  0.25920482062E+03  0.17135146803E+03 0.  0.
         24    2    5    5    0    0  0.30469814125E+02 -0.22386400459E+02 -0.19227969234E+03  0.21121083033E+03  0.78797044755E+02 0.  0.
          5    1    5    5  501    0 -0.24567251893E+02 -0.40130090637E+02  0.82072567757E+01  0.47993990289E+02  0.47000000000E+01 0. -1.
        -11    1    6    6    0    0 -0.13567594186E+02  0.14253949148E+02 -0.14541455145E+02  0.24468522555E+02  0.00000000000E+00 0.  1.
         12    1    6    6    0    0  0.44037408311E+02 -0.36640349607E+02 -0.17773823720E+03  0.18674230777E+03  0.00000000000E+00 0. -1.
         -5    1    3    3    0  503  0.25474061844E+02  0.90382959001E+02 -0.20847603929E+03  0.22869708364E+03  0.47000000000E+01 0.  1.
         11    1    4    4    0    0  0.10530170664E+02  0.17979502108E+01 -0.18140741595E+03  0.18172167642E+03  0.00000000000E+00 0. -1.
        -12    1    4    4    0    0 -0.41906794740E+02 -0.29664418115E+02 -0.98360138215E+02  0.11095437773E+03  0.00000000000E+00 0.  1.
</event>
<event>
12    1  0.8053217E-002  0.2167298E+03  0.7818608E-02  0.1136686E+00
         21   -1    0    0  503  502  0.00000000000E+00  0.00000000000E+00  0.31682718144E+02  0.31682718144E+02  0.00000000000E+00 0. -1.
         21   -1    0    0  501  503 -0.00000000000E+00 -0.00000000000E+00 -0.17094399703E+04  0.17094399703E+04  0.00000000000E+00 0.  1.
          6    2    1    2  501    0 -0.97016530849E+02 -0.88428501131E+02 -0.51033297125E+03  0.55375111316E+03  0.17020207612E+03 0.  0.
         24    2    3    3    0    0 -0.90092516009E+02 -0.12472079721E+02 -0.40571706885E+03  0.42419843287E+03  0.84058053073E+02 0.  0.
         -6    2    1    2    0  502  0.97016530849E+02  0.88428501131E+02 -0.11674242809E+04  0.11873715753E+04  0.17245288939E+03 0.  0.
        -24    2    5    5    0    0  0.48806227042E+01  0.52402318936E+02 -0.84952079953E+03  0.85439766512E+03  0.74430892961E+02 0.  0.
          5    1    3    3  501    0 -0.69240148402E+01 -0.75956421410E+02 -0.10461590240E+03  0.12955268029E+03  0.47000000000E+01 0. -1.
        -13    1    4    4    0    0 -0.54454639329E+02 -0.42731553888E+02 -0.31051481858E+03  0.31813636384E+03  0.00000000000E+00 0.  1.
         14    1    4    4    0    0 -0.35637876680E+02  0.30259474168E+02 -0.95202250265E+02  0.10606206903E+03  0.00000000000E+00 0. -1.
         -5    1    5    5    0  502  0.92135908145E+02  0.36026182195E+02 -0.31790348141E+03  0.33297391018E+03  0.47000000000E+01 0.  1.
         13    1    6    6    0    0  0.16418603207E+02 -0.14464837788E+02 -0.14899658294E+03  0.15059476681E+03  0.00000000000E+00 0. -1.
        -14    1    6    6    0    0 -0.11537980503E+02  0.66867156723E+02 -0.70052421659E+03  0.70380289831E+03  0.00000000000E+00 0.  1.
</event>
<event>
12    1  0.8053217E-002  0.2436371E+03  0.7818608E-02  0.1117422E+00
         21   -1    0    0  503  502  0.00000000000E+00  0.00000000000E+00  0.57334263591E+03  0.57334263591E+03  0.00000000000E+00 0.  1.
         21   -1    0    0  501  503 -0.00000000000E+00 -0.00000000000E+00 -0.12800835383E+03  0.12800835383E+03  0.00000000000E+00 0.  1.
          6    2    1    2  501    0  0.19383871458E+02 -0.17198390161E+03  0.69023143694E+02  0.25305519808E+03  0.17122658095E+03 0.  0.
         24    2    3    3    0    0  0.69353552345E+02 -0.13500571524E+03  0.17649447340E+02  0.17227338111E+03  0.79562280503E+02 0.  0.
         -6    2    1    2    0  502 -0.19383871458E+02  0.17198390161E+03  0.37631113838E+03  0.44829579166E+03  0.17147841572E+03 0.  0.
        -24    2    5    5    0    0  0.50855468882E+01  0.13936941256E+03  0.37426137577E+03  0.40720140205E+03  0.79320290548E+02 0.  0.
          5    1    3    3  501    0 -0.49969680887E+02 -0.36978186372E+02  0.51373696354E+02  0.80781816966E+02  0.47000000000E+01 0. -1.
        -11    1    4    4    0    0  0.39307941757E+02 -0.15838838496E+02 -0.15267330974E+02  0.45045249307E+02  0.00000000000E+00 0.  1.
         12    1    4    4    0    0  0.30045610588E+02 -0.11916687674E+03  0.32916778314E+02  0.12722813181E+03  0.00000000000E+00 0. -1.
         -5    1    5    5    0  502 -0.24469418346E+02  0.32614489056E+02  0.20497626149E+01  0.41094389609E+02  0.47000000000E+01 0.  1.
         11    1    6    6    0    0  0.24768605039E+02  0.85485310676E+01  0.41177925328E+02  0.48807609174E+02  0.00000000000E+00 0. -1.
        -12    1    6    6    0    0 -0.19683058151E+02  0.13082088149E+03  0.33308345044E+03  0.35839379287E+03  0.00000000000E+00 0.  1.
</event>
<event>
12    1  0.8053217E-002  0.1739817E+03  0.7818608E-02  0.1174502E+00
         21   -1    0    0  501  502  0.00000000000E+00  0.00000000000E+00  0.69276051642E+03  0.69276051642E+03  0.00000000000E+00 0.  1.
         21   -1    0    0  502  503 -0.00000000000E+00 -0.00000000000E+00 -0.84413142768E+02  0.84413142768E+02  0.00000000000E+00 0.  1.
         -6    2    1    2    0  503  0.22700263386E+02  0.14443649555E+01  0.30581099971E+02  0.17378032619E+03  0.16954943217E+03 0.  0.
        -24    2    3    3    0    0  0.14312636762E+02 -0.48469894966E+01  0.83791190879E+02  0.11934378336E+03  0.83627926434E+02 0.  0.
          6    2    1    2  501    0 -0.22700263386E+02 -0.14443649555E+01  0.57776627369E+03  0.60339333300E+03  0.17248843193E+03 0.  0.
         24    2    5    5    0    0 -0.64570645281E+02  0.39600197958E+02  0.30158747214E+03  0.32102016598E+03  0.79758383308E+02 0.  0.
          5    1    5    5  501    0  0.41870381895E+02 -0.41044562913E+02  0.27617880155E+03  0.28237316701E+03  0.47000000000E+01 0. -1.
        -13    1    6    6    0    0 -0.38303391007E+02 -0.17981204262E+02  0.16726323500E+03  0.17253249912E+03  0.00000000000E+00 0.  1.
         14    1    6    6    0    0 -0.26267254274E+02  0.57581402220E+02  0.13432423714E+03  0.14848766687E+03  0.00000000000E+00 0. -1.
         -5    1    3    3    0  503  0.83876266239E+01  0.62913544520E+01 -0.53210090908E+02  0.54436542834E+02  0.47000000000E+01 0.  1.
         11    1    4    4    0    0 -0.23789145601E+02  0.24939067548E+02  0.48387584405E+02  0.59407397377E+02  0.00000000000E+00 0. -1.
        -12    1    4    4    0    0  0.38101782363E+02 -0.29786057044E+02  0.35403606475E+02  0.59936385984E+02  0.00000000000E+00 0.  1.
</event>
<event>
12    1  0.8053217E-002  0.2981317E+03  0.7818608E-02  0.1086204E+00
         21   -1    0    0  503  502  0.00000000000E+00  0.00000000000E+00  0.81111984544E+03  0.81111984544E+03  0.00000000000E+00 0.  1.
         21   -1    0    0  501  503 -0.00000000000E+00 -0.00000000000E+00 -0.11220933568E+03  0.11220933568E+03  0.00000000000E+00 0. -1.
          6    2    1    2  501    0  0.18860338496E+03  0.15387906675E+03  0.27768387781E+03  0.40727262657E+03  0.17179246888E+03 0.  0.
         24    2    3    3    0    0  0.11254346468E+03  0.15215938427E+03  0.13380686573E+03  0.24445139520E+03  0.77676879683E+02 0.  0.
         -6    2    1    2    0  502 -0.18860338496E+03 -0.15387906675E+03  0.42122663195E+03  0.51605655455E+03  0.17214089586E+03 0.  0.
        -24    2    5    5    0    0 -0.40666766396E+02 -0.11399771983E+03  0.20160067847E+03  0.24822561088E+03  0.79522665467E+02 0.  0.
          5    1    3    3  501    0  0.76059920282E+02  0.17196824758E+01  0.14387701208E+03  0.16282123137E+03  0.47000000000E+01 0. -1.
        -11    1    4    4    0    0 -0.37454413328E+01  0.44602774084E+02  0.41929703356E+02  0.61331360741E+02  0.00000000000E+00 0.  1.
         12    1    4    4    0    0  0.11628890601E+03  0.10755661019E+03  0.91877162371E+02  0.18312003446E+03  0.00000000000E+00 0. -1.
         -5    1    5    5    0  502 -0.14793661856E+03 -0.39881346916E+02  0.21962595348E+03  0.26783094367E+03  0.47000000000E+01 0.  1.
         13    1    6    6    0    0  0.27161409100E+01 -0.48970927974E+02  0.14108976993E+03  0.14937152468E+03  0.00000000000E+00 0. -1.
        -14    1    6    6    0    0 -0.43382907306E+02 -0.65026791856E+02  0.60510908537E+02  0.98854086195E+02  0.00000000000E+00 0.  1.
</event>
<event>
12    1  0.8053217E-002  0.1985602E+03  0.7818608E-02  0.1151306E+00
         21   -1    0    0  503  502  0.00000000000E+00  0.00000000000E+00  0.34035547952E+02  0.34035547952E+02  0.00000000000E+00 0.  1.
         21   -1    0    0  501  503 -0.00000000000E+00 -0.00000000000E+00 -0.17045148746E+04  0.17045148746E+04  0.00000000000E+00 0.  1.
          6    2    1    2  501    0 -0.64098471317E+02 -0.86983853355E+02 -0.13292081180E+04  0.13437185848E+04  0.16465299751E+03 0.  0.
         24    2    3    3    0    0 -0.10941204119E+03 -0.58353060219E+02 -0.87163648723E+03  0.88299423212E+03  0.67472762574E+02 0.  0.
         -6    2    1    2    0  502  0.64098471317E+02  0.86983853355E+02 -0.34127120864E+03  0.39483183768E+03  0.16658732673E+03 0.  0.
        -24    2    5    5    0    0  0.91618269084E+02  0.44457022259E+02 -0.15354816745E+03  0.20033787678E+03  0.78663149490E+02 0.  0.
          5    1    3    3  501    0  0.45313569869E+02 -0.28630793136E+02 -0.45757163074E+03  0.46072435272E+03  0.47000000000E+01 0. -1.
        -13    1    4    4    0    0 -0.45301526824E+02 -0.61855171289E+02 -0.44590966345E+03  0.45245300143E+03  0.00000000000E+00 0.  1.
         14    1    4    4    0    0 -0.64110514362E+02  0.35021110702E+01 -0.42572682378E+03  0.43054123068E+03  0.00000000000E+00 0. -1.
         -5    1    5    5    0  502 -0.27519797767E+02  0.42526831096E+02 -0.18772304119E+03  0.19449396090E+03  0.47000000000E+01 0.  1.
         11    1    6    6    0    0 -0.13816375795E+02  0.38116139941E+01 -0.92393788740E+01  0.17052470886E+02  0.00000000000E+00 0. -1.
        -12    1    6    6    0    0  0.10543464488E+03  0.40645408265E+02 -0.14430878858E+03  0.18328540590E+03  0.00000000000E+00 0.  1.
</event>
<event>
12    1  0.8053217E-002  0.1795881E+03  0.7818608E-02  0.1168222E+00
         21   -1    0    0  503  502  0.00000000000E+00  0.00000000000E+00  0.49133898932E+02  0.49133898932E+02  0.00000000000E+00 0.  1.
         21   -1    0    0  501  503 -0.00000000000E+00 -0.00000000000E+00 -0.74129761842E+03  0.74129761842E+03  0.00000000000E+00 0.  1.
          6    2    1    2  501    0 -0.30265749717E+02 -0.40665855301E+02 -0.47998449878E+03  0.51245328954E+03  0.17220199620E+03 0.  0.
         24    2    3    3    0    0 -0.13716189757E+02 -0.79499961653E+02 -0.20473374655E+03  0.23394468581E+03  0.79409264414E+02 0.  0.
         -6    2    1    2    0  502  0.30265749717E+02  0.40665855301E+02 -0.21217922071E+03  0.27797822781E+03  0.17228507203E+03 0.  0.
        -24    2    5    5    0    0  0.28304184061E+02  0.53277366623E+02 -0.45686601189E+02  0.11093098805E+03  0.81109888130E+02 0.  0.
          5    1    3    3  501    0 -0.16549559960E+02  0.38834106352E+02 -0.27525075223E+03  0.27850860374E+03  0.47000000000E+01 0. -1.
        -13    1    4    4    0    0 -0.40073842015E+02 -0.48865221068E+02 -0.16737978136E+03  0.17891258718E+03  0.00000000000E+00 0.  1.
         14    1    4    4    0    0  0.26357652258E+02 -0.30634740585E+02 -0.37353965191E+02  0.55032098622E+02  0.00000000000E+00 0. -1.
         -5    1    5    5    0  502  0.19615656560E+01 -0.12611511322E+02 -0.16649261952E+03  0.16704723976E+03  0.47000000000E+01 0.  1.
         13    1    6    6    0    0  0.16469666661E+02 -0.19672448116E+02 -0.20542626251E+02  0.32867227265E+02  0.00000000000E+00 0. -1.
        -14    1    6    6    0    0  0.11834517400E+02  0.72949814739E+02 -0.25143974938E+02  0.78063760787E+02  0.00000000000E+00 0.  1.
</event>
<event>
12    1  0.8053217E-002  0.2144575E+03  0.7818608E-02  0.1138460E+00
         21   -1    0    0  503  502  0.00000000000E+00  0.00000000000E+00  0.32949877173E+03  0.32949877173E+03  0.00000000000E+00 0. -1.
         21   -1    0    0  501  503 -0.00000000000E+00 -0.00000000000E+00 -0.57209065854E+03  0.57209065854E+03  0.00000000000E+00 0. -1.
          6    2    1    2  501    0  0.12271050128E+03  0.21268592570E+02 -0.51396166280E+03  0.55690988170E+03  0.17459039307E+03 0.  0.
         24    2    3    3    0    0  0.10789189723E+03  0.42330273688E+01 -0.19750882619E+03  0.23961776187E+03  0.82148374129E+02 0.  0.
         -6    2    1    2    0  502 -0.12271050128E+03 -0.21268592570E+02  0.27136977598E+03  0.34467954857E+03  0.17219818736E+03 0.  0.
        -24    2    5    5    0    0 -0.15604870390E+03 -0.29340974966E+02  0.23512096948E+03  0.29455305772E+03  0.79167813694E+02 0.  0.
          5    1    3    3  501    0  0.14818604051E+02  0.17035565201E+02 -0.31645283661E+03  0.31729211983E+03  0.47000000000E+01 0. -1.
        -11    1    4    4    0    0  0.27596096946E+02 -0.23945044369E+02 -0.11662489830E+03  0.12221406065E+03  0.00000000000E+00 0.  1.
         12    1    4    4    0    0  0.80295800281E+02  0.28178071737E+02 -0.80883927892E+02  0.11740370122E+03  0.00000000000E+00 0. -1.
         -5    1    5    5    0  502  0.33338202618E+02  0.80723823967E+01  0.36248806504E+02  0.50126490844E+02  0.47000000000E+01 0.  1.
         13    1    6    6    0    0 -0.87716314781E+02 -0.41277280806E+02  0.84003372579E+02  0.12827522128E+03  0.00000000000E+00 0. -1.
        -14    1    6    6    0    0 -0.68332389115E+02  0.11936305840E+02  0.15111759690E+03  0.16627783644E+03  0.00000000000E+00 0.  1.
</event>
<event>
12    1  0.8053217E-002  0.2279539E+03  0.7818608E-02  0.1128241E+00
         21   -1    0    0  501  502  0.00000000000E+00  0.00000000000E+00  0.73178854592E+02  0.73178854592E+02  0.00000000000E+00 0. -1.
         21   -1    0    0  502  503 -0.00000000000E+00 -0.00000000000E+00 -0.88985405553E+03  0.88985405553E+03  0.00000000000E+00 0. -1.
         -6    2    1    2    0  503 -0.15295985537E+03  0.79728402728E+00 -0.19092253968E+03  0.29734557477E+03  0.16901367299E+03 0.  0.
        -24    2    3    3    0    0 -0.15356087345E+03 -0.10637538003E+02 -0.21134114163E+03  0.27346827000E+03  0.80160573098E+02 0.  0.
          6    2    1    2  501    0  0.15295985537E+03 -0.79728402728E+00 -0.62575266126E+03  0.66568733536E+03  0.16785673168E+03 0.  0.
         24    2    5    5    0    0  0.16254462473E+03  0.41350123196E+01 -0.62776199005E+03  0.65375742534E+03  0.82920453944E+02 0.  0.
          5    1    5    5  501    0 -0.95847693596E+01 -0.49322963468E+01  0.20093287885E+01  0.11929910021E+02  0.47000000000E+01 0. -1.
        -11    1    6    6    0    0  0.42002237637E+02 -0.34852577211E+02 -0.22581109832E+03  0.23231345684E+03  0.00000000000E+00 0.  1.
         12    1    6    6    0    0  0.12054238709E+03  0.38987589531E+02 -0.40195089172E+03  0.42144396849E+03  0.00000000000E+00 0. -1.
         -5    1    3    3    0  503  0.60101808444E+00  0.11434822031E+02  0.20418601948E+02  0.23877304771E+02  0.47000000000E+01 0.  1.
         11    1    4    4    0    0 -0.91142983916E+02 -0.43698644235E+02 -0.10445924686E+03  0.14535593995E+03  0.00000000000E+00 0. -1.
        -12    1    4    4    0    0 -0.62417889534E+02  0.33061106232E+02 -0.10688189477E+03  0.12811233004E+03  0.00000000000E+00 0.  1.
</event>
<event>
12    1  0.8053217E-002  0.2085240E+03  0.7818608E-02  0.1143522E+00
         21   -1    0    0  503  502  0.00000000000E+00  0.00000000000E+00  0.10291677093E+04  0.10291677093E+04  0.00000000000E+00 0. -1.
         21   -1    0    0  501  503 -0.00000000000E+00 -0.00000000000E+00 -0.80858555031E+02  0.80858555031E+02  0.00000000000E+00 0. -1.
          6    2    1    2  501    0  0.80102828837E+02  0.73451563069E+02  0.84508032188E+02  0.22141238705E+03  0.17340773434E+03 0.  0.
         24    2    3    3    0    0  0.23791172516E+02 -0.27521339463E+02  0.29932532085E+02  0.93478400574E+02  0.80739153335E+02 0.  0.
         -6    2    1    2    0  502 -0.80102828837E+02 -0.73451563069E+02  0.86380112207E+03  0.88861387728E+03  0.17796249349E+03 0.  0.
        -24    2    5    5    0    0 -0.10966930845E+03 -0.14090760914E+02  0.51088282379E+03  0.52948813772E+03  0.84442415775E+02 0.  0.
          5    1    3    3  501    0  0.56311656321E+02  0.10097290253E+03  0.54575500103E+02  0.12793398647E+03  0.47000000000E+01 0. -1.
        -11    1    4    4    0    0 -0.41131880906E+01 -0.49474534466E+02  0.29937965910E+02  0.57973525680E+02  0.00000000000E+00 0.  1.
         12    1    4    4    0    0  0.27904360607E+02  0.21953195003E+02 -0.54338247740E-02  0.35504874894E+02  0.00000000000E+00 0. -1.
         -5    1    5    5    0  502  0.29566479616E+02 -0.59360802154E+02  0.35291829829E+03  0.35912573956E+03  0.47000000000E+01 0.  1.
         13    1    6    6    0    0 -0.97431018645E+02 -0.43874701551E+02  0.39967258857E+03  0.41371000820E+03  0.00000000000E+00 0. -1.
        -14    1    6    6    0    0 -0.12238289808E+02  0.29783940637E+02  0.11121023522E+03  0.11577812952E+03  0.00000000000E+00 0.  1.
</event>
<event>
12    1  0.8053217E-002  0.5140825E+03  0.7818608E-02  0.1010189E+00
         21   -1    0    0  503  502  0.00000000000E+00  0.00000000000E+00  0.30410144601E+03  0.30410144601E+03  0.00000000000E+00 0. -1.
         21   -1    0    0  501  503 -0.00000000000E+00 -0.00000000000E+00 -0.15791854450E+04  0.15791854450E+04  0.00000000000E+00 0.  1.
          6    2    1    2  501    0  0.42949058689E+03  0.22417535971E+03 -0.12693634024E+04  0.13695124077E+04  0.17194194136E+03 0.  0.
         24    2    3    3    0    0  0.30135224782E+03  0.20070217303E+03 -0.79741547002E+03  0.87989279477E+03  0.85119674163E+02 0.  0.
         -6    2    1    2    0  502 -0.42949058689E+03 -0.22417535971E+03 -0.57205965664E+01  0.51377448335E+03  0.17092319441E+03 0.  0.
        -24    2    5    5    0    0 -0.35155444068E+03 -0.17717833400E+03  0.53325968603E+02  0.40518649981E+03  0.79685343053E+02 0.  0.
          5    1    3    3  501    0  0.12813833908E+03  0.23473186681E+02 -0.47194793240E+03  0.48961961290E+03  0.47000000000E+01 0. -1.
        -11    1    4    4    0    0  0.20959453140E+03  0.93001102370E+02 -0.52615443430E+03  0.57394909301E+03  0.00000000000E+00 0.  1.
         12    1    4    4    0    0  0.91757716419E+02  0.10770107066E+03 -0.27126103572E+03  0.30594370176E+03  0.00000000000E+00 0. -1.
         -5    1    5    5    0  502 -0.77936146211E+02 -0.46997025712E+02 -0.59046565170E+02  0.10858798355E+03  0.47000000000E+01 0.  1.
         13    1    6    6    0    0 -0.16183286113E+03 -0.66844042673E+02  0.61449902396E+02  0.18556425164E+03  0.00000000000E+00 0. -1.
        -14    1    6    6    0    0 -0.18972157955E+03 -0.11033429132E+03 -0.81239337921E+01  0.21962224817E+03  0.00000000000E+00 0.  1.
</event>
<event>
12    1  0.8053217E-002  0.1946115E+03  0.7818608E-02  0.1155160E+00
         21   -1    0    0  503  502  0.00000000000E+00  0.00000000000E+00  0.56190880778E+03  0.56190880778E+03  0.00000000000E+00 0. -1.
         21   -1    0    0  501  503 -0.00000000000E+00 -0.00000000000E+00 -0.10332408653E+03  0.10332408653E+03  0.00000000000E+00 0. -1.
          6    2    1    2  501    0  0.15683560854E+02 -0.87850116339E+02  0.28452909752E+02  0.19312378834E+03  0.16888934995E+03 0.  0.
         24    2    3    3    0    0  0.25342381813E+02 -0.11560220235E+03 -0.10932498907E+02  0.14376012239E+03  0.80878598860E+02 0.  0.
         -6    2    1    2    0  502 -0.15683560854E+02  0.87850116339E+02  0.43013181150E+03  0.47210910597E+03  0.17294512324E+03 0.  0.
        -24    2    5    5    0    0  0.15337155364E+02  0.64646766370E+02  0.11367535143E+03  0.15325575189E+03  0.78427082245E+02 0.  0.
          5    1    3    3  501    0 -0.96588209590E+01  0.27752086012E+02  0.39385408659E+02  0.49363665945E+02  0.47000000000E+01 0. -1.
        -11    1    4    4    0    0  0.13858873992E+02 -0.32976699654E+01  0.21959707473E+02  0.26175785907E+02  0.00000000000E+00 0.  1.
         12    1    4    4    0    0  0.11483507821E+02 -0.11230453239E+03 -0.32892206380E+02  0.11758433649E+03  0.00000000000E+00 0. -1.
         -5    1    5    5    0  502 -0.31020716218E+02  0.23203349969E+02  0.31645646007E+03  0.31885335407E+03  0.47000000000E+01 0.  1.
         13    1    6    6    0    0  0.34694138714E+02  0.61634174894E+02  0.11341791513E+03  0.13366404995E+03  0.00000000000E+00 0. -1.
        -14    1    6    6    0    0 -0.19356983350E+02  0.30125914762E+01  0.25743630158E+00  0.19591701949E+02  0.00000000000E+00 0.  1.
</event>
<event>
12    1  0.8053217E-002  0.3490418E+03  0.7818608E-02  0.1063155E+00
         21   -1    0    0  503  502  0.00000000000E+00  0.00000000000E+00  0.24086224406E+03  0.24086224406E+03  0.00000000000E+00 0. -1.
         21   -1    0    0  501  503 -0.00000000000E+00 -0.00000000000E+00 -0.52875424767E+03  0.52875424767E+03  0.00000000000E+00 0. -1.
          6    2    1    2  501    0  0.27359835378E+03 -0.12730770158E+03 -0.60553749008E+02  0.35425543802E+03  0.17540481400E+03 0.  0.
         24    2    3    3    0    0  0.13072626938E+03 -0.11057689391E+03  0.17370907589E+02  0.19058902567E+03  0.81889079258E+02 0.  0.
         -6    2    1    2    0  502 -0.27359835378E+03  0.12730770158E+03 -0.22733825461E+03  0.41536105371E+03  0.17256538721E+03 0.  0.
        -24    2    5    5    0    0 -0.18958566518E+03  0.15562781695E+03 -0.18197659854E+03  0.31566185301E+03  0.79775818262E+02 0.  0.
          5    1    3    3  501    0  0.14287208440E+03 -0.16730807669E+02 -0.77924656596E+02  0.16366641235E+03  0.47000000000E+01 0. -1.
        -11    1    4    4    0    0  0.63856851840E+02 -0.41877852694E+01  0.23699974662E+01  0.64037894721E+02  0.00000000000E+00 0.  1.
         12    1    4    4    0    0  0.66869417540E+02 -0.10638910864E+03  0.15000910122E+02  0.12655113095E+03  0.00000000000E+00 0. -1.
         -5    1    5    5    0  502 -0.84012688598E+02 -0.28320115370E+02 -0.45361656064E+02  0.99699200703E+02  0.47000000000E+01 0.  1.
         13    1    6    6    0    0 -0.13366110076E+03  0.13587457803E+03 -0.10224574434E+03  0.21629004380E+03  0.00000000000E+00 0. -1.
        -14    1    6    6    0    0 -0.55924564416E+02  0.19753238912E+02 -0.79730854207E+02  0.99371809208E+02  0.00000000000E+00 0.  1.
</event>
<event>
12    1  0.8053217E-002  0.1796667E+03  0.7818608E-02  0.1168458E+00
         21   -1    0    0  501  502  0.00000000000E+00  0.00000000000E+00  0.25576281584E+02  0.25576281584E+02  0.00000000000E+00 0.  1.
         21   -1    0    0  502  503 -0.00000000000E+00 -0.00000000000E+00 -0.14254308137E+04  0.14254308137E+04  0.00000000000E+00 0.  1.
         -6    2    1    2    0  503  0.45239494723E+02  0.20745904972E+02 -0.95493396190E+03  0.97168872429E+03  0.17263574616E+03 0.  0.
        -24    2    3    3    0    0  0.44049804801E+02 -0.20940894445E+02 -0.27452078710E+03  0.28998249500E+03  0.79682359972E+02 0.  0.
          6    2    1    2  501    0 -0.45239494723E+02 -0.20745904972E+02 -0.44492057026E+03  0.47931837104E+03  0.17121560246E+03 0.  0.
         24    2    5    5    0    0 -0.89592642670E+02  0.15179083743E+02 -0.32193022732E+03  0.34364773677E+03  0.78723881533E+02 0.  0.
          5    1    5    5  501    0  0.44353147947E+02 -0.35924988715E+02 -0.12299034294E+03  0.13567063427E+03  0.47000000000E+01 0. -1.
        -13    1    6    6    0    0 -0.57492235257E+02 -0.29714483781E+02 -0.18619830100E+03  0.19712461784E+03  0.00000000000E+00 0.  1.
         14    1    6    6    0    0 -0.32100407414E+02  0.44893567524E+02 -0.13573192631E+03  0.14652311893E+03  0.00000000000E+00 0. -1.
         -5    1    3    3    0  503  0.11896899221E+01  0.41686799417E+02 -0.68041317480E+03  0.68170622929E+03  0.47000000000E+01 0.  1.
         11    1    4    4    0    0  0.28395510350E+02 -0.45840692829E+02 -0.23262860072E+03  0.23879644050E+03  0.00000000000E+00 0. -1.
        -12    1    4    4    0    0  0.15654294451E+02  0.24899798383E+02 -0.41892186389E+02  0.51186054495E+02  0.00000000000E+00 0.  1.
</event>
<event>
12    1  0.8053217E-002  0.2737533E+03  0.7818608E-02  0.1099512E+00
         21   -1    0    0  503  502  0.00000000000E+00  0.00000000000E+00  0.18351819822E+03  0.18351819822E+03  0.00000000000E+00 0. -1.
         21   -1    0    0  501  503 -0.00000000000E+00 -0.00000000000E+00 -0.53036948158E+03  0.53036948158E+03  0.00000000000E+00 0.  1.
          6    2    1    2  501    0  0.31644918055E+02 -0.20906009785E+03 -0.34789684940E+03  0.44268849300E+03  0.17387742426E+03 0.  0.
         24    2    3    3    0    0  0.79569472034E+02 -0.19176308727E+03 -0.28688138891E+03  0.36305856227E+03  0.80038776986E+02 0.  0.
         -6    2    1    2    0  502 -0.31644918055E+02  0.20906009785E+03  0.10455660292E+01  0.27119918680E+03  0.16982455760E+03 0.  0.
        -24    2    5    5    0    0  0.62838975262E+01  0.21713649911E+03  0.77055443761E+01  0.23157257175E+03  0.79866976647E+02 0.  0.
          5    1    3    3  501    0 -0.47924553979E+02 -0.17297010580E+02 -0.61015460488E+02  0.79629930727E+02  0.47000000000E+01 0. -1.
        -11    1    4    4    0    0  0.61745386260E+02 -0.94636694720E+02 -0.20784324419E+03  0.23657432419E+03  0.00000000000E+00 0.  1.
         12    1    4    4    0    0  0.17824085773E+02 -0.97126392546E+02 -0.79038144719E+02  0.12648423808E+03  0.00000000000E+00 0. -1.
         -5    1    5    5    0  502 -0.37928815581E+02 -0.80764012657E+01 -0.66599783469E+01  0.39626615051E+02  0.47000000000E+01 0.  1.
         11    1    6    6    0    0 -0.20829670938E+02  0.60400065313E+02  0.30649394750E+02  0.70862038354E+02  0.00000000000E+00 0. -1.
        -12    1    6    6    0    0  0.27113568464E+02  0.15673643380E+03 -0.22943850373E+02  0.16071053340E+03  0.00000000000E+00 0.  1.
</event>
<event>
12    1  0.8053217E-002  0.1848162E+03  0.7818608E-02  0.1164223E+00
         21   -1    0    0  503  502  0.00000000000E+00  0.00000000000E+00  0.31487131359E+03  0.31487131359E+03  0.00000000000E+00 0. -1.
         21   -1    0    0  501  503 -0.00000000000E+00 -0.00000000000E+00 -0.12184027581E+03  0.12184027581E+03  0.00000000000E+00 0. -1.
          6    2    1    2  501    0 -0.45041931726E+02  0.32148607701E+02  0.17424287754E+03  0.25094280973E+03  0.17189940312E+03 0.  0.
         24    2    3    3    0    0  0.37781428732E+02  0.11414759789E+02  0.58000906450E+02  0.10663796806E+03  0.80310758839E+02 0.  0.
         -6    2    1    2    0  502  0.45041931726E+02 -0.32148607701E+02  0.18788160248E+02  0.18576877967E+03  0.17633699539E+03 0.  0.
        -24    2    5    5    0    0 -0.34135273633E+02  0.19951535652E+02  0.16035456433E+02  0.90831315175E+02  0.80186727534E+02 0.  0.
          5    1    3    3  501    0 -0.82823360458E+02  0.20733847912E+02  0.11624197109E+03  0.14430484167E+03  0.47000000000E+01 0. -1.
        -13    1    4    4    0    0 -0.18178398876E+02 -0.18393131461E+02  0.13464539798E+02  0.29155707890E+02  0.00000000000E+00 0.  1.
         14    1    4    4    0    0  0.55959827608E+02  0.29807891250E+02  0.44536366653E+02  0.77482260172E+02  0.00000000000E+00 0. -1.
         -5    1    5    5    0  502  0.79177205359E+02 -0.52100143352E+02  0.27527038150E+01  0.94937464492E+02  0.47000000000E+01 0.  1.
         13    1    6    6    0    0 -0.19566458590E+02 -0.15438977040E+02 -0.24593580412E+02  0.35015032647E+02  0.00000000000E+00 0. -1.
        -14    1    6    6    0    0 -0.14568815044E+02  0.35390512692E+02  0.40629036844E+02  0.55816282528E+02  0.00000000000E+00 0.  1.
</event>
<event>
12    1  0.8053217E-002  0.2005959E+03  0.7818608E-02  0.1149509E+00
         21   -1    0    0  501  502  0.00000000000E+00  0.00000000000E+00  0.23285404588E+03  0.23285404588E+03  0.00000000000E+00 0. -1.
         21   -1    0    0  502  503 -0.00000000000E+00 -0.00000000000E+00 -0.25759024887E+03  0.25759024887E+03  0.00000000000E+00 0. -1.
         -6    2    1    2    0  503  0.91466787207E+02 -0.42235511142E+02 -0.15399857415E+03  0.25289179917E+03  0.17346091688E+03 0.  0.
        -24    2    3    3    0    0  0.10940375764E+03 -0.78729142976E+02 -0.10119191327E+03  0.18607747806E+03  0.78851533847E+02 0.  0.
          6    2    1    2  501    0 -0.91466787207E+02  0.42235511142E+02  0.12926237116E+03  0.23755249557E+03  0.17196632226E+03 0.  0.
         24    2    5    5    0    0 -0.36074976258E+01 -0.31822099461E+02  0.42078457536E+02  0.93237183676E+02  0.76791378278E+02 0.  0.
          5    1    5    5  501    0 -0.87859289581E+02  0.74057610603E+02  0.87183913622E+02  0.14431531190E+03  0.47000000000E+01 0. -1.
        -13    1    6    6    0    0  0.35884575075E+02 -0.23069288044E+02  0.19413810456E+02  0.46869935093E+02  0.00000000000E+00 0.  1.
         14    1    6    6    0    0 -0.39492072700E+02 -0.87528114170E+01  0.22664647081E+02  0.46367248583E+02  0.00000000000E+00 0. -1.
         -5    1    3    3    0  503 -0.17936970435E+02  0.36493631835E+02 -0.52806660875E+02  0.66814321112E+02  0.47000000000E+01 0.  1.
         13    1    4    4    0    0  0.98539177161E+02 -0.68013374661E+02 -0.11461942431E+03  0.16575102111E+03  0.00000000000E+00 0. -1.
        -14    1    4    4    0    0  0.10864580481E+02 -0.10715768316E+02  0.13427511039E+02  0.20326456955E+02  0.00000000000E+00 0.  1.
</event>
<event>
12    1  0.8053217E-002  0.2348614E+03  0.7818608E-02  0.1123695E+00
         21   -1    0    0  501  502  0.00000000000E+00  0.00000000000E+00  0.10259614804E+03  0.10259614804E+03  0.00000000000E+00 0. -1.
         21   -1    0    0  502  503 -0.00000000000E+00 -0.00000000000E+00 -0.55523829014E+03  0.55523829014E+03  0.00000000000E+00 0.  1.
         -6    2    1    2    0  503  0.15021139240E+03  0.44938053070E+02 -0.16008934364E+03  0.28423317590E+03  0.17486283000E+03 0.  0.
        -24    2    3    3    0    0  0.94575006843E+01  0.42726501674E+01 -0.95657195644E+02  0.12411158235E+03  0.78394425412E+02 0.  0.
          6    2    1    2  501    0 -0.15021139240E+03 -0.44938053070E+02 -0.29255279846E+03  0.37360126229E+03  0.17148723649E+03 0.  0.
         24    2    5    5    0    0 -0.14991718071E+03 -0.43710845678E+01 -0.28599304728E+03  0.33223840661E+03  0.78077322490E+02 0.  0.
          5    1    5    5  501    0 -0.29421169081E+00 -0.40566968502E+02 -0.65597511795E+01  0.41362855674E+02  0.47000000000E+01 0. -1.
        -11    1    6    6    0    0 -0.91051592309E+02 -0.35210597019E+02 -0.12912623573E+03  0.16187576520E+03  0.00000000000E+00 0.  1.
         12    1    6    6    0    0 -0.58865588396E+02  0.30839512451E+02 -0.15686681154E+03  0.17036264141E+03  0.00000000000E+00 0. -1.
         -5    1    3    3    0  503  0.14075389171E+03  0.40665402903E+02 -0.64432147994E+02  0.16012159355E+03  0.47000000000E+01 0.  1.
         11    1    4    4    0    0  0.17987798486E+01 -0.90277244624E+01  0.12135499385E+02  0.15231735398E+02  0.00000000000E+00 0. -1.
        -12    1    4    4    0    0  0.76587208357E+01  0.13300374630E+02 -0.10779269503E+03  0.10887984695E+03  0.00000000000E+00 0.  1.
</event>
<event>
12    1  0.8053217E-002  0.2155044E+03  0.7818608E-02  0.1137858E+00
         21   -1    0    0  501  502  0.00000000000E+00  0.00000000000E+00  0.16037987262E+04  0.16037987262E+04  0.00000000000E+00 0.  1.
         21   -1    0    0  502  503 -0.00000000000E+00 -0.00000000000E+00 -0.71036075480E+02  0.71036075480E+02  0.00000000000E+00 0.  1.
         -6    2    1    2    0  503  0.71852218260E+02 -0.10457584353E+03  0.11665161126E+03  0.24241983754E+03  0.17047266909E+03 0.  0.
        -24    2    3    3    0    0 -0.23139864383E+02 -0.34419496700E+02  0.68229341828E+02  0.11470055575E+03  0.82345730463E+02 0.  0.
          6    2    1    2  501    0 -0.71852218260E+02  0.10457584353E+03  0.14161110394E+04  0.14324149641E+04  0.17419329805E+03 0.  0.
         24    2    5    5    0    0 -0.31107847514E+02  0.13430393695E+03  0.91807563376E+03  0.93181011137E+03  0.80012303346E+02 0.  0.
          5    1    5    5  501    0 -0.40744370746E+02 -0.29728093416E+02  0.49803540567E+03  0.50060485274E+03  0.47000000000E+01 0. -1.
        -13    1    6    6    0    0 -0.45505925786E+02  0.10317862217E+03  0.82396145969E+03  0.83164241378E+03  0.00000000000E+00 0.  1.
         14    1    6    6    0    0  0.14398078272E+02  0.31125314775E+02  0.94114174073E+02  0.10016769758E+03  0.00000000000E+00 0. -1.
         -5    1    3    3    0  503  0.94992082643E+02 -0.70156346831E+02  0.48422269430E+02  0.12771928179E+03  0.47000000000E+01 0.  1.
         13    1    4    4    0    0 -0.42561470276E+01  0.12120333248E+02  0.62894575907E+02  0.64193028781E+02  0.00000000000E+00 0. -1.
        -14    1    4    4    0    0 -0.18883717355E+02 -0.46539829947E+02  0.53347659206E+01  0.50507526965E+02  0.00000000000E+00 0.  1.
</event>
<event>
12    1  0.8053217E-002  0.2083187E+03  0.7818608E-02  0.1143070E+00
         21   -1    0    0  501  502  0.00000000000E+00  0.00000000000E+00  0.12464652403E+04  0.12464652403E+04  0.00000000000E+00 0.  1.
         21   -1    0    0  502  503 -0.00000000000E+00 -0.00000000000E+00 -0.41018615848E+02  0.41018615848E+02  0.00000000000E+00 0. -1.
         -6    2    1    2    0  503 -0.14747588641E+02 -0.11480473670E+03  0.35063737118E+03  0.40785199125E+03  0.17320237226E+03 0.  0.
        -24    2    3    3    0    0  0.34523305426E+02 -0.94495078898E+02  0.32296395947E+03  0.34761901923E+03  0.80075494759E+02 0.  0.
          6    2    1    2  501    0  0.14747588641E+02  0.11480473670E+03  0.85480925323E+03  0.87963186486E+03  0.17220841828E+03 0.  0.
         24    2    5    5    0    0  0.74513245932E+02  0.86325890434E+02  0.52648418313E+03  0.54466556784E+03  0.80440055541E+02 0.  0.
          5    1    5    5  501    0 -0.59765657291E+02  0.28478846263E+02  0.32832507011E+03  0.33496629702E+03  0.47000000000E+01 0. -1.
        -13    1    6    6    0    0  0.39294523751E+02  0.52383922472E+02  0.44373987670E+03  0.44854566446E+03  0.00000000000E+00 0.  1.
         14    1    6    6    0    0  0.35218722181E+02  0.33941967962E+02  0.82744306427E+02  0.96119903387E+02  0.00000000000E+00 0. -1.
         -5    1    3    3    0  503 -0.49270894067E+02 -0.20309657799E+02  0.27673411705E+02  0.60232972013E+02  0.47000000000E+01 0.  1.
         11    1    4    4    0    0  0.50372952158E+02 -0.33749478426E+02  0.11011868383E+03  0.12570833756E+03  0.00000000000E+00 0. -1.
        -12    1    4    4    0    0 -0.15849646732E+02 -0.60745600472E+02  0.21284527564E+03  0.22191068168E+03  0.00000000000E+00 0.  1.
</event>
<event>
12    1  0.8053217E-002  0.2288171E+03  0.7818608E-02  0.1127527E+00
         21   -1    0    0  501  502  0.00000000000E+00  0.00000000000E+00  0.46254645546E+03  0.46254645546E+03  0.00000000000E+00 0.  1.
         21   -1    0    0  502  503 -0.00000000000E+00 -0.00000000000E+00 -0.34203038287E+03  0.34203038287E+03  0.00000000000E+00 0. -1.
         -6    2    1    2    0  503 -0.60109556059E+02  0.13797524371E+03 -0.26891453992E+03  0.35289835422E+03  0.17196479879E+03 0.  0.
        -24    2    3    3    0    0 -0.98765639430E+02  0.12473522144E+03 -0.17100503384E+03  0.24670065014E+03  0.79403791976E+02 0.  0.
          6    2    1    2  501    0  0.60109556059E+02 -0.13797524371E+03  0.38943061251E+03  0.45167848411E+03  0.17235696808E+03 0.  0.
         24    2    5    5    0    0 -0.32467292031E+02 -0.79507361055E+02  0.23180922521E+03  0.25970047017E+03  0.79581855972E+02 0.  0.
          5    1    5    5  501    0  0.92576848089E+02 -0.58467882659E+02  0.15762138730E+03  0.19197801394E+03  0.47000000000E+01 0. -1.
        -11    1    6    6    0    0 -0.10224592873E+02 -0.97190508186E+01  0.14684799263E+03  0.14752401563E+03  0.00000000000E+00 0.  1.
         12    1    6    6    0    0 -0.22242699158E+02 -0.69788310237E+02  0.84961232582E+02  0.11217645454E+03  0.00000000000E+00 0. -1.
         -5    1    3    3    0  503  0.38656083372E+02  0.13240022272E+02 -0.97909506075E+02  0.10619770408E+03  0.47000000000E+01 0.  1.
         11    1    4    4    0    0 -0.10282843083E+03  0.73449259487E+02 -0.12215488555E+03  0.17575635400E+03  0.00000000000E+00 0. -1.
        -12    1    4    4    0    0  0.40627913964E+01  0.51285961955E+02 -0.48850148290E+02  0.70944296145E+02  0.00000000000E+00 0.  1.
</event>
<event>
12    1  0.8053217E-002  0.1845109E+03  0.7818608E-02  0.1163689E+00
         21   -1    0    0  501  502  0.00000000000E+00  0.00000000000E+00  0.26384756959E+03  0.26384756959E+03  0.00000000000E+00 0.  1.
         21   -1    0    0  502  503 -0.00000000000E+00 -0.00000000000E+00 -0.37908071840E+03  0.37908071840E+03  0.00000000000E+00 0.  1.
         -6    2    1    2    0  503 -0.66005888962E+02 -0.53910024334E+01 -0.31894179922E+03  0.36808014467E+03  0.17138635105E+03 0.  0.
        -24    2    3    3    0    0 -0.23332248141E+02  0.44605229657E+02 -0.95143780324E+02  0.13478139605E+03  0.81115137129E+02 0.  0.
          6    2    1    2  501    0  0.66005888962E+02  0.53910024334E+01  0.20370865041E+03  0.27484814333E+03  0.17221628074E+03 0.  0.
         24    2    5    5    0    0  0.78345934829E+02  0.72276831284E+01  0.22397914468E+03  0.25058638194E+03  0.80228128831E+02 0.  0.
          5    1    5    5  501    0 -0.12340045867E+02 -0.18366806950E+01 -0.20270494265E+02  0.24261761389E+02  0.47000000000E+01 0. -1.
        -11    1    6    6    0    0  0.41363946466E+02  0.41156433610E+02  0.87498167123E+02  0.10517013523E+03  0.00000000000E+00 0.  1.
         12    1    6    6    0    0  0.36981988363E+02 -0.33928750482E+02  0.13648097755E+03  0.14541624671E+03  0.00000000000E+00 0. -1.
         -5    1    3    3    0  503 -0.42673640822E+02 -0.49996232090E+02 -0.22379801890E+03  0.23329874862E+03  0.47000000000E+01 0.  1.
         13    1    4    4    0    0 -0.97528633682E+01 -0.17283176367E+02  0.73459089308E+00  0.19858654360E+02  0.00000000000E+00 0. -1.
        -14    1    4    4    0    0 -0.13579384772E+02  0.61888406023E+02 -0.95878371217E+02  0.11492274169E+03  0.00000000000E+00 0.  1.
</event>
<event>
12    1  0.8053217E-002  0.2068935E+03  0.7818608E-02  0.1144399E+00
         21   -1    0    0  501  502  0.00000000000E+00  0.00000000000E+00  0.97912601033E+02  0.97912601033E+02  0.00000000000E+00 0. -1.
         21   -1    0    0  502  503 -0.00000000000E+00 -0.00000000000E+00 -0.45968809473E+03  0.45968809473E+03  0.00000000000E+00 0.  1.
         -6    2    1    2    0  503 -0.30559115800E+02  0.10774409804E+03 -0.24666694932E+03  0.32084153715E+03  0.17190711984E+03 0.  0.
        -24    2    3    3    0    0 -0.39841429922E+02  0.13337738179E+03 -0.24536824912E+03  0.29314671429E+03  0.79702904019E+02 0.  0.
          6    2    1    2  501    0  0.30559115800E+02 -0.10774409804E+03 -0.11510854437E+03  0.23675915861E+03  0.17396054718E+03 0.  0.
         24    2    5    5    0    0 -0.47352573899E+02 -0.49127427996E+02 -0.37769738644E+02  0.11222191008E+03  0.80693453943E+02 0.  0.
          5    1    5    5  501    0  0.77911689699E+02 -0.58616670047E+02 -0.77338805731E+02  0.12453724853E+03  0.47000000000E+01 0. -1.
        -13    1    6    6    0    0  0.64491455818E-01 -0.42233535414E+01 -0.46184213699E+02  0.46376960543E+02  0.00000000000E+00 0.  1.
         14    1    6    6    0    0 -0.47417065355E+02 -0.44904074455E+02  0.84144750546E+01  0.65844949540E+02  0.00000000000E+00 0. -1.
         -5    1    3    3    0  503  0.92823141228E+01 -0.25633283747E+02 -0.12987001983E+01  0.27694822862E+02  0.47000000000E+01 0.  1.
         11    1    4    4    0    0  0.19377524111E+02  0.56610290077E+02 -0.64830676730E+02  0.88222616310E+02  0.00000000000E+00 0. -1.
        -12    1    4    4    0    0 -0.59218954033E+02  0.76767091713E+02 -0.18053757239E+03  0.20492409798E+03  0.00000000000E+00 0.  1.
</event>
<event>
12    1  0.8053217E-002  0.2019258E+03  0.7818608E-02  0.1148792E+00
         21   -1    0    0  503  502  0.00000000000E+00  0.00000000000E+00  0.39610340665E+03  0.39610340665E+03  0.00000000000E+00 0.  1.
         21   -1    0    0  501  503 -0.00000000000E+00 -0.00000000000E+00 -0.10917806156E+03  0.10917806156E+03  0.00000000000E+00 0. -1.
          6    2    1    2  501    0 -0.88396621296E+02 -0.61191293927E+02  0.74646673796E+02  0.21230319979E+03  0.16715916255E+03 0.  0.
         24    2    3    3    0    0 -0.32814624139E+02  0.28888402478E+02  0.54050241986E+02  0.10436797331E+03  0.77845397034E+02 0.  0.
         -6    2    1    2    0  502  0.88396621296E+02  0.61191293927E+02  0.21227867130E+03  0.29297826841E+03  0.17092599090E+03 0.  0.
        -24    2    5    5    0    0 -0.92601302702E+01  0.53493126513E+01  0.41089898264E+02  0.88081089292E+02  0.77172102427E+02 0.  0.
          5    1    3    3  501    0 -0.55581997157E+02 -0.90079696405E+02  0.20596431810E+02  0.10793522648E+03  0.47000000000E+01 0. -1.
        -13    1    4    4    0    0 -0.19466611163E+02  0.32487438323E+02 -0.97328540849E+01  0.39103849524E+02  0.00000000000E+00 0.  1.
         14    1    4    4    0    0 -0.13348012976E+02 -0.35990358444E+01  0.63783096071E+02  0.65264123788E+02  0.00000000000E+00 0. -1.
         -5    1    5    5    0  502  0.97656751566E+02  0.55841981276E+02  0.17118877303E+03  0.20489717912E+03  0.47000000000E+01 0.  1.
         13    1    6    6    0    0  0.13502815720E+02 -0.28107489174E+02  0.11194222182E+01  0.31202725620E+02  0.00000000000E+00 0. -1.
        -14    1    6    6    0    0 -0.22762945990E+02  0.33456801825E+02  0.39970476046E+02  0.56878363671E+02  0.00000000000E+00 0.  1.
</event>
<event>
12    1  0.8053217E-002  0.1906867E+03  0.7818608E-02  0.1157901E+00
         21   -1    0    0  501  502  0.00000000000E+00  0.00000000000E+00  0.78897355950E+02  0.78897355950E+02  0.00000000000E+00 0. -1.
         21   -1    0    0  502  503 -0.00000000000E+00 -0.00000000000E+00 -0.13207396279E+04  0.13207396279E+04  0.00000000000E+00 0. -1.
         -6    2    1    2    0  503  0.51708549674E+02  0.64292165093E+02 -0.11856463742E+04  0.12008421385E+04  0.17163117499E+03 0.  0.
        -24    2    3    3    0    0  0.23630970441E+02  0.10140093872E+03 -0.10390965180E+04  0.10470098860E+04  0.75283162591E+02 0.  0.
          6    2    1    2  501    0 -0.51708549674E+02 -0.64292165093E+02 -0.56195897680E+02  0.19879484533E+03  0.17191321942E+03 0.  0.
         24    2    5    5    0    0  0.23966935754E+02 -0.79151664828E+02 -0.20611546338E+02  0.11373063495E+03  0.75302200688E+02 0.  0.
          5    1    5    5  501    0 -0.75675485429E+02  0.14859499734E+02 -0.35584351342E+02  0.85064210380E+02  0.47000000000E+01 0. -1.
        -13    1    6    6    0    0  0.33470453962E+02 -0.67171469101E+02 -0.43093521146E+02  0.86540910062E+02  0.00000000000E+00 0.  1.
         14    1    6    6    0    0 -0.95035182080E+01 -0.11980195727E+02  0.22481974808E+02  0.27189724884E+02  0.00000000000E+00 0. -1.
         -5    1    3    3    0  503  0.28077579233E+02 -0.37108773630E+02 -0.14654985623E+03  0.15383225246E+03  0.47000000000E+01 0.  1.
         11    1    4    4    0    0  0.49137297018E+02  0.83455320784E+02 -0.74647408366E+03  0.75273024524E+03  0.00000000000E+00 0. -1.
        -12    1    4    4    0    0 -0.25506326576E+02  0.17945617939E+02 -0.29262243435E+03  0.29427964079E+03  0.00000000000E+00 0.  1.
</event>
<event>
12    1  0.8053217E-002  0.2040663E+03  0.7818608E-02  0.1149238E+00
         21   -1    0    0  503  502  0.00000000000E+00  0.00000000000E+00  0.22054919849E+04  0.22054919849E+04  0.00000000000E+00 0.  1.
         21   -1    0    0  501  503 -0.00000000000E+00 -0.00000000000E+00 -0.17783319299E+02  0.17783319299E+02  0.00000000000E+00 0.  1.
          6    2    1    2  501    0  0.77888755704E+02  0.76420418055E+02  0.10348231715E+04  0.10547521358E+04  0.17244225993E+03 0.  0.
         24    2    3    3    0    0 -0.49862895154E+01  0.38856749900E+01  0.63093568024E+03  0.63609146447E+03  0.80576404843E+02 0.  0.
         -6    2    1    2    0  502 -0.77888755704E+02 -0.76420418055E+02  0.11528854941E+04  0.11685231684E+04  0.15618800900E+03 0.  0.
        -24    2    5    5    0    0 -0.48731823554E+02 -0.33448808608E+02  0.10338856233E+04  0.10386010951E+04  0.79241019159E+02 0.  0.
          5    1    3    3  501    0  0.82875045219E+02  0.72534743065E+02  0.40388749127E+03  0.41866067128E+03  0.47000000000E+01 0. -1.
        -11    1    4    4    0    0  0.94035170867E+01  0.39427800373E+02  0.39314672510E+03  0.39523072380E+03  0.00000000000E+00 0.  1.
         12    1    4    4    0    0 -0.14389806602E+02 -0.35542125384E+02  0.23778895514E+03  0.24086074068E+03  0.00000000000E+00 0. -1.
         -5    1    5    5    0  502 -0.29156932149E+02 -0.42971609448E+02  0.11899987073E+03  0.12992207336E+03  0.47000000000E+01 0.  1.
         11    1    6    6    0    0  0.44075458934E+01 -0.20576396687E+02  0.69617717875E+03  0.69649513909E+03  0.00000000000E+00 0. -1.
        -12    1    6    6    0    0 -0.53139369448E+02 -0.12872411920E+02  0.33770844458E+03  0.34210595597E+03  0.00000000000E+00 0.  1.
</event>
<event>
12    1  0.8053217E-002  0.3292090E+03  0.7818608E-02  0.1071503E+00
         21   -1    0    0  501  502  0.00000000000E+00  0.00000000000E+00  0.26577589911E+03  0.26577589911E+03  0.00000000000E+00 0. -1.
         21   -1    0    0  502  503 -0.00000000000E+00 -0.00000000000E+00 -0.45828426980E+03  0.45828426980E+03  0.00000000000E+00 0.  1.
         -6    2    1    2    0  503 -0.37872362295E+02  0.27632687622E+03 -0.21662241663E+03  0.39396923175E+03  0.17462996832E+03 0.  0.
        -24    2    3    3    0    0  0.24813320231E+02  0.64246356989E+02 -0.90870711242E+02  0.13952233584E+03  0.80409581453E+02 0.  0.
          6    2    1    2  501    0  0.37872362295E+02 -0.27632687622E+03  0.24114045931E+02  0.33009093716E+03  0.17489334245E+03 0.  0.
         24    2    5    5    0    0  0.27658481668E+02 -0.50534847833E+02 -0.19670818094E+02  0.99818125565E+02  0.79107235150E+02 0.  0.
          5    1    5    5  501    0  0.10213880627E+02 -0.22579202839E+03  0.43784864026E+02  0.23027281159E+03  0.47000000000E+01 0. -1.
        -13    1    6    6    0    0  0.27375288419E+02 -0.68192698085E+02 -0.29987262820E+02  0.79365524124E+02  0.00000000000E+00 0.  1.
         14    1    6    6    0    0  0.28319324953E+00  0.17657850251E+02  0.10316444726E+02  0.20452601441E+02  0.00000000000E+00 0. -1.
         -5    1    3    3    0  503 -0.62685682527E+02  0.21208051923E+03 -0.12575170538E+03  0.25444689591E+03  0.47000000000E+01 0.  1.
         11    1    4    4    0    0  0.34185261924E+02  0.71763278088E+02 -0.43422113100E+02  0.90576377278E+02  0.00000000000E+00 0. -1.
        -12    1    4    4    0    0 -0.93719416931E+01 -0.75169210993E+01 -0.47448598142E+02  0.48945958562E+02  0.00000000000E+00 0.  1.
</event>
<event>
12    1  0.8053217E-002  0.2053372E+03  0.7818608E-02  0.1145656E+00
         21   -1    0    0  503  502  0.00000000000E+00  0.00000000000E+00  0.29410341113E+03  0.29410341113E+03  0.00000000000E+00 0. -1.
         21   -1    0    0  501  503 -0.00000000000E+00 -0.00000000000E+00 -0.19309507011E+03  0.19309507011E+03  0.00000000000E+00 0. -1.
          6    2    1    2  501    0 -0.79073148020E+02  0.79193207070E+02  0.17542252666E+03  0.26879328914E+03  0.17015476087E+03 0.  0.
         24    2    3    3    0    0 -0.18328265751E+02 -0.59812537666E+01  0.12969262092E+03  0.15452192886E+03  0.81762765718E+02 0.  0.
         -6    2    1    2    0  502  0.79073148020E+02 -0.79193207070E+02 -0.74414185637E+02  0.21840519211E+03  0.17216047785E+03 0.  0.
        -24    2    5    5    0    0  0.10299833648E+03 -0.66286559353E+02 -0.10247486626E+03  0.17905435991E+03  0.80974071895E+02 0.  0.
          5    1    3    3  501    0 -0.60744882268E+02  0.85174460837E+02  0.45729905741E+02  0.11427136028E+03  0.47000000000E+01 0. -1.
        -11    1    4    4    0    0 -0.16031043247E+01 -0.39608798349E+02  0.35868568535E+02  0.53460088467E+02  0.00000000000E+00 0.  1.
         12    1    4    4    0    0 -0.16725161427E+02  0.33627544582E+02  0.93824052381E+02  0.10106184040E+03  0.00000000000E+00 0. -1.
         -5    1    5    5    0  502 -0.23925188460E+02 -0.12906647717E+02  0.28060680618E+02  0.39350832201E+02  0.47000000000E+01 0.  1.
         13    1    6    6    0    0  0.12771729056E+02 -0.64977335037E+01  0.14012570610E+02  0.20042198953E+02  0.00000000000E+00 0. -1.
        -14    1    6    6    0    0  0.90226607424E+02 -0.59788825849E+02 -0.11648743687E+03  0.15901216095E+03  0.00000000000E+00 0.  1.
</event>
<event>
12    1  0.8053217E-002  0.1883403E+03  0.7818608E-02  0.1160052E+00
         21   -1    0    0  503  502  0.00000000000E+00  0.00000000000E+00  0.68276626594E+02  0.68276626594E+02  0.00000000000E+00 0.  1.
         21   -1    0    0  501  503 -0.00000000000E+00 -0.00000000000E+00 -0.77376210634E+03  0.77376210634E+03  0.00000000000E+00 0.  1.
          6    2    1    2  501    0  0.68105751816E+02  0.32370238625E+02 -0.59479654230E+03  0.62390304099E+03  0.17258578172E+03 0.  0.
         24    2    3    3    0    0  0.84458408569E+02 -0.18471974344E+02 -0.25796716613E+03  0.28283346063E+03  0.77286939611E+02 0.  0.
         -6    2    1    2    0  502 -0.68105751816E+02 -0.32370238625E+02 -0.11068893745E+03  0.21813569195E+03  0.17217698292E+03 0.  0.
        -24    2    5    5    0    0 -0.73842677277E+02  0.38832019580E+02 -0.63834141366E+02  0.13257789976E+03  0.80879139268E+02 0.  0.
          5    1    3    3  501    0 -0.16352656753E+02  0.50842212969E+02 -0.33682937616E+03  0.34106958036E+03  0.47000000000E+01 0. -1.
        -11    1    4    4    0    0  0.73171961087E+02  0.15654211754E+02 -0.13087570124E+03  0.15075688844E+03  0.00000000000E+00 0.  1.
         12    1    4    4    0    0  0.11286447482E+02 -0.34126186099E+02 -0.12709146489E+03  0.13207657219E+03  0.00000000000E+00 0. -1.
         -5    1    5    5    0  502  0.57369254607E+01 -0.71202258206E+02 -0.46854796088E+02  0.85557792186E+02  0.47000000000E+01 0.  1.
         13    1    6    6    0    0 -0.12130789419E+02  0.41165708804E+02  0.11483378158E+01  0.42931227714E+02  0.00000000000E+00 0. -1.
        -14    1    6    6    0    0 -0.61711887857E+02 -0.23336892240E+01 -0.64982479181E+02  0.89646672046E+02  0.00000000000E+00 0.  1.
</event>
<event>
12    1  0.8053217E-002  0.1897005E+03  0.7818608E-02  0.1158780E+00
         21   -1    0    0  501  502  0.00000000000E+00  0.00000000000E+00  0.44682481453E+03  0.44682481453E+03  0.00000000000E+00 0. -1.
         21   -1    0    0  502  503 -0.00000000000E+00 -0.00000000000E+00 -0.18452836610E+03  0.18452836610E+03  0.00000000000E+00 0. -1.
         -6    2    1    2    0  503 -0.65071703158E+02 -0.49560510927E+02 -0.10590021316E+03  0.21725820769E+03  0.17115987517E+03 0.  0.
        -24    2    3    3    0    0 -0.43461832783E+02  0.71184548905E+01 -0.12539677443E+03  0.15337004318E+03  0.76540288737E+02 0.  0.
          6    2    1    2  501    0  0.65071703158E+02  0.49560510927E+02  0.36819666159E+03  0.41409497294E+03  0.17092482035E+03 0.  0.
         24    2    5    5    0    0 -0.31784026376E+02  0.17252979055E+02  0.16827513381E+03  0.18956097500E+03  0.79428917694E+02 0.  0.
          5    1    5    5  501    0  0.96855729534E+02  0.32307531871E+02  0.19992152778E+03  0.22453399793E+03  0.47000000000E+01 0. -1.
        -11    1    6    6    0    0 -0.49142848567E+02  0.35847650663E+02  0.10472986962E+03  0.12111324954E+03  0.00000000000E+00 0.  1.
         12    1    6    6    0    0  0.17358822191E+02 -0.18594671608E+02  0.63545264190E+02  0.68447725463E+02  0.00000000000E+00 0. -1.
         -5    1    3    3    0  503 -0.21609870374E+02 -0.56678965817E+02  0.19496561262E+02  0.63888164512E+02  0.47000000000E+01 0.  1.
         11    1    4    4    0    0 -0.37286500125E+02 -0.17639270644E+02 -0.21755572207E+02  0.46634020655E+02  0.00000000000E+00 0. -1.
        -12    1    4    4    0    0 -0.61753326579E+01  0.24757725535E+02 -0.10364120222E+03  0.10673602252E+03  0.00000000000E+00 0.  1.
</event>
<event>
12    1  0.8053217E-002  0.1760983E+03  0.7818608E-02  0.1171974E+00
         21   -1    0    0  501  502  0.00000000000E+00  0.00000000000E+00  0.42570616914E+03  0.42570616914E+03  0.00000000000E+00 0. -1.
         21   -1    0    0  502  503 -0.00000000000E+00 -0.00000000000E+00 -0.76805899874E+02  0.76805899874E+02  0.00000000000E+00 0. -1.
         -6    2    1    2    0  503 -0.57582349986E+01 -0.28748978216E+02  0.11411057386E+03  0.20983764935E+03  0.17364030350E+03 0.  0.
        -24    2    3    3    0    0  0.66503106912E+02  0.32990480955E+01  0.61348162403E+02  0.11468125394E+03  0.70389246534E+02 0.  0.
          6    2    1    2  501    0  0.57582349986E+01  0.28748978216E+02  0.23478969541E+03  0.29267441966E+03  0.17225694133E+03 0.  0.
         24    2    5    5    0    0 -0.81540093657E+01  0.47594251145E+02  0.24844443342E+03  0.26515648505E+03  0.79067214800E+02 0.  0.
          5    1    5    5  501    0  0.13912244364E+02 -0.18845272929E+02 -0.13654738014E+02  0.27517934611E+02  0.47000000000E+01 0. -1.
        -13    1    6    6    0    0 -0.54486417818E+01  0.45886731654E+02  0.55643291012E+02  0.72328802519E+02  0.00000000000E+00 0.  1.
         14    1    6    6    0    0 -0.27053675839E+01  0.17075194909E+01  0.19280114241E+03  0.19282768253E+03  0.00000000000E+00 0. -1.
         -5    1    3    3    0  503 -0.72261341911E+02 -0.32048026312E+02  0.52762411456E+02  0.95156395412E+02  0.47000000000E+01 0.  1.
         13    1    4    4    0    0  0.43813065205E+02  0.36245341751E+02  0.37337311897E+02  0.68024880309E+02  0.00000000000E+00 0. -1.
        -14    1    4    4    0    0  0.22690041708E+02 -0.32946293656E+02  0.24010850506E+02  0.46656373631E+02  0.00000000000E+00 0.  1.
</event>
<event>
12    1  0.8053217E-002  0.2089157E+03  0.7818608E-02  0.1142611E+00
         21   -1    0    0  503  502  0.00000000000E+00  0.00000000000E+00  0.22361497719E+03  0.22361497719E+03  0.00000000000E+00 0.  1.
         21   -1    0    0  501  503 -0.00000000000E+00 -0.00000000000E+00 -0.24589248972E+03  0.24589248972E+03  0.00000000000E+00 0.  1.
          6    2    1    2  501    0 -0.87880373664E+02 -0.77427903302E+02 -0.11862249470E+03  0.23944633175E+03  0.17188719922E+03 0.  0.
         24    2    3    3    0    0 -0.43759993804E+02 -0.27130825092E+02 -0.14032624340E+03  0.16895131985E+03  0.78753254956E+02 0.  0.
         -6    2    1    2    0  502  0.87880373664E+02  0.77427903302E+02  0.96344982172E+02  0.23006113516E+03  0.17299632955E+03 0.  0.
        -24    2    5    5    0    0  0.90923776623E+02  0.26005878725E+01  0.17583134271E+02  0.12127736744E+03  0.78263254653E+02 0.  0.
          5    1    3    3  501    0 -0.44120379860E+02 -0.50297078210E+02  0.21703748696E+02  0.70495011901E+02  0.47000000000E+01 0. -1.
        -13    1    4    4    0    0 -0.18118726946E+02  0.23326326090E+02 -0.84249402768E+02  0.89276915391E+02  0.00000000000E+00 0.  1.
         14    1    4    4    0    0 -0.25641266858E+02 -0.50457151181E+02 -0.56076840630E+02  0.79674404463E+02  0.00000000000E+00 0. -1.
         -5    1    5    5    0  502 -0.30434029597E+01  0.74827315430E+02  0.78761847901E+02  0.10878376773E+03  0.47000000000E+01 0.  1.
         11    1    6    6    0    0  0.54645679134E+02  0.39237162999E+01 -0.29183704494E+02  0.62074426341E+02  0.00000000000E+00 0. -1.
        -12    1    6    6    0    0  0.36278097489E+02 -0.13231284275E+01  0.46766838765E+02  0.59202941095E+02  0.00000000000E+00 0.  1.
</event>
<event>
12    1  0.8053217E-002  0.2378660E+03  0.7818608E-02  0.1121683E+00
         21   -1    0    0  501  502  0.00000000000E+00  0.00000000000E+00  0.10054126585E+04  0.10054126585E+04  0.00000000000E+00 0.  1.
         21   -1    0    0  502  503 -0.00000000000E+00 -0.00000000000E+00 -0.32621719638E+03  0.32621719638E+03  0.00000000000E+00 0. -1.
         -6    2    1    2    0  503  0.16295988785E+03  0.25816233458E+02 -0.26712022074E+03  0.35587701564E+03  0.16754950007E+03 0.  0.
        -24    2    3    3    0    0  0.18977268814E+03  0.19109548135E+02 -0.23334322783E+03  0.31198076139E+03  0.80647910738E+02 0.  0.
          6    2    1    2  501    0 -0.16295988785E+03 -0.25816233458E+02  0.94631568287E+03  0.97575283926E+03  0.17134126391E+03 0.  0.
         24    2    5    5    0    0 -0.17455937727E+03 -0.43816165345E+02  0.67186354648E+03  0.70042646771E+03  0.82497145630E+02 0.  0.
          5    1    5    5  501    0  0.11599489423E+02  0.17999931887E+02  0.27445213639E+03  0.27532637155E+03  0.47000000000E+01 0. -1.
        -13    1    6    6    0    0 -0.92328924471E+02 -0.29245897020E+01  0.46510576253E+03  0.47419041941E+03  0.00000000000E+00 0.  1.
         14    1    6    6    0    0 -0.82230452803E+02 -0.40891575643E+02  0.20675778395E+03  0.22623604830E+03  0.00000000000E+00 0. -1.
         -5    1    3    3    0  503 -0.26812800291E+02  0.67066853234E+01 -0.33776992911E+02  0.43896254255E+02  0.47000000000E+01 0.  1.
         11    1    4    4    0    0  0.82279253913E+02 -0.19271660960E+02 -0.57039900252E+02  0.10195500361E+03  0.00000000000E+00 0. -1.
        -12    1    4    4    0    0  0.10749343423E+03  0.38381209095E+02 -0.17630332758E+03  0.21002575777E+03  0.00000000000E+00 0.  1.
</event>
<event>
12    1  0.8053217E-002  0.1724844E+03  0.7818608E-02  0.1175536E+00
         21   -1    0    0  503  502  0.00000000000E+00  0.00000000000E+00  0.72519241755E+03  0.72519241755E+03  0.00000000000E+00 0. -1.
         21   -1    0    0  501  503 -0.00000000000E+00 -0.00000000000E+00 -0.11233739301E+03  0.11233739301E+03  0.00000000000E+00 0. -1.
          6    2    1    2  501    0  0.14964490158E+02  0.10071166185E+02 -0.28094994838E+02  0.17377699838E+03  0.17053959093E+03 0.  0.
         24    2    3    3    0    0  0.37882633486E+02  0.70642266345E+02 -0.19592813898E+02  0.10829053757E+03  0.70125162793E+02 0.  0.
         -6    2    1    2    0  502 -0.14964490158E+02 -0.10071166185E+02  0.64095001938E+03  0.66375281218E+03  0.17153863701E+03 0.  0.
        -24    2    5    5    0    0  0.23139289757E+02  0.38374587036E+02  0.51666013377E+03  0.52494015169E+03  0.81341461557E+02 0.  0.
          5    1    3    3  501    0 -0.22918143328E+02 -0.60571100160E+02 -0.85021809394E+01  0.65486460806E+02  0.47000000000E+01 0. -1.
        -11    1    4    4    0    0 -0.16504682109E+01  0.52609313756E+02  0.12708744123E+02  0.54147724941E+02  0.00000000000E+00 0.  1.
         12    1    4    4    0    0  0.39533101697E+02  0.18032952589E+02 -0.32301558021E+02  0.54142812630E+02  0.00000000000E+00 0. -1.
         -5    1    5    5    0  502 -0.38103779915E+02 -0.48445753221E+02  0.12428988561E+03  0.13881266049E+03  0.47000000000E+01 0.  1.
         11    1    6    6    0    0  0.36237460287E+02  0.56046565248E+02  0.30943254408E+03  0.31654836967E+03  0.00000000000E+00 0. -1.
        -12    1    6    6    0    0 -0.13098170530E+02 -0.17671978212E+02  0.20722758969E+03  0.20839178202E+03  0.00000000000E+00 0.  1.
</event>
<event>
12    1  0.8053217E-002  0.1758800E+03  0.7818608E-02  0.1171953E+00
         21   -1    0    0  501  502  0.00000000000E+00  0.00000000000E+00  0.86523061828E+02  0.86523061828E+02  0.00000000000E+00 0. -1.
         21   -1    0    0  502  503 -0.00000000000E+00 -0.00000000000E+00 -0.18648195508E+04  0.18648195508E+04  0.00000000000E+00 0. -1.
         -6    2    1    2    0  503 -0.30440602553E+02 -0.18925736398E+02 -0.17663638431E+04  0.17750583217E+04  0.17177312187E+03 0.  0.
        -24    2    3    3    0    0  0.30960687046E+02  0.27153567851E+02 -0.12205816233E+04  0.12238834473E+04  0.79845558326E+02 0.  0.
          6    2    1    2  501    0  0.30440602553E+02  0.18925736398E+02 -0.11932645851E+02  0.17628429092E+03  0.17218870290E+03 0.  0.
         24    2    5    5    0    0 -0.68158681331E+01 -0.45517255544E+02 -0.33938763546E+02  0.98519883675E+02  0.80225003569E+02 0.  0.
          5    1    5    5  501    0  0.37256470686E+02  0.64442991942E+02  0.22006117695E+02  0.77764407246E+02  0.47000000000E+01 0. -1.
        -11    1    6    6    0    0 -0.76413656702E+01 -0.11721568646E+02 -0.56283586819E+02  0.57996791170E+02  0.00000000000E+00 0.  1.
         12    1    6    6    0    0  0.82549753707E+00 -0.33795686898E+02  0.22344823273E+02  0.40523092505E+02  0.00000000000E+00 0. -1.
         -5    1    3    3    0  503 -0.61401289598E+02 -0.46079304249E+02 -0.54578221987E+03  0.55117487440E+03  0.47000000000E+01 0.  1.
         11    1    4    4    0    0  0.16554761487E+02 -0.26491522822E+02 -0.60311785506E+03  0.60392632663E+03  0.00000000000E+00 0. -1.
        -12    1    4    4    0    0  0.14405925559E+02  0.53645090674E+02 -0.61746376820E+03  0.61995712068E+03  0.00000000000E+00 0.  1.
</event>
<event>
12    1  0.8053217E-002  0.2958165E+03  0.7818608E-02  0.1087381E+00
         21   -1    0    0  501  502  0.00000000000E+00  0.00000000000E+00  0.39510324469E+03  0.39510324469E+03  0.00000000000E+00 0. -1.
         21   -1    0    0  502  503 -0.00000000000E+00 -0.00000000000E+00 -0.23642392763E+03  0.23642392763E+03  0.00000000000E+00 0. -1.
         -6    2    1    2    0  503  0.23340676782E+03  0.58790086335E+02 -0.49255391245E+00  0.29581694446E+03  0.17196635864E+03 0.  0.
        -24    2    3    3    0    0  0.32891324489E+02  0.87039910713E+01 -0.12295450824E+02  0.88750630612E+02  0.81042566814E+02 0.  0.
          6    2    1    2  501    0 -0.23340676782E+03 -0.58790086335E+02  0.15917187097E+03  0.33571022786E+03  0.17155372065E+03 0.  0.
         24    2    5    5    0    0 -0.78267064099E+02 -0.72266965085E+02  0.39543410013E+02  0.13928463737E+03  0.80549868810E+02 0.  0.
          5    1    5    5  501    0 -0.15513970372E+03  0.13476878750E+02  0.11962846095E+03  0.19642559050E+03  0.47000000000E+01 0. -1.
        -11    1    6    6    0    0  0.62508217200E+01  0.54502635198E+01 -0.11048198560E+02  0.13814515411E+02  0.00000000000E+00 0.  1.
         12    1    6    6    0    0 -0.84517885819E+02 -0.77717228605E+02  0.50591608573E+02  0.12547012195E+03  0.00000000000E+00 0. -1.
         -5    1    3    3    0  503  0.20051544333E+03  0.50086095264E+02  0.11802896912E+02  0.20706631385E+03  0.47000000000E+01 0.  1.
         11    1    4    4    0    0  0.57663790489E+02  0.17767682176E+02 -0.15167577178E+02  0.62216225061E+02  0.00000000000E+00 0. -1.
        -12    1    4    4    0    0 -0.24772465999E+02 -0.90636911047E+01  0.28721263541E+01  0.26534405551E+02  0.00000000000E+00 0.  1.
</event>
<event>
12    1  0.8053217E-002  0.2927225E+03  0.7818608E-02  0.1088967E+00
         21   -1    0    0  501  502  0.00000000000E+00  0.00000000000E+00  0.90332338594E+02  0.90332338594E+02  0.00000000000E+00 0. -1.
         21   -1    0    0  502  503 -0.00000000000E+00 -0.00000000000E+00 -0.14869601138E+04  0.14869601138E+04  0.00000000000E+00 0.  1.
         -6    2    1    2    0  503 -0.23116266174E+03 -0.53351814104E+02 -0.11730241125E+04  0.12089379047E+04  0.17106342920E+03 0.  0.
        -24    2    3    3    0    0 -0.37240724258E+02 -0.21834308117E+02 -0.28284598734E+03  0.29732490818E+03  0.80849489277E+02 0.  0.
          6    2    1    2  501    0  0.23116266174E+03  0.53351814104E+02 -0.22360366277E+03  0.36835454770E+03  0.17147560337E+03 0.  0.
         24    2    5    5    0    0  0.50409886195E+02  0.54572970711E+02 -0.12177932930E+03  0.16083745930E+03  0.74290763282E+02 0.  0.
          5    1    5    5  501    0  0.18075277555E+03 -0.12211566070E+01 -0.10182433347E+03  0.20751708840E+03  0.47000000000E+01 0. -1.
        -13    1    6    6    0    0  0.18752470490E+01 -0.92546631104E+01  0.51093647614E+01  0.10736430927E+02  0.00000000000E+00 0.  1.
         14    1    6    6    0    0  0.48534639146E+02  0.63827633821E+02 -0.12688869407E+03  0.15010102837E+03  0.00000000000E+00 0. -1.
         -5    1    3    3    0  503 -0.19392193749E+03 -0.31517505987E+02 -0.89017812514E+03  0.91161299656E+03  0.47000000000E+01 0.  1.
         13    1    4    4    0    0  0.20820768281E+02 -0.23911009813E+02 -0.12996900143E+03  0.13378035025E+03  0.00000000000E+00 0. -1.
        -14    1    4    4    0    0 -0.58061492539E+02  0.20767016963E+01 -0.15287698591E+03  0.16354455793E+03  0.00000000000E+00 0.  1.
</event>
<event>
12    1  0.8053217E-002  0.1979652E+03  0.7818608E-02  0.1151517E+00
         21   -1    0    0  503  502  0.00000000000E+00  0.00000000000E+00  0.18568052211E+03  0.18568052211E+03  0.00000000000E+00 0. -1.
         21   -1    0    0  501  503 -0.00000000000E+00 -0.00000000000E+00 -0.27236285294E+03  0.27236285294E+03  0.00000000000E+00 0. -1.
          6    2    1    2  501    0  0.91614174560E+02 -0.29397221346E+02 -0.15219267482E+03  0.24952038001E+03  0.17274390341E+03 0.  0.
         24    2    3    3    0    0  0.38221319739E+02 -0.58462798135E+02 -0.15550514080E+03  0.18845756701E+03  0.80346983147E+02 0.  0.
         -6    2    1    2    0  502 -0.91614174560E+02  0.29397221346E+02  0.65510343996E+02  0.20852299505E+03  0.17301121550E+03 0.  0.
        -24    2    5    5    0    0 -0.54510308363E+02 -0.50659305471E+02  0.40190512194E+02  0.11660494320E+03  0.80272638922E+02 0.  0.
          5    1    3    3  501    0  0.53392854822E+02  0.29065576789E+02  0.33124659747E+01  0.61062812996E+02  0.47000000000E+01 0. -1.
        -11    1    4    4    0    0  0.21896586846E+02 -0.52461473331E+02 -0.35117381351E+02  0.66819886056E+02  0.00000000000E+00 0.  1.
         12    1    4    4    0    0  0.16324732893E+02 -0.60013248037E+01 -0.12038775945E+03  0.12163768096E+03  0.00000000000E+00 0. -1.
         -5    1    5    5    0  502 -0.37103866197E+02  0.80056526817E+02  0.25319831802E+02  0.91918051847E+02  0.47000000000E+01 0.  1.
         11    1    6    6    0    0 -0.55769057730E+02 -0.20435734708E+02  0.56725019384E+02  0.82131205259E+02  0.00000000000E+00 0. -1.
        -12    1    6    6    0    0  0.12587493664E+01 -0.30223570763E+02 -0.16534507190E+02  0.34473737941E+02  0.00000000000E+00 0.  1.
</event>
<event>
12    1  0.8053217E-002  0.2853657E+03  0.7818608E-02  0.1092950E+00
         21   -1    0    0  501  502  0.00000000000E+00  0.00000000000E+00  0.20641764287E+04  0.20641764287E+04  0.00000000000E+00 0.  1.
         21   -1    0    0  502  503 -0.00000000000E+00 -0.00000000000E+00 -0.11459003125E+03  0.11459003125E+03  0.00000000000E+00 0. -1.
         -6    2    1    2    0  503 -0.53569441760E+01  0.22739392482E+03  0.91012509910E+02  0.29841263514E+03  0.17038230529E+03 0.  0.
        -24    2    3    3    0    0  0.35550608493E+02  0.67352409668E+02  0.14052081136E+01  0.11042786721E+03  0.79950899903E+02 0.  0.
          6    2    1    2  501    0  0.53569441760E+01 -0.22739392482E+03  0.18585738875E+04  0.18803538248E+04  0.17232793492E+03 0.  0.
         24    2    5    5    0    0 -0.23350910279E+02 -0.23807974658E+03  0.15738369201E+04  0.15939353227E+04  0.80249182651E+02 0.  0.
          5    1    5    5  501    0  0.28707854455E+02  0.10685821766E+02  0.28473696748E+03  0.28641850209E+03  0.47000000000E+01 0. -1.
        -11    1    6    6    0    0  0.24255924602E+02 -0.10416106373E+03  0.55242113537E+03  0.56267840537E+03  0.00000000000E+00 0.  1.
         12    1    6    6    0    0 -0.47606834880E+02 -0.13391868285E+03  0.10214157847E+04  0.10312569173E+04  0.00000000000E+00 0. -1.
         -5    1    3    3    0  503 -0.40907552668E+02  0.16004151515E+03  0.89607301796E+02  0.18798476792E+03  0.47000000000E+01 0.  1.
         11    1    4    4    0    0 -0.19091691213E+02  0.47550309838E+02  0.82741682668E+01  0.51903627037E+02  0.00000000000E+00 0. -1.
        -12    1    4    4    0    0  0.54642299705E+02  0.19802099830E+02 -0.68689601532E+01  0.58524240178E+02  0.00000000000E+00 0.  1.
</event>
<event>
12    1  0.8053217E-002  0.2409348E+03  0.7818608E-02  0.1119186E+00
         21   -1    0    0  503  502  0.00000000000E+00  0.00000000000E+00  0.15724008319E+04  0.15724008319E+04  0.00000000000E+00 0. -1.
         21   -1    0    0  501  503 -0.00000000000E+00 -0.00000000000E+00 -0.90041042103E+02  0.90041042103E+02  0.00000000000E+00 0. -1.
          6    2    1    2  501    0  0.12366301704E+03  0.11323302326E+03  0.10268727565E+03  0.26190500900E+03  0.17301820083E+03 0.  0.
         24    2    3    3    0    0  0.56678017639E+02  0.58628433091E+02 -0.15200877686E+02  0.11565741719E+03  0.80597026118E+02 0.  0.
         -6    2    1    2    0  502 -0.12366301704E+03 -0.11323302326E+03  0.13796725141E+04  0.14005368650E+04  0.17289593577E+03 0.  0.
        -24    2    5    5    0    0 -0.39800192669E+02 -0.10601205530E+03  0.11035997719E+04  0.11118789971E+04  0.74295601842E+02 0.  0.
          5    1    3    3  501    0  0.66984999400E+02  0.54604590168E+02  0.11788815334E+03  0.14624759181E+03  0.47000000000E+01 0. -1.
        -11    1    4    4    0    0 -0.67079029056E+01 -0.15636404541E+02 -0.19928999811E+01  0.17130813136E+02  0.00000000000E+00 0.  1.
         12    1    4    4    0    0  0.63385920544E+02  0.74264837633E+02 -0.13207977705E+02  0.98526604057E+02  0.00000000000E+00 0. -1.
         -5    1    5    5    0  502 -0.83862824370E+02 -0.72209679617E+01  0.27607274219E+03  0.28865786784E+03  0.47000000000E+01 0.  1.
         13    1    6    6    0    0 -0.28189281195E+02 -0.69139128935E+02  0.38107280289E+03  0.38831860093E+03  0.00000000000E+00 0. -1.
        -14    1    6    6    0    0 -0.11610911474E+02 -0.36872926362E+02  0.72252696905E+03  0.72356039621E+03  0.00000000000E+00 0.  1.
</event>
<event>
12    1  0.8053217E-002  0.2729720E+03  0.7818608E-02  0.1099637E+00
         21   -1    0    0  501  502  0.00000000000E+00  0.00000000000E+00  0.23206864215E+03  0.23206864215E+03  0.00000000000E+00 0.  1.
         21   -1    0    0  502  503 -0.00000000000E+00 -0.00000000000E+00 -0.32095902962E+03  0.32095902962E+03  0.00000000000E+00 0. -1.
         -6    2    1    2    0  503 -0.38826008878E+01 -0.21173853585E+03 -0.36536849071E+02  0.27540638120E+03  0.17223661432E+03 0.  0.
        -24    2    3    3    0    0 -0.49305038074E+02 -0.16278398680E+03 -0.69953815665E+02  0.20058306045E+03  0.80065065249E+02 0.  0.
          6    2    1    2  501    0  0.38826008878E+01  0.21173853585E+03 -0.52353538397E+02  0.27762129056E+03  0.17171023801E+03 0.  0.
         24    2    5    5    0    0  0.20232938495E+02  0.14896359948E+03  0.29419170706E+02  0.17313735816E+03  0.80694060600E+02 0.  0.
          5    1    5    5  501    0 -0.16350337608E+02  0.62774936367E+02 -0.81772709103E+02  0.10448393240E+03  0.47000000000E+01 0. -1.
        -11    1    6    6    0    0  0.16979654196E+02  0.12982103947E+00  0.16552403889E+02  0.23713025632E+02  0.00000000000E+00 0.  1.
         12    1    6    6    0    0  0.32532842989E+01  0.14883377844E+03  0.12866766818E+02  0.14942433253E+03  0.00000000000E+00 0. -1.
         -5    1    3    3    0  503  0.45422437186E+02 -0.48954549047E+02  0.33416966594E+02  0.74823320754E+02  0.47000000000E+01 0.  1.
         13    1    4    4    0    0 -0.10931962422E+02 -0.10916285539E+03 -0.78265000855E+01  0.10998768523E+03  0.00000000000E+00 0. -1.
        -14    1    4    4    0    0 -0.38373075652E+02 -0.53621131411E+02 -0.62127315580E+02  0.90595375213E+02  0.00000000000E+00 0.  1.
</event>
<event>
12    1  0.8053217E-002  0.4157743E+03  0.7818608E-02  0.1038559E+00
         21   -1    0    0  503  502  0.00000000000E+00  0.00000000000E+00  0.78983992740E+03  0.78983992740E+03  0.00000000000E+00 0. -1.
         21   -1    0    0  501  503 -0.00000000000E+00 -0.00000000000E+00 -0.23018429065E+03  0.23018429065E+03  0.00000000000E+00 0. -1.
          6    2    1    2  501    0  0.11240992030E+03 -0.36211705681E+03  0.16289529240E+03  0.44531813691E+03  0.16735774184E+03 0.  0.
         24    2    3    3    0    0  0.13306008200E+03 -0.21516942170E+03  0.11656679447E+03  0.28979175212E+03  0.79928571663E+02 0.  0.
         -6    2    1    2    0  502 -0.11240992030E+03  0.36211705681E+03  0.39676034435E+03  0.57470608115E+03  0.17059764313E+03 0.  0.
        -24    2    5    5    0    0 -0.15322914856E+02  0.25409110139E+03  0.29132008386E+03  0.39516435284E+03  0.80562987592E+02 0.  0.
          5    1    3    3  501    0 -0.20650161699E+02 -0.14694763511E+03  0.46328497935E+02  0.15552638479E+03  0.47000000000E+01 0. -1.
        -11    1    4    4    0    0  0.25630753600E+02 -0.97110673932E+01  0.34015949276E+02  0.43684381250E+02  0.00000000000E+00 0.  1.
         12    1    4    4    0    0  0.10742932840E+03 -0.20545835431E+03  0.82550845189E+02  0.24610737087E+03  0.00000000000E+00 0. -1.
         -5    1    5    5    0  502 -0.97087005448E+02  0.10802595542E+03  0.10544026050E+03  0.17954172831E+03  0.47000000000E+01 0.  1.
         13    1    6    6    0    0 -0.37978987180E+02  0.22986672615E+03  0.26474794274E+03  0.35266498046E+03  0.00000000000E+00 0. -1.
        -14    1    6    6    0    0  0.22656072323E+02  0.24224375241E+02  0.26572141116E+02  0.42499372377E+02  0.00000000000E+00 0.  1.
</event>
<event>
12    1  0.8053217E-002  0.3210684E+03  0.7818608E-02  0.1075260E+00
         21   -1    0    0  503  502  0.00000000000E+00  0.00000000000E+00  0.37440815816E+03  0.37440815816E+03  0.00000000000E+00 0.  1.
         21   -1    0    0  501  503 -0.00000000000E+00 -0.00000000000E+00 -0.47797086677E+03  0.47797086677E+03  0.00000000000E+00 0.  1.
          6    2    1    2  501    0 -0.25772565962E+03  0.81620421641E+02 -0.32976168670E+03  0.45963118683E+03  0.17156237652E+03 0.  0.
         24    2    3    3    0    0 -0.21124058024E+03  0.15098704329E+02 -0.29317871134E+03  0.37048857320E+03  0.80358400140E+02 0.  0.
         -6    2    1    2    0  502  0.25772565962E+03 -0.81620421641E+02  0.22619897809E+03  0.39274783809E+03  0.17320645999E+03 0.  0.
        -24    2    5    5    0    0  0.21661713358E+03 -0.11977811546E+03  0.15627324427E+03  0.30298359821E+03  0.78153403064E+02 0.  0.
          5    1    3    3  501    0 -0.46485079381E+02  0.66521717312E+02 -0.36582975356E+02  0.89142613632E+02  0.47000000000E+01 0. -1.
        -11    1    4    4    0    0 -0.17465915573E+03  0.43044506253E+02 -0.22217641592E+03  0.28586886852E+03  0.00000000000E+00 0.  1.
         12    1    4    4    0    0 -0.36581424514E+02 -0.27945801924E+02 -0.71002295420E+02  0.84619704677E+02  0.00000000000E+00 0. -1.
         -5    1    5    5    0  502  0.41108526041E+02  0.38157693815E+02  0.69925733823E+02  0.89764239880E+02  0.47000000000E+01 0.  1.
         11    1    6    6    0    0  0.11354751773E+03 -0.10606146127E+03  0.87529564820E+02  0.17833535002E+03  0.00000000000E+00 0. -1.
        -12    1    6    6    0    0  0.10306961585E+03 -0.13716654183E+02  0.68743679445E+02  0.12464824819E+03  0.00000000000E+00 0.  1.
</event>
<event>
12    1  0.8053217E-002  0.2472842E+03  0.7818608E-02  0.1115161E+00
         21   -1    0    0  503  502  0.00000000000E+00  0.00000000000E+00  0.40748313354E+03  0.40748313354E+03  0.00000000000E+00 0.  1.
         21   -1    0    0  501  503 -0.00000000000E+00 -0.00000000000E+00 -0.18757175994E+03  0.18757175994E+03  0.00000000000E+00 0. -1.
          6    2    1    2  501    0  0.38246330285E+02 -0.17258238776E+03 -0.23797311678E+02  0.24842660532E+03  0.17292195882E+03 0.  0.
         24    2    3    3    0    0  0.10373264662E+02 -0.19371622971E+03 -0.13576902638E+02  0.21168298241E+03  0.83616807426E+02 0.  0.
         -6    2    1    2    0  502 -0.38246330285E+02  0.17258238776E+03  0.24370868528E+03  0.34662828817E+03  0.17178412189E+03 0.  0.
        -24    2    5    5    0    0  0.25557346991E+02  0.15818003162E+03  0.19250750039E+03  0.26342980002E+03  0.81621207063E+02 0.  0.
          5    1    3    3  501    0  0.27873065623E+02  0.21133841959E+02 -0.10220409040E+02  0.36743622904E+02  0.47000000000E+01 0. -1.
        -11    1    4    4    0    0 -0.35120401279E+02 -0.87257873043E+02 -0.18260916283E+02  0.95816700306E+02  0.00000000000E+00 0.  1.
         12    1    4    4    0    0  0.45493665941E+02 -0.10645835667E+03  0.46840136444E+01  0.11586628211E+03  0.00000000000E+00 0. -1.
         -5    1    5    5    0  502 -0.63803677276E+02  0.14402356133E+02  0.51201184891E+02  0.83198488149E+02  0.47000000000E+01 0.  1.
         13    1    6    6    0    0 -0.81869613269E+01  0.22397421092E+02 -0.18857675179E+01  0.23921265152E+02  0.00000000000E+00 0. -1.
        -14    1    6    6    0    0  0.33744308317E+02  0.13578261053E+03  0.19439326791E+03  0.23950853487E+03  0.00000000000E+00 0.  1.
</event>
<event>
12    1  0.8053217E-002  0.1761114E+03  0.7818608E-02  0.1171812E+00
         21   -1    0    0  501  502  0.00000000000E+00  0.00000000000E+00  0.12606052732E+03  0.12606052732E+03  0.00000000000E+00 0.  1.
         21   -1    0    0  502  503 -0.00000000000E+00 -0.00000000000E+00 -0.32084702802E+03  0.32084702802E+03  0.00000000000E+00 0.  1.
         -6    2    1    2    0  503 -0.53446526657E+01  0.40369277618E+02 -0.20590263584E+03  0.27044568074E+03  0.17054831250E+03 0.  0.
        -24    2    3    3    0    0  0.26067125203E+01 -0.83812491976E+01 -0.30807482412E+02  0.88456008427E+02  0.82451950650E+02 0.  0.
          6    2    1    2  501    0  0.53446526657E+01 -0.40369277618E+02  0.11116135143E+02  0.17646187460E+03  0.17133878966E+03 0.  0.
         24    2    5    5    0    0  0.63895114218E+02 -0.30312395817E+02 -0.20231000102E+02  0.10912666608E+03  0.80609608128E+02 0.  0.
          5    1    5    5  501    0 -0.58550461552E+02 -0.10056881801E+02  0.31347135246E+02  0.67335208529E+02  0.47000000000E+01 0. -1.
        -13    1    6    6    0    0  0.34206547989E+02 -0.53175976451E+02 -0.30604385020E+02  0.70245290087E+02  0.00000000000E+00 0.  1.
         14    1    6    6    0    0  0.29688566229E+02  0.22863580634E+02  0.10373384918E+02  0.38881375989E+02  0.00000000000E+00 0. -1.
         -5    1    3    3    0  503 -0.79513651859E+01  0.48750526816E+02 -0.17509515343E+03  0.18198967231E+03  0.47000000000E+01 0.  1.
         11    1    4    4    0    0 -0.16681761677E+02 -0.25234078728E+01 -0.54672561099E+02  0.57216585856E+02  0.00000000000E+00 0. -1.
        -12    1    4    4    0    0  0.19288474197E+02 -0.58578413248E+01  0.23865078687E+02  0.31239422571E+02  0.00000000000E+00 0.  1.
</event>
<event>
12    1  0.8053217E-002  0.2080744E+03  0.7818608E-02  0.1143277E+00
         21   -1    0    0  501  502  0.00000000000E+00  0.00000000000E+00  0.46963573086E+03  0.46963573086E+03  0.00000000000E+00 0.  1.
         21   -1    0    0  502  503 -0.00000000000E+00 -0.00000000000E+00 -0.16404585509E+03  0.16404585509E+03  0.00000000000E+00 0.  1.
         -6    2    1    2    0  503  0.28095997001E+02  0.11439101049E+03 -0.57652204931E+02  0.21506509919E+03  0.17045389943E+03 0.  0.
        -24    2    3    3    0    0 -0.93700539750E+01  0.69891551247E+02  0.30186134946E+02  0.10960624086E+03  0.78292390724E+02 0.  0.
          6    2    1    2  501    0 -0.28095997001E+02 -0.11439101049E+03  0.36324208071E+03  0.41861648675E+03  0.17152336708E+03 0.  0.
         24    2    5    5    0    0 -0.33743119682E+02 -0.12243158425E+03  0.37419085421E+03  0.40317283232E+03  0.80009039502E+02 0.  0.
          5    1    5    5  501    0  0.56471226807E+01  0.80405737639E+01 -0.10948773499E+02  0.15443654430E+02  0.47000000000E+01 0. -1.
        -11    1    6    6    0    0 -0.17827683590E+01 -0.58090322542E+02  0.71844437889E+02  0.92408263113E+02  0.00000000000E+00 0.  1.
         12    1    6    6    0    0 -0.31960351323E+02 -0.64341261713E+02  0.30234641632E+03  0.31076456921E+03  0.00000000000E+00 0. -1.
         -5    1    3    3    0  503  0.37466050976E+02  0.44499459244E+02 -0.87838339878E+02  0.10545885833E+03  0.47000000000E+01 0.  1.
         11    1    4    4    0    0  0.28118556471E+00  0.11269921222E+01  0.39525400039E+02  0.39542463565E+02  0.00000000000E+00 0. -1.
        -12    1    4    4    0    0 -0.96512395398E+01  0.68764559125E+02 -0.93392650930E+01  0.70063777295E+02  0.00000000000E+00 0.  1.
</event>
<event>
12    1  0.8053217E-002  0.2261970E+03  0.7818608E-02  0.1130364E+00
         21   -1    0    0  501  502  0.00000000000E+00  0.00000000000E+00  0.98736512495E+02  0.98736512495E+02  0.00000000000E+00 0.  1.
         21   -1    0    0  502  503 -0.00000000000E+00 -0.00000000000E+00 -0.63399320290E+03  0.63399320290E+03  0.00000000000E+00 0. -1.
         -6    2    1    2    0  503  0.12892500992E+03  0.70609993543E+02 -0.10535472663E+03  0.24952892959E+03  0.17192335184E+03 0.  0.
        -24    2    3    3    0    0  0.61244151300E+02 -0.29103190677E+02 -0.64944368417E+02  0.12233417820E+03  0.78422180477E+02 0.  0.
          6    2    1    2  501    0 -0.12892500992E+03 -0.70609993543E+02 -0.42990196378E+03  0.48320078580E+03  0.16449884974E+03 0.  0.
         24    2    5    5    0    0 -0.12962729247E+03 -0.67851629160E+01 -0.25876990290E+03  0.30049234466E+03  0.80526474912E+02 0.  0.
          5    1    5    5  501    0  0.70228254361E+00 -0.63824830627E+02 -0.17113206087E+03  0.18270844114E+03  0.47000000000E+01 0. -1.
        -11    1    6    6    0    0 -0.33916972366E+02 -0.36252156904E+02 -0.59635875508E+02  0.77595215976E+02  0.00000000000E+00 0.  1.
         12    1    6    6    0    0 -0.95710320102E+02  0.29466993988E+02 -0.19913402740E+03  0.22289712868E+03  0.00000000000E+00 0. -1.
         -5    1    3    3    0  503  0.67680858625E+02  0.99713184220E+02 -0.40410358211E+02  0.12719475139E+03  0.47000000000E+01 0.  1.
         11    1    4    4    0    0  0.75402221106E+02 -0.17521880420E+02 -0.68885453758E+02  0.10362295586E+03  0.00000000000E+00 0. -1.
        -12    1    4    4    0    0 -0.14158069806E+02 -0.11581310258E+02  0.39410853410E+01  0.18711222343E+02  0.00000000000E+00 0.  1.
</event>
<event>
12    1  0.8053217E-002  0.2241461E+03  0.7818608E-02  0.1131128E+00
         21   -1    0    0  503  502  0.00000000000E+00  0.00000000000E+00  0.87890585427E+02  0.87890585427E+02  0.00000000000E+00 0. -1.
         21   -1    0    0  501  503 -0.00000000000E+00 -0.00000000000E+00 -0.10493982674E+04  0.10493982674E+04  0.00000000000E+00 0. -1.
          6    2    1    2  501    0 -0.14063754264E+03 -0.95007209690E+01 -0.86515577576E+03  0.89331109044E+03  0.17216563495E+03 0.  0.
         24    2    3    3    0    0 -0.11253477330E+03 -0.44704261479E+02 -0.39392015340E+03  0.41990412313E+03  0.80522289895E+02 0.  0.
         -6    2    1    2    0  502  0.14063754264E+03  0.95007209690E+01 -0.96351906218E+02  0.24397776240E+03  0.17427643735E+03 0.  0.
        -24    2    5    5    0    0  0.16363372999E+03  0.20577149375E+02 -0.52701292898E+02  0.19319412387E+03  0.85715381100E+02 0.  0.
          5    1    3    3  501    0 -0.28102769334E+02  0.35203540510E+02 -0.47123562236E+03  0.47340696731E+03  0.47000000000E+01 0. -1.
        -13    1    4    4    0    0 -0.43157812855E+02 -0.42135417199E+01 -0.47601384898E+02  0.64391323860E+02  0.00000000000E+00 0.  1.
         14    1    4    4    0    0 -0.69376960446E+02 -0.40490719759E+02 -0.34631876850E+03  0.35551279927E+03  0.00000000000E+00 0. -1.
         -5    1    5    5    0  502 -0.22996187358E+02 -0.11076428406E+02 -0.43650613320E+02  0.50783638531E+02  0.47000000000E+01 0.  1.
         11    1    6    6    0    0  0.14855398125E+03  0.24366435619E+02 -0.73259249515E+02  0.16741841645E+03  0.00000000000E+00 0. -1.
        -12    1    6    6    0    0  0.15079748748E+02 -0.37892862437E+01  0.20557956617E+02  0.25775707416E+02  0.00000000000E+00 0.  1.
</event>
<event>
12    1  0.8053217E-002  0.1794658E+03  0.7818608E-02  0.1168989E+00
         21   -1    0    0  503  502  0.00000000000E+00  0.00000000000E+00  0.11125154524E+03  0.11125154524E+03  0.00000000000E+00 0. -1.
         21   -1    0    0  501  503 -0.00000000000E+00 -0.00000000000E+00 -0.28642379973E+03  0.28642379973E+03  0.00000000000E+00 0. -1.
          6    2    1    2  501    0 -0.42891082700E+01 -0.52157825230E+02 -0.74859537765E+02  0.19445286357E+03  0.17166575248E+03 0.  0.
         24    2    3    3    0    0  0.45541441213E+02  0.14679642579E+02 -0.24942840255E+02  0.97169270633E+02  0.80809696828E+02 0.  0.
         -6    2    1    2    0  502  0.42891082700E+01  0.52157825230E+02 -0.10031271673E+03  0.20322248139E+03  0.16881321223E+03 0.  0.
        -24    2    5    5    0    0 -0.60722751422E+02  0.13967386803E+02 -0.44579319571E+02  0.10934302120E+03  0.78014358404E+02 0.  0.
          5    1    3    3  501    0 -0.49830549483E+02 -0.66837467809E+02 -0.49916697510E+02  0.97283592940E+02  0.47000000000E+01 0. -1.
        -13    1    4    4    0    0  0.43192543857E+02  0.27518655841E+01 -0.51911762942E+02  0.67586979077E+02  0.00000000000E+00 0.  1.
         14    1    4    4    0    0  0.23488973565E+01  0.11927776995E+02  0.26968922687E+02  0.29582291556E+02  0.00000000000E+00 0. -1.
         -5    1    5    5    0  502  0.65011859692E+02  0.38190438428E+02 -0.55733397155E+02  0.93879460194E+02  0.47000000000E+01 0.  1.
         13    1    6    6    0    0 -0.46042520367E+02  0.45356895087E+02 -0.23433646654E+02  0.68748072040E+02  0.00000000000E+00 0. -1.
        -14    1    6    6    0    0 -0.14680231054E+02 -0.31389508284E+02 -0.21145672917E+02  0.40594949159E+02  0.00000000000E+00 0.  1.
</event>
<event>
12    1  0.8053217E-002  0.1817296E+03  0.7818608E-02  0.1166543E+00
         21   -1    0    0  501  502  0.00000000000E+00  0.00000000000E+00  0.30522763933E+02  0.30522763933E+02  0.00000000000E+00 0.  1.
         21   -1    0    0  502  503 -0.00000000000E+00 -0.00000000000E+00 -0.11202299008E+04  0.11202299008E+04  0.00000000000E+00 0.  1.
         -6    2    1    2    0  503  0.32669527577E+02 -0.48184713606E+02 -0.66178896542E+03  0.68584448915E+03  0.17037888334E+03 0.  0.
        -24    2    3    3    0    0  0.75965656648E+02  0.67093065684E+01 -0.43366893559E+03  0.44720512473E+03  0.78152940450E+02 0.  0.
          6    2    1    2  501    0 -0.32669527577E+02  0.48184713606E+02 -0.42791817145E+03  0.46490817558E+03  0.17215279728E+03 0.  0.
         24    2    5    5    0    0  0.10613655255E+02  0.17801673581E+02 -0.39189935861E+03  0.40075205417E+03  0.81163738065E+02 0.  0.
          5    1    5    5  501    0 -0.43283182832E+02  0.30383040025E+02 -0.36018812835E+02  0.64156121417E+02  0.47000000000E+01 0. -1.
        -11    1    6    6    0    0  0.39732758919E+02  0.52758012713E+00 -0.11255353055E+03  0.11936191901E+03  0.00000000000E+00 0.  1.
         12    1    6    6    0    0 -0.29119103664E+02  0.17274093454E+02 -0.27934582807E+03  0.28139013515E+03  0.00000000000E+00 0. -1.
         -5    1    3    3    0  503 -0.43296129071E+02 -0.54894020174E+02 -0.22812002983E+03  0.23863936442E+03  0.47000000000E+01 0.  1.
         13    1    4    4    0    0  0.54937645278E+01  0.20078359406E+02 -0.26159812428E+02  0.33431388715E+02  0.00000000000E+00 0. -1.
        -14    1    4    4    0    0  0.70471892120E+02 -0.13369052837E+02 -0.40750912316E+03  0.41377373601E+03  0.00000000000E+00 0.  1.
</event>
<event>
12    1  0.8053217E-002  0.1740584E+03  0.7818608E-02  0.1173711E+00
         21   -1    0    0  503  502  0.00000000000E+00  0.00000000000E+00  0.24567052065E+03  0.24567052065E+03  0.00000000000E+00 0.  1.
         21   -1    0    0  501  503 -0.00000000000E+00 -0.00000000000E+00 -0.24555897238E+03  0.24555897238E+03  0.00000000000E+00 0.  1.
          6    2    1    2  501    0 -0.17379043361E+02 -0.18720292411E+02 -0.17329715201E+03  0.24553269379E+03  0.17205208609E+03 0.  0.
         24    2    3    3    0    0  0.19446950835E+02 -0.72112309042E+02 -0.88758938515E+02  0.13887595078E+03  0.76354512148E+02 0.  0.
         -6    2    1    2    0  502  0.17379043361E+02  0.18720292411E+02  0.17340870029E+03  0.24569679924E+03  0.17217392174E+03 0.  0.
        -24    2    5    5    0    0 -0.19626198685E+02 -0.17616657502E+02  0.22253306692E+02  0.85822458336E+02  0.78579580043E+02 0.  0.
          5    1    3    3  501    0 -0.36825994197E+02  0.53392016631E+02 -0.84538213497E+02  0.10665674301E+03  0.47000000000E+01 0. -1.
        -11    1    4    4    0    0 -0.26177170617E+02 -0.33487631788E+02 -0.57244716249E+02  0.71299532135E+02  0.00000000000E+00 0.  1.
         12    1    4    4    0    0  0.45624121452E+02 -0.38624677253E+02 -0.31514222266E+02  0.67576418640E+02  0.00000000000E+00 0. -1.
         -5    1    5    5    0  502  0.37005242046E+02  0.36336949913E+02  0.15115539359E+03  0.15987434091E+03  0.47000000000E+01 0.  1.
         13    1    6    6    0    0 -0.25166989850E+02 -0.72862704387E+01 -0.25554061993E+02  0.36598868826E+02  0.00000000000E+00 0. -1.
        -14    1    6    6    0    0  0.55407911653E+01 -0.10330387064E+02  0.47807368685E+02  0.49223589509E+02  0.00000000000E+00 0.  1.
</event>
<event>
12    1  0.8053217E-002  0.2069266E+03  0.7818608E-02  0.1144697E+00
         21   -1    0    0  503  502  0.00000000000E+00  0.00000000000E+00  0.34100187997E+03  0.34100187997E+03  0.00000000000E+00 0.  1.
         21   -1    0    0  501  503 -0.00000000000E+00 -0.00000000000E+00 -0.18932871484E+04  0.18932871484E+04  0.00000000000E+00 0. -1.
          6    2    1    2  501    0 -0.88435301707E+02  0.63745062070E+02 -0.18558058245E+04  0.18669426548E+04  0.17197494767E+03 0.  0.
         24    2    3    3    0    0  0.10974677735E+02 -0.30999236460E+01 -0.77242366035E+03  0.77694742560E+03  0.82939363414E+02 0.  0.
         -6    2    1    2    0  502  0.88435301707E+02 -0.63745062070E+02  0.30352055608E+03  0.36734637354E+03  0.17588176331E+03 0.  0.
        -24    2    5    5    0    0  0.17853782025E+02 -0.93192035861E+02  0.14699975675E+03  0.19307725462E+03  0.81647931309E+02 0.  0.
          5    1    3    3  501    0 -0.99409979441E+02  0.66844985716E+02 -0.10833821642E+04  0.10899952292E+04  0.47000000000E+01 0. -1.
        -13    1    4    4    0    0 -0.16061980105E+02  0.21824597291E+02 -0.10269480657E+03  0.10620980910E+03  0.00000000000E+00 0.  1.
         14    1    4    4    0    0  0.27036657840E+02 -0.24924520937E+02 -0.66972885377E+03  0.67073761650E+03  0.00000000000E+00 0. -1.
         -5    1    5    5    0  502  0.70581519681E+02  0.29446973790E+02  0.15652079933E+03  0.17426911892E+03  0.47000000000E+01 0.  1.
         11    1    6    6    0    0 -0.11807357825E+02 -0.31672597028E+02  0.11067449593E+03  0.11572126490E+03  0.00000000000E+00 0. -1.
        -12    1    6    6    0    0  0.29661139851E+02 -0.61519438833E+02  0.36325260817E+02  0.77355989716E+02  0.00000000000E+00 0.  1.
</event>
<event>
12    1  0.8053217E-002  0.2608975E+03  0.7818608E-02  0.1106782E+00
         21   -1    0    0  503  502  0.00000000000E+00  0.00000000000E+00  0.14848378843E+04  0.14848378843E+04  0.00000000000E+00 0. -1.
         21   -1    0    0  501  503 -0.00000000000E+00 -0.00000000000E+00 -0.49760338683E+02  0.49760338683E+02  0.00000000000E+00 0. -1.
          6    2    1    2  501    0 -0.94850577375E+02 -0.17116429314E+03  0.93698196622E+03  0.97231117637E+03  0.17076290988E+03 0.  0.
         24    2    3    3    0    0 -0.10602688532E+02 -0.12163634267E+03  0.70911464203E+03  0.72432663635E+03  0.83052295132E+02 0.  0.
         -6    2    1    2    0  502  0.94850577375E+02  0.17116429314E+03  0.49809557942E+03  0.56228704664E+03  0.17255048336E+03 0.  0.
        -24    2    5    5    0    0  0.36637968607E+02  0.17078142243E+03  0.33064454165E+03  0.38494332823E+03  0.91361469095E+02 0.  0.
          5    1    3    3  501    0 -0.84247888843E+02 -0.49527950473E+02  0.22786732419E+03  0.24798454001E+03  0.47000000000E+01 0. -1.
        -13    1    4    4    0    0  0.20323703671E+02  0.46302007042E+00  0.13787077498E+03  0.13936146494E+03  0.00000000000E+00 0.  1.
         14    1    4    4    0    0 -0.30926392202E+02 -0.12209936274E+03  0.57124386705E+03  0.58496517141E+03  0.00000000000E+00 0. -1.
         -5    1    5    5    0  502  0.58212608768E+02  0.38287071214E+00  0.16745103777E+03  0.17734371841E+03  0.47000000000E+01 0.  1.
         11    1    6    6    0    0 -0.15151380923E+02  0.31420928512E+02  0.13374322945E+03  0.13821754779E+03  0.00000000000E+00 0. -1.
        -12    1    6    6    0    0  0.51789349530E+02  0.13936049392E+03  0.19690131220E+03  0.24672578044E+03  0.00000000000E+00 0.  1.
</event>
<event>
12    1  0.8053217E-002  0.1807042E+03  0.7818608E-02  0.1167334E+00
         21   -1    0    0  501  502  0.00000000000E+00  0.00000000000E+00  0.45360502017E+03  0.45360502017E+03  0.00000000000E+00 0.  1.
         21   -1    0    0  502  503 -0.00000000000E+00 -0.00000000000E+00 -0.72865521572E+02  0.72865521572E+02  0.00000000000E+00 0.  1.
         -6    2    1    2    0  503  0.52444074345E+02 -0.15650972502E+02  0.15577975376E+03  0.23792090076E+03  0.17129999843E+03 0.  0.
        -24    2    3    3    0    0 -0.56310914141E+01 -0.25966686726E+02  0.15894203594E+03  0.17866527768E+03  0.77153954196E+02 0.  0.
          6    2    1    2  501    0 -0.52444074345E+02  0.15650972502E+02  0.22495974484E+03  0.28854964099E+03  0.17221694063E+03 0.  0.
         24    2    5    5    0    0 -0.72223315329E+02  0.12394169287E+01  0.66634564156E+02  0.12827530072E+03  0.82441762501E+02 0.  0.
          5    1    5    5  501    0  0.19779240984E+02  0.14411555573E+02  0.15832518069E+03  0.16027434027E+03  0.47000000000E+01 0. -1.
        -13    1    6    6    0    0 -0.41308944285E+02  0.13452249027E+02  0.81116792080E+02  0.92018073437E+02  0.00000000000E+00 0.  1.
         14    1    6    6    0    0 -0.30914371044E+02 -0.12212832099E+02 -0.14482227924E+02  0.36257227287E+02  0.00000000000E+00 0. -1.
         -5    1    3    3    0  503  0.58075165759E+02  0.10315714224E+02 -0.31622821831E+01  0.59255623079E+02  0.47000000000E+01 0.  1.
         11    1    4    4    0    0 -0.36969654690E+02 -0.32865723920E+02  0.99305578689E+02  0.11094372058E+03  0.00000000000E+00 0. -1.
        -12    1    4    4    0    0  0.31338563276E+02  0.68990371944E+01  0.59636457253E+02  0.67721557100E+02  0.00000000000E+00 0.  1.
</event>
<event>
12    1  0.8053217E-002  0.2116704E+03  0.7818608E-02  0.1140361E+00
         21   -1    0    0  503  502  0.00000000000E+00  0.00000000000E+00  0.77931385625E+03  0.77931385625E+03  0.00000000000E+00 0.  1.
         21   -1    0    0  501  503 -0.00000000000E+00 -0.00000000000E+00 -0.72432557265E+02  0.72432557265E+02  0.00000000000E+00 0. -1.
          6    2    1    2  501    0  0.94658022351E+02 -0.77705946441E+02  0.15940700317E+03  0.26498101812E+03  0.17264411950E+03 0.  0.
         24    2    3    3    0    0  0.50567475990E+02 -0.11111586056E+03  0.75412691046E+02  0.16429669407E+03  0.80015783553E+02 0.  0.
         -6    2    1    2    0  502 -0.94658022351E+02  0.77705946441E+02  0.54747429581E+03  0.58676539539E+03  0.17195106672E+03 0.  0.
        -24    2    5    5    0    0 -0.59677854635E+02 -0.12242471141E+02  0.38362239818E+03  0.39654482785E+03  0.79814357576E+02 0.  0.
          5    1    3    3  501    0  0.44090546361E+02  0.33409914116E+02  0.83994312121E+02  0.10068432404E+03  0.47000000000E+01 0. -1.
        -13    1    4    4    0    0 -0.90291985085E+01 -0.66025216479E+02  0.15264078548E+02  0.68365544909E+02  0.00000000000E+00 0.  1.
         14    1    4    4    0    0  0.59596674498E+02 -0.45090644077E+02  0.60148612498E+02  0.95931149164E+02  0.00000000000E+00 0. -1.
         -5    1    5    5    0  502 -0.34980167715E+02  0.89948417582E+02  0.16385189764E+03  0.19022056755E+03  0.47000000000E+01 0.  1.
         11    1    6    6    0    0 -0.16300619008E+02  0.21613737303E+01  0.82441753865E+01  0.18394242149E+02  0.00000000000E+00 0. -1.
        -12    1    6    6    0    0 -0.43377235627E+02 -0.14403844871E+02  0.37537822279E+03  0.37815058570E+03  0.00000000000E+00 0.  1.
</event>
<event>
12    1  0.8053217E-002  0.1800454E+03  0.7818608E-02  0.1167808E+00
         21   -1    0    0  501  502  0.00000000000E+00  0.00000000000E+00  0.43264283417E+03  0.43264283417E+03  0.00000000000E+00 0. -1.
         21   -1    0    0  502  503 -0.00000000000E+00 -0.00000000000E+00 -0.75229450378E+02  0.75229450378E+02  0.00000000000E+00 0.  1.
         -6    2    1    2    0  503  0.19278036916E+02 -0.48940912308E+02  0.19683637140E+03  0.26662276828E+03  0.17197757952E+03 0.  0.
        -24    2    3    3    0    0 -0.45609251325E+02 -0.64711186806E+02  0.10592213720E+03  0.15372214954E+03  0.78378942359E+02 0.  0.
          6    2    1    2  501    0 -0.19278036916E+02  0.48940912308E+02  0.16057701239E+03  0.24124951626E+03  0.17219029178E+03 0.  0.
         24    2    5    5    0    0 -0.43108578108E+02  0.13410727395E+02  0.17322058028E+03  0.19639153434E+03  0.80784083897E+02 0.  0.
          5    1    5    5  501    0  0.23830541191E+02  0.35530184913E+02 -0.12643567890E+02  0.44857981925E+02  0.47000000000E+01 0. -1.
        -11    1    6    6    0    0 -0.12217582728E+02 -0.21063840383E+02  0.93095662136E+01  0.26069574651E+02  0.00000000000E+00 0.  1.
         12    1    6    6    0    0 -0.30890995380E+02  0.34474567779E+02  0.16391101407E+03  0.17032195969E+03  0.00000000000E+00 0. -1.
         -5    1    3    3    0  503  0.64887288242E+02  0.15770274498E+02  0.90914234194E+02  0.11290061874E+03  0.47000000000E+01 0.  1.
         13    1    4    4    0    0 -0.73396618182E+01 -0.71035231839E+02  0.57533727158E+02  0.91706077000E+02  0.00000000000E+00 0. -1.
        -14    1    4    4    0    0 -0.38269589507E+02  0.63240450328E+01  0.48388410046E+02  0.62016072541E+02  0.00000000000E+00 0.  1.
</event>
<event>
12    1  0.8053217E-002  0.1739393E+03  0.7818608E-02  0.1177684E+00
         21   -1    0    0  503  502  0.00000000000E+00  0.00000000000E+00  0.26243555503E+02  0.26243555503E+02  0.00000000000E+00 0. -1.
         21   -1    0    0  501  503 -0.00000000000E+00 -0.00000000000E+00 -0.10643627054E+04  0.10643627054E+04  0.00000000000E+00 0. -1.
          6    2    1    2  501    0  0.14245275320E+02 -0.20252725858E+02 -0.53902087970E+03  0.56206681176E+03  0.15736102236E+03 0.  0.
         24    2    3    3    0    0 -0.23360305194E+02  0.13943405151E+02 -0.16570212513E+03  0.18527437875E+03  0.78289710324E+02 0.  0.
         -6    2    1    2    0  502 -0.14245275320E+02  0.20252725858E+02 -0.49909827020E+03  0.52853944915E+03  0.17216784023E+03 0.  0.
        -24    2    5    5    0    0  0.22884960470E+02  0.67930609398E+02 -0.31010698292E+03  0.33006619740E+03  0.87401743139E+02 0.  0.
          5    1    3    3  501    0  0.37605580514E+02 -0.34196131009E+02 -0.37331875457E+03  0.37679243301E+03  0.47000000000E+01 0. -1.
        -11    1    4    4    0    0  0.75417720989E+01  0.76052334901E+01 -0.14936693044E+03  0.14975045179E+03  0.00000000000E+00 0.  1.
         12    1    4    4    0    0 -0.30902077293E+02  0.63381716613E+01 -0.16335194691E+02  0.35523926959E+02  0.00000000000E+00 0. -1.
         -5    1    5    5    0  502 -0.37130235790E+02 -0.47677883540E+02 -0.18899128728E+03  0.19847325174E+03  0.47000000000E+01 0.  1.
         13    1    6    6    0    0  0.51226270295E+02  0.15706462423E+02 -0.14276785396E+03  0.15249093041E+03  0.00000000000E+00 0. -1.
        -14    1    6    6    0    0 -0.28341309826E+02  0.52224146974E+02 -0.16733912896E+03  0.17757526700E+03  0.00000000000E+00 0.  1.
</event>
<event>
12    1  0.8053217E-002  0.2834838E+03  0.7818608E-02  0.1093802E+00
         21   -1    0    0  503  502  0.00000000000E+00  0.00000000000E+00  0.68914185678E+03  0.68914185678E+03  0.00000000000E+00 0. -1.
         21   -1    0    0  501  503 -0.00000000000E+00 -0.00000000000E+00 -0.11849384625E+03  0.11849384625E+03  0.00000000000E+00 0.  1.
          6    2    1    2  501    0 -0.14637781839E+03  0.17124968183E+03  0.23443668129E+03  0.36786176453E+03  0.17207208091E+03 0.  0.
         24    2    3    3    0    0 -0.11337335178E+03  0.17374229709E+03  0.12852191447E+03  0.25679630736E+03  0.79915945106E+02 0.  0.
         -6    2    1    2    0  502  0.14637781839E+03 -0.17124968183E+03  0.33621132924E+03  0.43977393849E+03  0.17207597109E+03 0.  0.
        -24    2    5    5    0    0  0.24428691682E+02 -0.17889679139E+02  0.75523111889E+02  0.11362778016E+03  0.79314124834E+02 0.  0.
          5    1    3    3  501    0 -0.33004466602E+02 -0.24926152632E+01  0.10591476682E+03  0.11106545717E+03  0.47000000000E+01 0. -1.
        -13    1    4    4    0    0  0.10541259523E+02  0.11890295479E+02  0.21005615788E+02  0.26338814961E+02  0.00000000000E+00 0.  1.
         14    1    4    4    0    0 -0.12391461131E+03  0.16185200161E+03  0.10751629868E+03  0.23045749240E+03  0.00000000000E+00 0. -1.
         -5    1    5    5    0  502  0.12194912670E+03 -0.15336000269E+03  0.26068821735E+03  0.32614615833E+03  0.47000000000E+01 0.  1.
         11    1    6    6    0    0  0.24880820945E+02 -0.96923369605E+01  0.91688283517E+02  0.95497319234E+02  0.00000000000E+00 0. -1.
        -12    1    6    6    0    0 -0.45212926277E+00 -0.81973421790E+01 -0.16165171629E+02  0.18130460928E+02  0.00000000000E+00 0.  1.
</event>
<event>
12    1  0.8053217E-002  0.1905627E+03  0.7818608E-02  0.1158637E+00
         21   -1    0    0  503  502  0.00000000000E+00  0.00000000000E+00  0.34035701882E+02  0.34035701882E+02  0.00000000000E+00 0. -1.
         21   -1    0    0  501  503 -0.00000000000E+00 -0.00000000000E+00 -0.10677780095E+04  0.10677780095E+04  0.00000000000E+00 0. -1.
          6    2    1    2  501    0 -0.92889425397E+01 -0.77438979225E+02 -0.58359079088E+03  0.61298802895E+03  0.17056679772E+03 0.  0.
         24    2    3    3    0    0 -0.65106937855E+02 -0.15824788947E+02 -0.33725746619E+03  0.35296081134E+03  0.79683113286E+02 0.  0.
         -6    2    1    2    0  502  0.92889425397E+01  0.77438979225E+02 -0.45015151671E+03  0.48882568239E+03  0.17387087111E+03 0.  0.
        -24    2    5    5    0    0 -0.36560694738E+01  0.95776932658E+02 -0.19920893113E+03  0.23683733916E+03  0.84977286986E+02 0.  0.
          5    1    3    3  501    0  0.55817995315E+02 -0.61614190278E+02 -0.24633332469E+03  0.26002721761E+03  0.47000000000E+01 0. -1.
        -13    1    4    4    0    0 -0.29490511357E+02  0.34095175513E+01 -0.28652483412E+03  0.28805866701E+03  0.00000000000E+00 0.  1.
         14    1    4    4    0    0 -0.35616426498E+02 -0.19234306499E+02 -0.50732632065E+02  0.64902144334E+02  0.00000000000E+00 0. -1.
         -5    1    5    5    0  502  0.12945012014E+02 -0.18337953433E+02 -0.25094258558E+03  0.25198834324E+03  0.47000000000E+01 0.  1.
         11    1    6    6    0    0 -0.33264988443E+02  0.10101103213E+02 -0.78741581804E+02  0.86074551682E+02  0.00000000000E+00 0. -1.
        -12    1    6    6    0    0  0.29608918969E+02  0.85675829445E+02 -0.12046734932E+03  0.15076278747E+03  0.00000000000E+00 0.  1.
</event>
<event>
12    1  0.8053217E-002  0.1797998E+03  0.7818608E-02  0.1168240E+00
         21   -1    0    0  501  502  0.00000000000E+00  0.00000000000E+00  0.24543705650E+03  0.24543705650E+03  0.00000000000E+00 0.  1.
         21   -1    0    0  502  503 -0.00000000000E+00 -0.00000000000E+00 -0.25248512888E+03  0.25248512888E+03  0.00000000000E+00 0.  1.
         -6    2    1    2    0  503 -0.17195557809E+02  0.45129103841E+02 -0.17623414834E+03  0.25176666307E+03  0.17319253556E+03 0.  0.
        -24    2    3    3    0    0  0.53578392500E+02  0.24163648503E+02 -0.73766676608E+02  0.12539350484E+03  0.82628581170E+02 0.  0.
          6    2    1    2  501    0  0.17195557809E+02 -0.45129103841E+02  0.16918607595E+03  0.24615552231E+03  0.17215193768E+03 0.  0.
         24    2    5    5    0    0 -0.10457013273E+02 -0.69880008139E+02  0.44365954873E+02  0.11585040124E+03  0.80376693459E+02 0.  0.
          5    1    5    5  501    0  0.27652571082E+02  0.24750904298E+02  0.12482012108E+03  0.13030512107E+03  0.47000000000E+01 0. -1.
        -11    1    6    6    0    0  0.24597368790E+01  0.16324240661E+02  0.18784005370E+02  0.25007398834E+02  0.00000000000E+00 0.  1.
         12    1    6    6    0    0 -0.12916750152E+02 -0.86204248800E+02  0.25581949503E+02  0.90843002405E+02  0.00000000000E+00 0. -1.
         -5    1    3    3    0  503 -0.70773950308E+02  0.20965455338E+02 -0.10246747173E+03  0.12637315823E+03  0.47000000000E+01 0.  1.
         11    1    4    4    0    0  0.14873003718E+02  0.47145450253E+02 -0.15590787295E+02  0.51836014195E+02  0.00000000000E+00 0. -1.
        -12    1    4    4    0    0  0.38705388782E+02 -0.22981801751E+02 -0.58175889313E+02  0.73557490644E+02  0.00000000000E+00 0.  1.
</event>
<event>
12    1  0.8053217E-002  0.2043995E+03  0.7818608E-02  0.1146128E+00
         21   -1    0    0  501  502  0.00000000000E+00  0.00000000000E+00  0.25366227511E+03  0.25366227511E+03  0.00000000000E+00 0. -1.
         21   -1    0    0  502  503 -0.00000000000E+00 -0.00000000000E+00 -0.17615305155E+03  0.17615305155E+03  0.00000000000E+00 0. -1.
         -6    2    1    2    0  503 -0.10909833276E+03 -0.16945226164E+02 -0.16466253271E+02  0.20506171834E+03  0.17201623159E+03 0.  0.
        -24    2    3    3    0    0 -0.57627043852E+02  0.42687292194E+02 -0.51518089747E+02  0.11871328426E+03  0.79345127076E+02 0.  0.
          6    2    1    2  501    0  0.10909833276E+03  0.16945226164E+02  0.93975476832E+02  0.22475360832E+03  0.17173586494E+03 0.  0.
         24    2    5    5    0    0  0.12309101803E+03  0.48643902244E+02  0.38720307302E+02  0.15936381503E+03  0.79874497798E+02 0.  0.
          5    1    5    5  501    0 -0.13992685277E+02 -0.31698676080E+02  0.55255169530E+02  0.65389793288E+02  0.47000000000E+01 0. -1.
        -11    1    6    6    0    0  0.15744390653E+02  0.89229174118E+01 -0.23045623549E+02  0.29301963363E+02  0.00000000000E+00 0.  1.
         12    1    6    6    0    0  0.10734662738E+03  0.39720984832E+02  0.61765930852E+02  0.13006185167E+03  0.00000000000E+00 0. -1.
         -5    1    3    3    0  503 -0.51471288904E+02 -0.59632518358E+02  0.35051836476E+02  0.86348434077E+02  0.47000000000E+01 0.  1.
         13    1    4    4    0    0 -0.32899351029E+02 -0.12071294269E+02  0.59803023305E+01  0.35550632335E+02  0.00000000000E+00 0. -1.
        -14    1    4    4    0    0 -0.24727692823E+02  0.54758586463E+02 -0.57498392078E+02  0.83162651925E+02  0.00000000000E+00 0.  1.
</event>
<event>
12    1  0.8053217E-002  0.2110089E+03  0.7818608E-02  0.1141824E+00
         21   -1    0    0  503  502  0.00000000000E+00  0.00000000000E+00  0.21764646187E+03  0.21764646187E+03  0.00000000000E+00 0. -1.
         21   -1    0    0  501  503 -0.00000000000E+00 -0.00000000000E+00 -0.20427441111E+03  0.20427441111E+03  0.00000000000E+00 0. -1.
          6    2    1    2  501    0  0.11229051017E+02 -0.11860746811E+03 -0.25549154189E+02  0.21255001562E+03  0.17415776406E+03 0.  0.
         24    2    3    3    0    0  0.55500953047E+02 -0.11378433677E+03  0.16930041637E+02  0.15082614679E+03  0.80216389616E+02 0.  0.
         -6    2    1    2    0  502 -0.11229051017E+02  0.11860746811E+03  0.38921204945E+02  0.20937085736E+03  0.16771247014E+03 0.  0.
        -24    2    5    5    0    0  0.29187112840E+02  0.12003796008E+03 -0.73968695911E+01  0.14770265943E+03  0.80624825614E+02 0.  0.
          5    1    3    3  501    0 -0.44271902029E+02 -0.48231313437E+01 -0.42479195825E+02  0.61723868829E+02  0.47000000000E+01 0. -1.
        -13    1    4    4    0    0 -0.39324945441E+01 -0.69465793684E+02  0.29602675134E+02  0.75612693250E+02  0.00000000000E+00 0.  1.
         14    1    4    4    0    0  0.59433447591E+02 -0.44318543081E+02 -0.12672633497E+02  0.75213453538E+02  0.00000000000E+00 0. -1.
         -5    1    5    5    0  502 -0.40416163857E+02 -0.14304919731E+01  0.46318074536E+02  0.61668197938E+02  0.47000000000E+01 0.  1.
         13    1    6    6    0    0 -0.29067463175E+01  0.50735941965E+02 -0.39989220028E+02  0.64666240804E+02  0.00000000000E+00 0. -1.
        -14    1    6    6    0    0  0.32093859158E+02  0.69302018117E+02  0.32592350437E+02  0.83036418623E+02  0.00000000000E+00 0.  1.
</event>
<event>
12    1  0.8053217E-002  0.1898669E+03  0.7818608E-02  0.1158840E+00
         21   -1    0    0  503  502  0.00000000000E+00  0.00000000000E+00  0.25452904391E+03  0.25452904391E+03  0.00000000000E+00 0.  1.
         21   -1    0    0  501  503 -0.00000000000E+00 -0.00000000000E+00 -0.16272533409E+03  0.16272533409E+03  0.00000000000E+00 0.  1.
          6    2    1    2  501    0 -0.27125766244E+02 -0.76258992624E+02 -0.30827628611E+02  0.19122810813E+03  0.17048931199E+03 0.  0.
         24    2    3    3    0    0  0.20943441374E+02 -0.62265692416E+02 -0.72691309856E+02  0.12579784770E+03  0.78901380025E+02 0.  0.
         -6    2    1    2    0  502  0.27125766244E+02  0.76258992624E+02  0.12263133843E+03  0.22602626987E+03  0.17175036639E+03 0.  0.
        -24    2    5    5    0    0  0.16925979455E+02  0.36489308530E+02 -0.69975214220E+01  0.89969683373E+02  0.80172440419E+02 0.  0.
          5    1    3    3  501    0 -0.48069207619E+02 -0.13993300208E+02  0.41863681245E+02  0.65430260425E+02  0.47000000000E+01 0. -1.
        -11    1    4    4    0    0  0.20469184276E+01 -0.45763331516E+02  0.31475239563E+01  0.45917091519E+02  0.00000000000E+00 0.  1.
         12    1    4    4    0    0  0.18896522947E+02 -0.16502360899E+02 -0.75838833812E+02  0.79880756185E+02  0.00000000000E+00 0. -1.
         -5    1    5    5    0  502  0.10199786789E+02  0.39769684094E+02  0.12962885985E+03  0.13605658650E+03  0.47000000000E+01 0.  1.
         11    1    6    6    0    0  0.26237873453E+02  0.22076338144E+02 -0.40052840881E+02  0.52725902286E+02  0.00000000000E+00 0. -1.
        -12    1    6    6    0    0 -0.93118939978E+01  0.14412970386E+02  0.33055319459E+02  0.37243781088E+02  0.00000000000E+00 0.  1.
</event>
<event>
12    1  0.8053217E-002  0.1797612E+03  0.7818608E-02  0.1168491E+00
         21   -1    0    0  503  502  0.00000000000E+00  0.00000000000E+00  0.12317360458E+03  0.12317360458E+03  0.00000000000E+00 0.  1.
         21   -1    0    0  501  503 -0.00000000000E+00 -0.00000000000E+00 -0.51080254590E+03  0.51080254590E+03  0.00000000000E+00 0. -1.
          6    2    1    2  501    0  0.38481983169E+02  0.28259842470E+02 -0.41558334694E+03  0.45205433765E+03  0.17135963413E+03 0.  0.
         24    2    3    3    0    0  0.13734278376E+02 -0.51105719976E+02 -0.23242934795E+03  0.25086085181E+03  0.78149473254E+02 0.  0.
         -6    2    1    2    0  502 -0.38481983169E+02 -0.28259842470E+02  0.27954405622E+02  0.18192181282E+03  0.17330497818E+03 0.  0.
        -24    2    5    5    0    0  0.20215668439E+02  0.30568014522E+02  0.44168061795E+02  0.97121437182E+02  0.78349723135E+02 0.  0.
          5    1    3    3  501    0  0.24747704792E+02  0.79365562446E+02 -0.18315399900E+03  0.20119348584E+03  0.47000000000E+01 0. -1.
        -11    1    4    4    0    0  0.16559434691E+02 -0.11584146703E+01 -0.40776130506E+01  0.17093382638E+02  0.00000000000E+00 0.  1.
         12    1    4    4    0    0 -0.28251563144E+01 -0.49947305306E+02 -0.22835173489E+03  0.23376746918E+03  0.00000000000E+00 0. -1.
         -5    1    5    5    0  502 -0.58697651608E+02 -0.58827856992E+02 -0.16213656173E+02  0.84800375642E+02  0.47000000000E+01 0.  1.
         13    1    6    6    0    0  0.33371998970E+02  0.21325491786E+02 -0.98090586670E+01  0.40800545917E+02  0.00000000000E+00 0. -1.
        -14    1    6    6    0    0 -0.13156330530E+02  0.92425227354E+01  0.53977120462E+02  0.56320891265E+02  0.00000000000E+00 0.  1.
</event>
<event>
12    1  0.8053217E-002  0.1756779E+03  0.7818608E-02  0.1172660E+00
         21   -1    0    0  503  502  0.00000000000E+00  0.00000000000E+00  0.10183986588E+04  0.10183986588E+04  0.00000000000E+00 0. -1.
         21   -1    0    0  501  503 -0.00000000000E+00 -0.00000000000E+00 -0.31990356708E+02  0.31990356708E+02  0.00000000000E+00 0. -1.
          6    2    1    2  501    0 -0.15663431427E+02  0.30542753100E+02  0.36182954737E+03  0.40222300707E+03  0.17229197085E+03 0.  0.
         24    2    3    3    0    0  0.43631430556E+02  0.56265661587E+02  0.18204482100E+03  0.21111521939E+03  0.79748307804E+02 0.  0.
         -6    2    1    2    0  502  0.15663431427E+02 -0.30542753100E+02  0.62457875469E+03  0.64816600840E+03  0.16983035885E+03 0.  0.
        -24    2    5    5    0    0 -0.55755323208E+02 -0.23960503447E+02  0.33285624290E+03  0.34771954327E+03  0.80204990776E+02 0.  0.
          5    1    3    3  501    0 -0.59294861983E+02 -0.25722908488E+02  0.17978472636E+03  0.19110778768E+03  0.47000000000E+01 0. -1.
        -13    1    4    4    0    0  0.23038350552E+01  0.16517319890E+02 -0.33892212650E+01  0.17018117790E+02  0.00000000000E+00 0.  1.
         14    1    4    4    0    0  0.41327595501E+02  0.39748341697E+02  0.18543404227E+03  0.19409710160E+03  0.00000000000E+00 0. -1.
         -5    1    5    5    0  502  0.71418754634E+02 -0.65822496530E+01  0.29172251178E+03  0.30044646512E+03  0.47000000000E+01 0.  1.
         13    1    6    6    0    0 -0.27497438581E+02 -0.21831703800E+00  0.23507267529E+02  0.36176628056E+02  0.00000000000E+00 0. -1.
        -14    1    6    6    0    0 -0.28257884627E+02 -0.23742186409E+02  0.30934897537E+03  0.31154291522E+03  0.00000000000E+00 0.  1.
</event>
<event>
12    1  0.8053217E-002  0.2072273E+03  0.7818608E-02  0.1144620E+00
         21   -1    0    0  501  502  0.00000000000E+00  0.00000000000E+00  0.55961805512E+03  0.55961805512E+03  0.00000000000E+00 0.  1.
         21   -1    0    0  502  503 -0.00000000000E+00 -0.00000000000E+00 -0.22870555178E+03  0.22870555178E+03  0.00000000000E+00 0. -1.
         -6    2    1    2    0  503  0.18791757990E+02 -0.11308341336E+03 -0.15689597899E+03  0.25992209188E+03  0.17263301272E+03 0.  0.
        -24    2    3    3    0    0 -0.11798476770E+02 -0.13378923623E+03 -0.82983096799E+02  0.17715919127E+03  0.80376743611E+02 0.  0.
          6    2    1    2  501    0 -0.18791757990E+02  0.11308341336E+03  0.48780848233E+03  0.52840151502E+03  0.16766054127E+03 0.  0.
         24    2    5    5    0    0 -0.56776266876E+02  0.10893433442E+03  0.45622363244E+03  0.47860462241E+03  0.76368501998E+02 0.  0.
          5    1    5    5  501    0  0.37984508886E+02  0.41490789316E+01  0.31584849886E+02  0.49796892609E+02  0.47000000000E+01 0. -1.
        -11    1    6    6    0    0 -0.61282236849E+02  0.52537878313E+02  0.33850562522E+03  0.34799683837E+03  0.00000000000E+00 0.  1.
         12    1    6    6    0    0  0.45059699736E+01  0.56396456111E+02  0.11771800722E+03  0.13060778404E+03  0.00000000000E+00 0. -1.
         -5    1    3    3    0  503  0.30590234760E+02  0.20705822873E+02 -0.73912882191E+02  0.82762900610E+02  0.47000000000E+01 0.  1.
         11    1    4    4    0    0 -0.25173180400E+02 -0.45707444715E+02 -0.69721927321E+02  0.87086202484E+02  0.00000000000E+00 0. -1.
        -12    1    4    4    0    0  0.13374703629E+02 -0.88081791514E+02 -0.13261169478E+02  0.90072988789E+02  0.00000000000E+00 0.  1.
</event>
<event>
12    1  0.8053217E-002  0.2509040E+03  0.7818608E-02  0.1113022E+00
         21   -1    0    0  501  502  0.00000000000E+00  0.00000000000E+00  0.27518541515E+03  0.27518541515E+03  0.00000000000E+00 0.  1.
         21   -1    0    0  502  503 -0.00000000000E+00 -0.00000000000E+00 -0.33802174680E+03  0.33802174680E+03  0.00000000000E+00 0.  1.
         -6    2    1    2    0  503 -0.45824074717E+02  0.17594820739E+03 -0.20712113360E+03  0.32534905266E+03  0.17290235561E+03 0.  0.
        -24    2    3    3    0    0  0.18068685623E+02  0.59313923450E+02 -0.29392847388E+02  0.10332366057E+03  0.77247785993E+02 0.  0.
          6    2    1    2  501    0  0.45824074717E+02 -0.17594820739E+03  0.14428480195E+03  0.28785810929E+03  0.17025442580E+03 0.  0.
         24    2    5    5    0    0  0.96256991055E+02 -0.10410660716E+03  0.10700588161E+03  0.19237773185E+03  0.73860266938E+02 0.  0.
          5    1    5    5  501    0 -0.50432916339E+02 -0.71841600233E+02  0.37278920338E+02  0.95480377440E+02  0.47000000000E+01 0. -1.
        -13    1    6    6    0    0  0.61363180339E+02 -0.25425259546E+02  0.18565768065E+02  0.68967901723E+02  0.00000000000E+00 0.  1.
         14    1    6    6    0    0  0.34893810717E+02 -0.78681347613E+02  0.88440113547E+02  0.12340983013E+03  0.00000000000E+00 0. -1.
         -5    1    3    3    0  503 -0.63892760340E+02  0.11663428394E+03 -0.17772828621E+03  0.22202539209E+03  0.47000000000E+01 0.  1.
         13    1    4    4    0    0 -0.24016382549E+02  0.32897040436E+02  0.75261879636E+01  0.41420350137E+02  0.00000000000E+00 0. -1.
        -14    1    4    4    0    0  0.42085068172E+02  0.26416883014E+02 -0.36919035352E+02  0.61903310433E+02  0.00000000000E+00 0.  1.
</event>
<event>
12    1  0.8053217E-002  0.1923364E+03  0.7818608E-02  0.1157282E+00
         21   -1    0    0  503  502  0.00000000000E+00  0.00000000000E+00  0.21929412741E+03  0.21929412741E+03  0.00000000000E+00 0. -1.
         21   -1    0    0  501  503 -0.00000000000E+00 -0.00000000000E+00 -0.46950424592E+03  0.46950424592E+03  0.00000000000E+00 0.  1.
          6    2    1    2  501    0  0.46766083148E+01 -0.83360564651E+02 -0.40285741276E+03  0.44641616307E+03  0.17326985088E+03 0.  0.
         24    2    3    3    0    0  0.22087231924E+02 -0.63116366458E+02 -0.11032609913E+03  0.15263117905E+03  0.81565355026E+02 0.  0.
         -6    2    1    2    0  502 -0.46766083148E+01  0.83360564651E+02  0.15264729425E+03  0.24238221026E+03  0.16875154815E+03 0.  0.
        -24    2    5    5    0    0 -0.19939385451E+02  0.11987550160E+03  0.13706455472E+03  0.19958963196E+03  0.79256634084E+02 0.  0.
          5    1    3    3  501    0 -0.17410623609E+02 -0.20244198193E+02 -0.29253131364E+03  0.29378498402E+03  0.47000000000E+01 0. -1.
        -11    1    4    4    0    0  0.44336777325E+02 -0.40615870923E+02 -0.10434172541E+03  0.12042671820E+03  0.00000000000E+00 0.  1.
         12    1    4    4    0    0 -0.22249545402E+02 -0.22500495536E+02 -0.59843737164E+01  0.32204460851E+02  0.00000000000E+00 0. -1.
         -5    1    5    5    0  502  0.15262777136E+02 -0.36514936953E+02  0.15582739529E+02  0.42792578303E+02  0.47000000000E+01 0.  1.
         11    1    6    6    0    0  0.27589441552E+02  0.22018068361E+02  0.44123557970E+02  0.56505406710E+02  0.00000000000E+00 0. -1.
        -12    1    6    6    0    0 -0.47528827002E+02  0.97857433243E+02  0.92940996752E+02  0.14308422525E+03  0.00000000000E+00 0.  1.
</event>
<event>
12    1  0.8053217E-002  0.1824991E+03  0.7818608E-02  0.1166582E+00
         21   -1    0    0  501  502  0.00000000000E+00  0.00000000000E+00  0.28405216293E+03  0.28405216293E+03  0.00000000000E+00 0.  1.
         21   -1    0    0  502  503 -0.00000000000E+00 -0.00000000000E+00 -0.10281444169E+04  0.10281444169E+04  0.00000000000E+00 0.  1.
         -6    2    1    2    0  503 -0.17045594217E+02  0.54354827334E+02 -0.99008909538E+03  0.10058954775E+04  0.16823880434E+03 0.  0.
        -24    2    3    3    0    0 -0.63068265711E+02  0.19698295368E+01 -0.44509339011E+03  0.45643694124E+03  0.79025749210E+02 0.  0.
          6    2    1    2  501    0  0.17045594217E+02 -0.54354827334E+02  0.24599684143E+03  0.30630110233E+03  0.17338085177E+03 0.  0.
         24    2    5    5    0    0  0.61425597666E+02 -0.81454901828E+02  0.16491314382E+03  0.20986120000E+03  0.80233242371E+02 0.  0.
          5    1    5    5  501    0 -0.44380003449E+02  0.27100074494E+02  0.81083697605E+02  0.96439902328E+02  0.47000000000E+01 0. -1.
        -13    1    6    6    0    0  0.67835249406E+01 -0.70343444390E+02  0.11524625112E+03  0.13518844172E+03  0.00000000000E+00 0.  1.
         14    1    6    6    0    0  0.54642072725E+02 -0.11111457438E+02  0.49666892702E+02  0.74672758278E+02  0.00000000000E+00 0. -1.
         -5    1    3    3    0  503  0.46022671494E+02  0.52384997797E+02 -0.54499570527E+03  0.54945853624E+03  0.47000000000E+01 0.  1.
         13    1    4    4    0    0 -0.42526875559E+01 -0.31403613170E+02 -0.18508365458E+03  0.18777707918E+03  0.00000000000E+00 0. -1.
        -14    1    4    4    0    0 -0.58815578155E+02  0.33373442707E+02 -0.26000973553E+03  0.26865986206E+03  0.00000000000E+00 0.  1.
</event>
<event>
12    1  0.8053217E-002  0.1917831E+03  0.7818608E-02  0.1156886E+00
         21   -1    0    0  501  502  0.00000000000E+00  0.00000000000E+00  0.15953634213E+03  0.15953634213E+03  0.00000000000E+00 0. -1.
         21   -1    0    0  502  503 -0.00000000000E+00 -0.00000000000E+00 -0.58176020102E+03  0.58176020102E+03  0.00000000000E+00 0.  1.
         -6    2    1    2    0  503 -0.76880850656E+02  0.34284419695E+02 -0.49917399305E+03  0.53474799625E+03  0.17232137861E+03 0.  0.
        -24    2    3    3    0    0 -0.66241105148E+02  0.11475536062E+02 -0.49861673316E+03  0.50913842977E+03  0.77998218782E+02 0.  0.
          6    2    1    2  501    0  0.76880850656E+02 -0.34284419695E+02  0.76950134160E+02  0.20654854690E+03  0.17220595938E+03 0.  0.
         24    2    5    5    0    0  0.27006540580E+02 -0.76974977319E+02  0.14041484324E+02  0.11550175267E+03  0.80554274993E+02 0.  0.
          5    1    5    5  501    0  0.49874310076E+02  0.42690557624E+02  0.62908649836E+02  0.91046794233E+02  0.47000000000E+01 0. -1.
        -11    1    6    6    0    0  0.46720825029E+02 -0.61057997947E+02 -0.13521210572E+02  0.78062396454E+02  0.00000000000E+00 0.  1.
         12    1    6    6    0    0 -0.19714284450E+02 -0.15916979371E+02  0.27562694896E+02  0.37439356213E+02  0.00000000000E+00 0. -1.
         -5    1    3    3    0  503 -0.10639745508E+02  0.22808883633E+02 -0.55725988770E+00  0.25609566487E+02  0.47000000000E+01 0.  1.
         13    1    4    4    0    0 -0.12957269208E+02 -0.31656460766E+02 -0.18176896892E+03  0.18495940202E+03  0.00000000000E+00 0. -1.
        -14    1    4    4    0    0 -0.53283835940E+02  0.43131996828E+02 -0.31684776424E+03  0.32417902774E+03  0.00000000000E+00 0.  1.
</event>
<event>
12    1  0.8053217E-002  0.1817191E+03  0.7818608E-02  0.1166687E+00
         21   -1    0    0  501  502  0.00000000000E+00  0.00000000000E+00  0.12831831753E+04  0.12831831753E+04  0.00000000000E+00 0.  1.
         21   -1    0    0  502  503 -0.00000000000E+00 -0.00000000000E+00 -0.58794812264E+02  0.58794812264E+02  0.00000000000E+00 0.  1.
         -6    2    1    2    0  503 -0.25237582994E+02  0.44592036412E+02  0.10501364783E+03  0.20794907530E+03  0.17201618058E+03 0.  0.
        -24    2    3    3    0    0  0.46038195237E+02 -0.50111586355E+01  0.61645045112E+02  0.11077068664E+03  0.79532422952E+02 0.  0.
          6    2    1    2  501    0  0.25237582994E+02 -0.44592036412E+02  0.11193747152E+04  0.11340289123E+04  0.17434573551E+03 0.  0.
         24    2    5    5    0    0  0.16154589013E+02 -0.70737588527E+02  0.40509023208E+03  0.41919291462E+03  0.79748519551E+02 0.  0.
          5    1    5    5  501    0  0.90829939814E+01  0.26145552115E+02  0.71428448312E+03  0.71483599763E+03  0.47000000000E+01 0. -1.
        -11    1    6    6    0    0  0.34077947616E+02 -0.76630732804E+02  0.36963826986E+03  0.37903301475E+03  0.00000000000E+00 0.  1.
         12    1    6    6    0    0 -0.17923358603E+02  0.58931442770E+01  0.35451962216E+02  0.40159899876E+02  0.00000000000E+00 0. -1.
         -5    1    3    3    0  503 -0.71275778231E+02  0.49603195048E+02  0.43368602716E+02  0.97178388662E+02  0.47000000000E+01 0.  1.
         13    1    4    4    0    0  0.65385204625E+02  0.10701845030E+02  0.51260447286E+02  0.83769850942E+02  0.00000000000E+00 0. -1.
        -14    1    4    4    0    0 -0.19347009388E+02 -0.15713003665E+02  0.10384597826E+02  0.27000835699E+02  0.00000000000E+00 0.  1.
</event>
<event>
12    1  0.8053217E-002  0.1831992E+03  0.7818608E-02  0.1166071E+00
         21   -1    0    0  503  502  0.00000000000E+00  0.00000000000E+00  0.46904494612E+03  0.46904494612E+03  0.00000000000E+00 0. -1.
         21   -1    0    0  501  503 -0.00000000000E+00 -0.00000000000E+00 -0.20091969691E+03  0.20091969691E+03  0.00000000000E+00 0. -1.
          6    2    1    2  501    0  0.54141716651E+01 -0.45065023778E+02 -0.13622802790E+03  0.22829811227E+03  0.17748741606E+03 0.  0.
         24    2    3    3    0    0 -0.64201689425E+02 -0.87966942307E+01 -0.88636791032E+02  0.13638089044E+03  0.80895165479E+02 0.  0.
         -6    2    1    2    0  502 -0.54141716651E+01  0.45065023778E+02  0.40435327710E+03  0.44166653075E+03  0.17177771119E+03 0.  0.
        -24    2    5    5    0    0 -0.65537571476E+02  0.29727791041E+02  0.31548364569E+03  0.33317710592E+03  0.79360811355E+02 0.  0.
          5    1    3    3  501    0  0.69615861090E+02 -0.36268329547E+02 -0.47591236864E+02  0.91917221834E+02  0.47000000000E+01 0. -1.
        -11    1    4    4    0    0 -0.36963955672E+02 -0.83545695670E+01 -0.99942944970E+02  0.10688650570E+03  0.00000000000E+00 0.  1.
         12    1    4    4    0    0 -0.27237733753E+02 -0.44212466373E+00  0.11306153938E+02  0.29494384738E+02  0.00000000000E+00 0. -1.
         -5    1    5    5    0  502  0.60123399811E+02  0.15337232737E+02  0.88869631416E+02  0.10848942483E+03  0.47000000000E+01 0.  1.
         13    1    6    6    0    0 -0.33781836041E+01 -0.17076390438E+02  0.14174976299E+03  0.14281460200E+03  0.00000000000E+00 0. -1.
        -14    1    6    6    0    0 -0.62159387872E+02  0.46804181479E+02  0.17373388269E+03  0.19036250392E+03  0.00000000000E+00 0.  1.
</event>
<event>
12    1  0.8053217E-002  0.1864100E+03  0.7818608E-02  0.1161898E+00
         21   -1    0    0  501  502  0.00000000000E+00  0.00000000000E+00  0.71192439448E+03  0.71192439448E+03  0.00000000000E+00 0. -1.
         21   -1    0    0  502  503 -0.00000000000E+00 -0.00000000000E+00 -0.73952705218E+02  0.73952705218E+02  0.00000000000E+00 0. -1.
         -6    2    1    2    0  503  0.21219277826E+02  0.63881118150E+02  0.89441703589E+02  0.20675716275E+03  0.17383224960E+03 0.  0.
        -24    2    3    3    0    0  0.18451182977E+02  0.11170057195E+03  0.69456899485E+02  0.15464339388E+03  0.79201353879E+02 0.  0.
          6    2    1    2  501    0 -0.21219277826E+02 -0.63881118150E+02  0.54852998567E+03  0.57911993694E+03  0.17310026338E+03 0.  0.
         24    2    5    5    0    0 -0.54391566614E+01  0.28137241810E+02  0.33102602995E+03  0.34237861916E+03  0.82605069761E+02 0.  0.
          5    1    5    5  501    0 -0.15780121165E+02 -0.92018359960E+02  0.21750395571E+03  0.23674131778E+03  0.47000000000E+01 0. -1.
        -11    1    6    6    0    0  0.23909863144E+02  0.45967761228E+02  0.16950991064E+03  0.17725215495E+03  0.00000000000E+00 0.  1.
         12    1    6    6    0    0 -0.29349019805E+02 -0.17830519418E+02  0.16151611931E+03  0.16512646421E+03  0.00000000000E+00 0. -1.
         -5    1    3    3    0  503  0.27680948494E+01 -0.47819453801E+02  0.19984804104E+02  0.52113768872E+02  0.47000000000E+01 0.  1.
         13    1    4    4    0    0 -0.22049728790E+02  0.75805297797E+02  0.20258990641E+02  0.81504971723E+02  0.00000000000E+00 0. -1.
        -14    1    4    4    0    0  0.40500911767E+02  0.35895274155E+02  0.49197908844E+02  0.73138422154E+02  0.00000000000E+00 0.  1.
</event>
<event>
12    1  0.8053217E-002  0.1957376E+03  0.7818608E-02  0.1153589E+00
         21   -1    0    0  501  502  0.00000000000E+00  0.00000000000E+00  0.53195844590E+03  0.53195844590E+03  0.00000000000E+00 0. -1.
         21   -1    0    0  502  503 -0.00000000000E+00 -0.00000000000E+00 -0.18329385082E+03  0.18329385082E+03  0.00000000000E+00 0. -1.
         -6    2    1    2    0  503  0.67222042616E+02 -0.57221271002E+02 -0.10457514990E+03  0.22192157390E+03  0.17470016061E+03 0.  0.
        -24    2    3    3    0    0  0.24507769804E+02 -0.55934614908E+02 -0.13625189985E+03  0.16852053390E+03  0.78136279720E+02 0.  0.
          6    2    1    2  501    0 -0.67222042616E+02  0.57221271002E+02  0.45323974498E+03  0.49333072282E+03  0.17365442343E+03 0.  0.
         24    2    5    5    0    0  0.12157281170E+02  0.76074297865E+02  0.23760818172E+03  0.26273242547E+03  0.81459076173E+02 0.  0.
          5    1    5    5  501    0 -0.79379323785E+02 -0.18853026863E+02  0.21563156326E+03  0.23059829735E+03  0.47000000000E+01 0. -1.
        -11    1    6    6    0    0  0.40990986191E+02  0.14528998519E+02  0.79085591008E+02  0.90254548096E+02  0.00000000000E+00 0.  1.
         12    1    6    6    0    0 -0.28833705022E+02  0.61545299346E+02  0.15852259071E+03  0.17247787737E+03  0.00000000000E+00 0. -1.
         -5    1    3    3    0  503  0.42714272812E+02 -0.12866560941E+01  0.31676749950E+02  0.53401040001E+02  0.47000000000E+01 0.  1.
         13    1    4    4    0    0  0.49565901771E+02 -0.19738346111E+02 -0.58532303728E+02  0.79198557470E+02  0.00000000000E+00 0. -1.
        -14    1    4    4    0    0 -0.25058131968E+02 -0.36196268797E+02 -0.77719596119E+02  0.89321976430E+02  0.00000000000E+00 0.  1.
</event>
<event>
12    1  0.8053217E-002  0.1737114E+03  0.7818608E-02  0.1175354E+00
         21   -1    0    0  501  502  0.00000000000E+00  0.00000000000E+00  0.15567077021E+03  0.15567077021E+03  0.00000000000E+00 0.  1.
         21   -1    0    0  502  503 -0.00000000000E+00 -0.00000000000E+00 -0.18865175418E+03  0.18865175418E+03  0.00000000000E+00 0.  1.
         -6    2    1    2    0  503 -0.18157366995E+02  0.13756141262E+02 -0.25550155904E+02  0.17558040060E+03  0.17221133879E+03 0.  0.
        -24    2    3    3    0    0 -0.12340803681E+02 -0.57685328969E+02  0.45954141948E+00  0.99184651810E+02  0.79733878387E+02 0.  0.
          6    2    1    2  501    0  0.18157366995E+02 -0.13756141262E+02 -0.74308280713E+01  0.16874212380E+03  0.16703222964E+03 0.  0.
         24    2    5    5    0    0 -0.31678738213E+02 -0.35599648740E+02 -0.44206640388E+02  0.10289892694E+03  0.79768945495E+02 0.  0.
          5    1    5    5  501    0  0.49836105207E+02  0.21843507477E+02  0.36775812316E+02  0.65843196859E+02  0.47000000000E+01 0. -1.
        -13    1    6    6    0    0  0.84003842965E+01  0.17049765239E+02 -0.29536357663E+02  0.35123459041E+02  0.00000000000E+00 0.  1.
         14    1    6    6    0    0 -0.40079122509E+02 -0.52649413978E+02 -0.14670282725E+02  0.67775467896E+02  0.00000000000E+00 0. -1.
         -5    1    3    3    0  503 -0.58165633140E+01  0.71441470232E+02 -0.26009697323E+02  0.76395748786E+02  0.47000000000E+01 0.  1.
         13    1    4    4    0    0 -0.69349274751E+01 -0.25926758797E+02 -0.39563099150E+02  0.47807205055E+02  0.00000000000E+00 0. -1.
        -14    1    4    4    0    0 -0.54058762056E+01 -0.31758570172E+02  0.40022640570E+02  0.51377446755E+02  0.00000000000E+00 0.  1.
</event>
<event>
12    1  0.8053217E-002  0.1735634E+03  0.7818608E-02  0.1175074E+00
         21   -1    0    0  503  502  0.00000000000E+00  0.00000000000E+00  0.23262405566E+03  0.23262405566E+03  0.00000000000E+00 0.  1.
         21   -1    0    0  501  503 -0.00000000000E+00 -0.00000000000E+00 -0.13444128232E+03  0.13444128232E+03  0.00000000000E+00 0.  1.
          6    2    1    2  501    0  0.13457454558E+02 -0.44313015022E+00  0.92977020267E+02  0.19689835893E+03  0.17304027856E+03 0.  0.
         24    2    3    3    0    0  0.19818229242E+02  0.19370906842E+02 -0.15558988749E+02  0.86285471934E+02  0.80219114267E+02 0.  0.
         -6    2    1    2    0  502 -0.13457454558E+02  0.44313015022E+00  0.52057530714E+01  0.17016697906E+03  0.16955353564E+03 0.  0.
        -24    2    5    5    0    0 -0.88250447873E+01 -0.64579639194E+02  0.11723562271E+02  0.10448599558E+03  0.80817511385E+02 0.  0.
          5    1    3    3  501    0 -0.63607746846E+01 -0.19814036992E+02  0.10853600902E+03  0.11061288700E+03  0.47000000000E+01 0. -1.
        -13    1    4    4    0    0  0.81759384024E+01 -0.18325251057E+02  0.23408916464E+02  0.30832420682E+02  0.00000000000E+00 0.  1.
         14    1    4    4    0    0  0.11642290840E+02  0.37696157900E+02 -0.38967905213E+02  0.55453051252E+02  0.00000000000E+00 0. -1.
         -5    1    5    5    0  502 -0.46324097703E+01  0.65022769345E+02 -0.65178092000E+01  0.65680983475E+02  0.47000000000E+01 0.  1.
         13    1    6    6    0    0 -0.12025639436E+02 -0.72283808909E+02  0.33939334480E+02  0.80755454671E+02  0.00000000000E+00 0. -1.
        -14    1    6    6    0    0  0.32005946489E+01  0.77041697146E+01 -0.22215772209E+02  0.23730540911E+02  0.00000000000E+00 0.  1.
</event>
<event>
12    1  0.8053217E-002  0.1864719E+03  0.7818608E-02  0.1161922E+00
         21   -1    0    0  503  502  0.00000000000E+00  0.00000000000E+00  0.66460667750E+02  0.66460667750E+02  0.00000000000E+00 0. -1.
         21   -1    0    0  501  503 -0.00000000000E+00 -0.00000000000E+00 -0.56226174711E+03  0.56226174711E+03  0.00000000000E+00 0.  1.
          6    2    1    2  501    0  0.63316918654E+02  0.29455712247E+02 -0.33314077469E+03  0.38127518472E+03  0.17178858971E+03 0.  0.
         24    2    3    3    0    0  0.72033419452E+02  0.73867348619E+02 -0.29336567288E+03  0.32083910646E+03  0.78924745825E+02 0.  0.
         -6    2    1    2    0  502 -0.63316918654E+02 -0.29455712247E+02 -0.16266030468E+03  0.24744723014E+03  0.17290195434E+03 0.  0.
        -24    2    5    5    0    0  0.18434775535E+02 -0.52741196849E+02 -0.62118015222E+02  0.11570355756E+03  0.80044928776E+02 0.  0.
          5    1    3    3  501    0 -0.87165007984E+01 -0.44411636372E+02 -0.39775101808E+02  0.60436078259E+02  0.47000000000E+01 0. -1.
        -13    1    4    4    0    0  0.42747506612E+02  0.25179334118E+02 -0.48181499928E+02  0.69157827637E+02  0.00000000000E+00 0.  1.
         14    1    4    4    0    0  0.29285912840E+02  0.48688014501E+02 -0.24518417295E+03  0.25168127883E+03  0.00000000000E+00 0. -1.
         -5    1    5    5    0  502 -0.81751694189E+02  0.23285484602E+02 -0.10054228946E+03  0.13174367258E+03  0.47000000000E+01 0.  1.
         11    1    6    6    0    0  0.38245555097E+02 -0.57467289608E+02 -0.65379578330E+02  0.95077342844E+02  0.00000000000E+00 0. -1.
        -12    1    6    6    0    0 -0.19810779562E+02  0.47260927592E+01  0.32615631076E+01  0.20626214716E+02  0.00000000000E+00 0.  1.
</event>
<event>
12    1  0.8053217E-002  0.1969314E+03  0.7818608E-02  0.1152700E+00
         21   -1    0    0  503  502  0.00000000000E+00  0.00000000000E+00  0.31478905417E+03  0.31478905417E+03  0.00000000000E+00 0. -1.
         21   -1    0    0  501  503 -0.00000000000E+00 -0.00000000000E+00 -0.13062499623E+03  0.13062499623E+03  0.00000000000E+00 0. -1.
          6    2    1    2  501    0  0.18245816693E+02  0.91058126373E+02  0.35176569319E+02  0.19847426627E+03  0.17184339131E+03 0.  0.
         24    2    3    3    0    0  0.30484661576E+02  0.86193452526E+01  0.66320577505E+02  0.10937891733E+03  0.81004449585E+02 0.  0.
         -6    2    1    2    0  502 -0.18245816693E+02 -0.91058126373E+02  0.14898748862E+03  0.24693978412E+03  0.17365912879E+03 0.  0.
        -24    2    5    5    0    0  0.18119108739E+02 -0.26905520591E+02  0.49397997643E+01  0.85045400973E+02  0.78460878565E+02 0.  0.
          5    1    3    3  501    0 -0.12238844883E+02  0.82438781121E+02 -0.31144008186E+02  0.89095348939E+02  0.47000000000E+01 0. -1.
        -11    1    4    4    0    0 -0.68680576255E+01 -0.30845171698E+01  0.69685604466E+02  0.70091140179E+02  0.00000000000E+00 0.  1.
         12    1    4    4    0    0  0.37352719201E+02  0.11703862422E+02 -0.33650269611E+01  0.39287777155E+02  0.00000000000E+00 0. -1.
         -5    1    5    5    0  502 -0.36364925432E+02 -0.64152605782E+02  0.14404768886E+03  0.16189438315E+03  0.47000000000E+01 0.  1.
         11    1    6    6    0    0 -0.31046709701E+02 -0.13212335852E+02  0.42133032219E+01  0.34003175234E+02  0.00000000000E+00 0. -1.
        -12    1    6    6    0    0  0.49165818440E+02 -0.13693184739E+02  0.72649654235E+00  0.51042225739E+02  0.00000000000E+00 0.  1.
</event>
<event>
12    1  0.8053217E-002  0.1879423E+03  0.7818608E-02  0.1160973E+00
         21   -1    0    0  503  502  0.00000000000E+00  0.00000000000E+00  0.10586427870E+03  0.10586427870E+03  0.00000000000E+00 0. -1.
         21   -1    0    0  501  503 -0.00000000000E+00 -0.00000000000E+00 -0.49151696610E+03  0.49151696610E+03  0.00000000000E+00 0. -1.
          6    2    1    2  501    0  0.12753405687E+02 -0.72481980410E+02 -0.36568311224E+03  0.41115258394E+03  0.17293357645E+03 0.  0.
         24    2    3    3    0    0  0.51512076582E+02  0.28828862986E+01 -0.25757013979E+03  0.27370222011E+03  0.76868220476E+02 0.  0.
         -6    2    1    2    0  502 -0.12753405687E+02  0.72481980410E+02 -0.19969575155E+02  0.18622866086E+03  0.16990009815E+03 0.  0.
        -24    2    5    5    0    0 -0.29571178796E+02  0.77293804035E+02 -0.68866394270E+02  0.13408482077E+03  0.79921036934E+02 0.  0.
          5    1    3    3  501    0 -0.38758670895E+02 -0.75364866709E+02 -0.10811297246E+03  0.13745036383E+03  0.47000000000E+01 0. -1.
        -11    1    4    4    0    0  0.70904075005E+00  0.30964369128E+02 -0.12849575356E+03  0.13217584340E+03  0.00000000000E+00 0.  1.
         12    1    4    4    0    0  0.50803035832E+02 -0.28081482830E+02 -0.12907438622E+03  0.14152637672E+03  0.00000000000E+00 0. -1.
         -5    1    5    5    0  502  0.16817773109E+02 -0.48118236248E+01  0.48896819115E+02  0.52143840082E+02  0.47000000000E+01 0.  1.
         11    1    6    6    0    0 -0.45944739111E+02  0.82749934546E+02 -0.68475065244E+02  0.11682168155E+03  0.00000000000E+00 0. -1.
        -12    1    6    6    0    0  0.16373560315E+02 -0.54561305111E+01 -0.39132902597E+00  0.17263139226E+02  0.00000000000E+00 0.  1.
</event>
<event>
12    1  0.8053217E-002  0.2115449E+03  0.7818608E-02  0.1140382E+00
         21   -1    0    0  501  502  0.00000000000E+00  0.00000000000E+00  0.17257966231E+03  0.17257966231E+03  0.00000000000E+00 0. -1.
         21   -1    0    0  502  503 -0.00000000000E+00 -0.00000000000E+00 -0.29252387984E+03  0.29252387984E+03  0.00000000000E+00 0. -1.
         -6    2    1    2    0  503  0.12311412609E+03  0.22850780957E+01  0.18657271324E+02  0.21219719625E+03  0.17180584013E+03 0.  0.
        -24    2    3    3    0    0  0.13142571188E+03 -0.32267015562E+02 -0.20949719562E+02  0.15877685030E+03  0.80357447731E+02 0.  0.
          6    2    1    2  501    0 -0.12311412609E+03 -0.22850780957E+01 -0.13860148885E+03  0.25290634589E+03  0.17201435247E+03 0.  0.
         24    2    5    5    0    0 -0.15546387788E+03 -0.57936189146E+01 -0.96636558284E+02  0.19959629339E+03  0.79356616560E+02 0.  0.
          5    1    5    5  501    0  0.32349751795E+02  0.35085408189E+01 -0.41964930569E+02  0.53310052500E+02  0.47000000000E+01 0. -1.
        -13    1    6    6    0    0 -0.50507194396E+02 -0.34176008033E+02 -0.12828103545E+02  0.62318026697E+02  0.00000000000E+00 0.  1.
         14    1    6    6    0    0 -0.10495668348E+03  0.28382389119E+02 -0.83808454739E+02  0.13727826669E+03  0.00000000000E+00 0. -1.
         -5    1    3    3    0  503 -0.83115857949E+01  0.34552093658E+02  0.39606990885E+02  0.53420345951E+02  0.47000000000E+01 0.  1.
         11    1    4    4    0    0  0.22693782851E+02 -0.35600398609E+02 -0.26510489805E+02  0.49851802684E+02  0.00000000000E+00 0. -1.
        -12    1    4    4    0    0  0.10873192903E+03  0.33333830467E+01  0.55607702433E+01  0.10892504762E+03  0.00000000000E+00 0.  1.
</event>
<event>
12    1  0.8053217E-002  0.3230973E+03  0.7818608E-02  0.1074509E+00
         21   -1    0    0  501  502  0.00000000000E+00  0.00000000000E+00  0.38508852477E+03  0.38508852477E+03  0.00000000000E+00 0. -1.
         21   -1    0    0  502  503 -0.00000000000E+00 -0.00000000000E+00 -0.29737551129E+03  0.29737551129E+03  0.00000000000E+00 0.  1.
         -6    2    1    2    0  503  0.20261726816E+02  0.27137566286E+03  0.14930976313E+03  0.35592873674E+03  0.17417397136E+03 0.  0.
        -24    2    3    3    0    0 -0.48464457396E+02  0.17363205173E+03  0.59162143286E+02  0.20617632347E+03  0.80694635165E+02 0.  0.
          6    2    1    2  501    0 -0.20261726816E+02 -0.27137566286E+03 -0.61596749650E+02  0.32653529932E+03  0.16963447223E+03 0.  0.
         24    2    5    5    0    0  0.15251551909E+02 -0.11929285678E+03 -0.83725920188E+02  0.16873110717E+03  0.83646645491E+02 0.  0.
          5    1    5    5  501    0 -0.35513278725E+02 -0.15208280608E+03  0.22129170538E+02  0.15780419215E+03  0.47000000000E+01 0. -1.
        -11    1    6    6    0    0 -0.21250341645E+02 -0.97942890080E+02 -0.40020223008E+02  0.10791665760E+03  0.00000000000E+00 0.  1.
         12    1    6    6    0    0  0.36501893554E+02 -0.21349966698E+02 -0.43705697180E+02  0.60814449574E+02  0.00000000000E+00 0. -1.
         -5    1    3    3    0  503  0.68726184212E+02  0.97743611135E+02  0.90147619849E+02  0.14975241326E+03  0.47000000000E+01 0.  1.
         11    1    4    4    0    0 -0.54513542033E+02  0.15162415330E+03  0.75668131962E+02  0.17800920292E+03  0.00000000000E+00 0. -1.
        -12    1    4    4    0    0  0.60490846369E+01  0.22007898428E+02 -0.16505988676E+02  0.28167120554E+02  0.00000000000E+00 0.  1.
</event>
<event>
12    1  0.8053217E-002  0.2271830E+03  0.7818608E-02  0.1128812E+00
         21   -1    0    0  503  502  0.00000000000E+00  0.00000000000E+00  0.35142490972E+03  0.35142490972E+03  0.00000000000E+00 0. -1.
         21   -1    0    0  501  503 -0.00000000000E+00 -0.00000000000E+00 -0.16377499479E+03  0.16377499479E+03  0.00000000000E+00 0. -1.
          6    2    1    2  501    0  0.10875023564E+03  0.10060427755E+03  0.17793339898E+03  0.28780925892E+03  0.17095625358E+03 0.  0.
         24    2    3    3    0    0  0.81406554344E+02  0.56661345373E+02  0.29558004514E+02  0.13059600924E+03  0.79649901746E+02 0.  0.
         -6    2    1    2    0  502 -0.10875023564E+03 -0.10060427755E+03  0.97165159458E+01  0.22739064559E+03  0.17223315768E+03 0.  0.
        -24    2    5    5    0    0 -0.25486188492E+02  0.69703376242E+01 -0.21914061113E+02  0.87648802241E+02  0.80647101928E+02 0.  0.
          5    1    3    3  501    0  0.27343681295E+02  0.43942932173E+02  0.14837539446E+03  0.15721324969E+03  0.47000000000E+01 0. -1.
        -13    1    4    4    0    0 -0.12626785137E+02  0.37498790841E+00 -0.77588067580E+01  0.14824823815E+02  0.00000000000E+00 0.  1.
         14    1    4    4    0    0  0.94033339481E+02  0.56286357465E+02  0.37316811272E+02  0.11577118542E+03  0.00000000000E+00 0. -1.
         -5    1    5    5    0  502 -0.83264047147E+02 -0.10757461517E+03  0.31630577059E+02  0.13974184335E+03  0.47000000000E+01 0.  1.
         13    1    6    6    0    0  0.77754812717E+01 -0.17057361386E+02 -0.38945314723E+02  0.43222091866E+02  0.00000000000E+00 0. -1.
        -14    1    6    6    0    0 -0.33261669763E+02  0.24027699010E+02  0.17031253609E+02  0.44426710374E+02  0.00000000000E+00 0.  1.
</event>
<event>
12    1  0.8053217E-002  0.2641185E+03  0.7818608E-02  0.1104740E+00
         21   -1    0    0  501  502  0.00000000000E+00  0.00000000000E+00  0.40496754078E+03  0.40496754078E+03  0.00000000000E+00 0. -1.
         21   -1    0    0  502  503 -0.00000000000E+00 -0.00000000000E+00 -0.36779662658E+03  0.36779662658E+03  0.00000000000E+00 0. -1.
         -6    2    1    2    0  503 -0.19974243769E+03 -0.17256807655E+02 -0.26328491548E+03  0.37293096920E+03  0.17194104293E+03 0.  0.
        -24    2    3    3    0    0 -0.62143946804E+02 -0.84491774010E+01 -0.19213558949E+03  0.21770456798E+03  0.80906955507E+02 0.  0.
          6    2    1    2  501    0  0.19974243769E+03  0.17256807655E+02  0.30045582967E+03  0.39983319817E+03  0.17145857210E+03 0.  0.
         24    2    5    5    0    0  0.51489314348E+02 -0.11184045633E+02  0.53148490039E+02  0.11005590272E+03  0.80692672295E+02 0.  0.
          5    1    5    5  501    0  0.14825312334E+03  0.28440853288E+02  0.24730733963E+03  0.28977729544E+03  0.47000000000E+01 0. -1.
        -13    1    6    6    0    0  0.36262720371E+02 -0.45863041002E+02  0.33596796914E+02  0.67432545418E+02  0.00000000000E+00 0.  1.
         14    1    6    6    0    0  0.15226593977E+02  0.34678995369E+02  0.19551693125E+02  0.42623357306E+02  0.00000000000E+00 0. -1.
         -5    1    3    3    0  503 -0.13759849089E+03 -0.88076302543E+01 -0.71149325988E+02  0.15522640121E+03  0.47000000000E+01 0.  1.
         11    1    4    4    0    0 -0.30380529017E+02 -0.43156971084E+02 -0.77242972744E+02  0.93552004441E+02  0.00000000000E+00 0. -1.
        -12    1    4    4    0    0 -0.31763417787E+02  0.34707793683E+02 -0.11489261674E+03  0.12415256354E+03  0.00000000000E+00 0.  1.
</event>
<event>
12    1  0.8053217E-002  0.2956508E+03  0.7818608E-02  0.1087585E+00
         21   -1    0    0  503  502  0.00000000000E+00  0.00000000000E+00  0.54192476072E+02  0.54192476072E+02  0.00000000000E+00 0. -1.
         21   -1    0    0  501  503 -0.00000000000E+00 -0.00000000000E+00 -0.16152865163E+04  0.16152865163E+04  0.00000000000E+00 0. -1.
          6    2    1    2  501    0 -0.22130107781E+03 -0.92610635392E+02 -0.84038319144E+03  0.89048377361E+03  0.17078215883E+03 0.  0.
         24    2    3    3    0    0 -0.92799693739E+02 -0.17930417075E+02 -0.21979155357E+03  0.25232563356E+03  0.80166173138E+02 0.  0.
         -6    2    1    2    0  502  0.22130107781E+03  0.92610635392E+02 -0.72071084876E+03  0.77899521874E+03  0.17279619923E+03 0.  0.
        -24    2    5    5    0    0  0.17993492906E+03  0.40248670660E+01 -0.50515185781E+03  0.54225408334E+03  0.80425824183E+02 0.  0.
          5    1    3    3  501    0 -0.12850138407E+03 -0.74680218317E+02 -0.62059163787E+03  0.63815814005E+03  0.47000000000E+01 0. -1.
        -11    1    4    4    0    0 -0.67287727828E+02 -0.48958529661E+02 -0.13674731284E+03  0.16007624281E+03  0.00000000000E+00 0.  1.
         12    1    4    4    0    0 -0.25511965912E+02  0.31028112586E+02 -0.83044240731E+02  0.92249390751E+02  0.00000000000E+00 0. -1.
         -5    1    5    5    0  502  0.41366148753E+02  0.88585768326E+02 -0.21555899095E+03  0.23674113540E+03  0.47000000000E+01 0.  1.
         13    1    6    6    0    0  0.41453342564E+02 -0.73029423954E+01 -0.45154599070E+02  0.61730465692E+02  0.00000000000E+00 0. -1.
        -14    1    6    6    0    0  0.13848158649E+03  0.11327809461E+02 -0.45999725874E+03  0.48052361765E+03  0.00000000000E+00 0.  1.
</event>
<event>
12    1  0.8053217E-002  0.1991128E+03  0.7818608E-02  0.1152353E+00
         21   -1    0    0  501  502  0.00000000000E+00  0.00000000000E+00  0.87277750930E+02  0.87277750930E+02  0.00000000000E+00 0.  1.
         21   -1    0    0  502  503 -0.00000000000E+00 -0.00000000000E+00 -0.43516505630E+03  0.43516505630E+03  0.00000000000E+00 0.  1.
         -6    2    1    2    0  503 -0.75778916734E+02  0.29224545767E+02 -0.17668532106E+03  0.25984801264E+03  0.17235651626E+03 0.  0.
        -24    2    3    3    0    0 -0.11901724082E+03  0.33150436673E+02 -0.14824042462E+03  0.20773114951E+03  0.76895721100E+02 0.  0.
          6    2    1    2  501    0  0.75778916734E+02 -0.29224545767E+02 -0.17120198431E+03  0.26259479459E+03  0.18179490757E+03 0.  0.
         24    2    5    5    0    0  0.10450494178E+03  0.27983051741E+02 -0.11583750263E+03  0.17782917916E+03  0.80626024970E+02 0.  0.
          5    1    5    5  501    0 -0.28726025050E+02 -0.57207597508E+02 -0.55364481678E+02  0.84765615430E+02  0.47000000000E+01 0. -1.
        -11    1    6    6    0    0  0.49249226662E+02  0.98164352588E+01 -0.23130358556E+01  0.50271252847E+02  0.00000000000E+00 0.  1.
         12    1    6    6    0    0  0.55255715121E+02  0.18166616482E+02 -0.11352446678E+03  0.12755792631E+03  0.00000000000E+00 0. -1.
         -5    1    3    3    0  503  0.43238324082E+02 -0.39258909054E+01 -0.28444896438E+02  0.52116863127E+02  0.47000000000E+01 0.  1.
         13    1    4    4    0    0 -0.90559510975E+01 -0.10487942075E+02  0.44674035876E+01  0.14559013499E+02  0.00000000000E+00 0. -1.
        -14    1    4    4    0    0 -0.10996128972E+03  0.43638378748E+02 -0.15270782821E+03  0.19317213601E+03  0.00000000000E+00 0.  1.
</event>
<event>
12    1  0.8053217E-002  0.2190452E+03  0.7818608E-02  0.1134901E+00
         21   -1    0    0  503  502  0.00000000000E+00  0.00000000000E+00  0.86101334776E+03  0.86101334776E+03  0.00000000000E+00 0. -1.
         21   -1    0    0  501  503 -0.00000000000E+00 -0.00000000000E+00 -0.56646123540E+02  0.56646123540E+02  0.00000000000E+00 0.  1.
          6    2    1    2  501    0  0.84085827116E+01 -0.13476204371E+03  0.33040129422E+03  0.39552489000E+03  0.17042127419E+03 0.  0.
         24    2    3    3    0    0  0.60329501509E+01 -0.14209042799E+03  0.16711494358E+03  0.23198935517E+03  0.75269982928E+02 0.  0.
         -6    2    1    2    0  502 -0.84085827116E+01  0.13476204371E+03  0.47396593000E+03  0.52213458131E+03  0.17247986985E+03 0.  0.
        -24    2    5    5    0    0  0.52259210962E+02  0.12435203739E+03  0.35806425028E+03  0.39081726035E+03  0.79584353509E+02 0.  0.
          5    1    3    3  501    0  0.23756325607E+01  0.73283842796E+01  0.16328635064E+03  0.16353553483E+03  0.47000000000E+01 0. -1.
        -11    1    4    4    0    0  0.26026980679E+02 -0.12756270282E+03  0.11258170881E+03  0.17211707652E+03  0.00000000000E+00 0.  1.
         12    1    4    4    0    0 -0.19994030528E+02 -0.14527725174E+02  0.54533234769E+02  0.59872278643E+02  0.00000000000E+00 0. -1.
         -5    1    5    5    0  502 -0.60667793674E+02  0.10410006318E+02  0.11590167973E+03  0.13131732096E+03  0.47000000000E+01 0.  1.
         11    1    6    6    0    0  0.59717673090E+02  0.79670686335E+02  0.16676014825E+03  0.19422297955E+03  0.00000000000E+00 0. -1.
        -12    1    6    6    0    0 -0.74584621272E+01  0.44681351057E+02  0.19130410203E+03  0.19659428080E+03  0.00000000000E+00 0.  1.
</event>
<event>
12    1  0.8053217E-002  0.2077286E+03  0.7818608E-02  0.1143470E+00
         21   -1    0    0  503  502  0.00000000000E+00  0.00000000000E+00  0.15148087552E+03  0.15148087552E+03  0.00000000000E+00 0.  1.
         21   -1    0    0  501  503 -0.00000000000E+00 -0.00000000000E+00 -0.32735459869E+03  0.32735459869E+03  0.00000000000E+00 0.  1.
          6    2    1    2  501    0  0.76967476864E+02  0.85318665592E+02 -0.17475095481E+03  0.27110383844E+03  0.17249964585E+03 0.  0.
         24    2    3    3    0    0  0.59427517808E+02  0.11387462792E+03 -0.18160527221E+03  0.23657609865E+03  0.80552559255E+02 0.  0.
         -6    2    1    2    0  502 -0.76967476864E+02 -0.85318665592E+02 -0.11227683538E+01  0.20773163577E+03  0.17305462923E+03 0.  0.
        -24    2    5    5    0    0 -0.21641680412E+02  0.17433283100E+02  0.19713665489E+02  0.89092882875E+02  0.82320298112E+02 0.  0.
          5    1    3    3  501    0  0.17539959056E+02 -0.28555962325E+02  0.68543174017E+01  0.34527739790E+02  0.47000000000E+01 0. -1.
        -11    1    4    4    0    0  0.73691970479E+02  0.58669274660E+02 -0.10463855565E+03  0.14078997702E+03  0.00000000000E+00 0.  1.
         12    1    4    4    0    0 -0.14264452670E+02  0.55205353257E+02 -0.76966716561E+02  0.95786121627E+02  0.00000000000E+00 0. -1.
         -5    1    5    5    0  502 -0.55325796452E+02 -0.10275194869E+03 -0.20836433843E+02  0.11863875289E+03  0.47000000000E+01 0.  1.
         11    1    6    6    0    0 -0.20452127048E+02 -0.21539108281E+02 -0.18095957833E+02  0.34780545945E+02  0.00000000000E+00 0. -1.
        -12    1    6    6    0    0 -0.11895533647E+01  0.38972391381E+02  0.37809623322E+02  0.54312336931E+02  0.00000000000E+00 0.  1.
</event>
<event>
12    1  0.8053217E-002  0.1796554E+03  0.7818608E-02  0.1168387E+00
         21   -1    0    0  503  502  0.00000000000E+00  0.00000000000E+00  0.29578352856E+03  0.29578352856E+03  0.00000000000E+00 0.  1.
         21   -1    0    0  501  503 -0.00000000000E+00 -0.00000000000E+00 -0.21015191891E+03  0.21015191891E+03  0.00000000000E+00 0.  1.
          6    2    1    2  501    0  0.49475581867E+02 -0.30708905070E+01 -0.13306020686E+03  0.22356452157E+03  0.17268124706E+03 0.  0.
         24    2    3    3    0    0  0.47121038705E+02  0.55921998367E+02 -0.12273652465E+03  0.16344486400E+03  0.79387070088E+02 0.  0.
         -6    2    1    2    0  502 -0.49475581867E+02  0.30708905070E+01  0.21869181650E+03  0.28237092590E+03  0.17160992285E+03 0.  0.
        -24    2    5    5    0    0 -0.32610174006E+02  0.30092491583E+02  0.23069560831E+03  0.24800830195E+03  0.79490078909E+02 0.  0.
          5    1    3    3  501    0  0.23545431621E+01 -0.58992888874E+02 -0.10323682210E+02  0.60119657564E+02  0.47000000000E+01 0. -1.
        -13    1    4    4    0    0 -0.79936119191E+01  0.38745258067E+02 -0.17174044273E+02  0.43128188588E+02  0.00000000000E+00 0.  1.
         14    1    4    4    0    0  0.55114650624E+02  0.17176740300E+02 -0.10556248037E+03  0.12031667542E+03  0.00000000000E+00 0. -1.
         -5    1    5    5    0  502 -0.16865407861E+02 -0.27021601076E+02 -0.12003791810E+02  0.34362623952E+02  0.47000000000E+01 0.  1.
         13    1    6    6    0    0  0.15866385015E+02 -0.98348642957E+01  0.16905237128E+02  0.25184395397E+02  0.00000000000E+00 0. -1.
        -14    1    6    6    0    0 -0.48476559022E+02  0.39927355879E+02  0.21379037118E+03  0.22282390656E+03  0.00000000000E+00 0.  1.
</event>
<event>
12    1  0.8053217E-002  0.1960085E+03  0.7818608E-02  0.1153441E+00
         21   -1    0    0  503  502  0.00000000000E+00  0.00000000000E+00  0.30088977793E+02  0.30088977793E+02  0.00000000000E+00 0.  1.
         21   -1    0    0  501  503 -0.00000000000E+00 -0.00000000000E+00 -0.18840758123E+04  0.18840758123E+04  0.00000000000E+00 0.  1.
          6    2    1    2  501    0 -0.20489814276E+02  0.91777670434E+02 -0.14763343556E+04  0.14892892440E+04  0.17197775906E+03 0.  0.
         24    2    3    3    0    0  0.40708389588E+02  0.79020765455E+02 -0.12061375095E+04  0.12119151565E+04  0.77905073289E+02 0.  0.
         -6    2    1    2    0  502  0.20489814276E+02 -0.91777670434E+02 -0.37765247898E+03  0.42487554612E+03  0.17045486657E+03 0.  0.
        -24    2    5    5    0    0  0.32005300546E+02 -0.66151792968E+01 -0.28844450996E+03  0.30091826293E+03  0.79268315096E+02 0.  0.
          5    1    3    3  501    0 -0.61198203864E+02  0.12756904979E+02 -0.27019684610E+03  0.27737408752E+03  0.47000000000E+01 0. -1.
        -11    1    4    4    0    0  0.41079408479E+02  0.22076921276E+02 -0.84774947164E+03  0.84903125674E+03  0.00000000000E+00 0.  1.
         12    1    4    4    0    0 -0.37101889170E+00  0.56943844179E+02 -0.35838803783E+03  0.36288389976E+03  0.00000000000E+00 0. -1.
         -5    1    5    5    0  502 -0.11515486269E+02 -0.85162491137E+02 -0.89207969021E+02  0.12395728320E+03  0.47000000000E+01 0.  1.
         11    1    6    6    0    0 -0.23260611620E+02 -0.86321575651E+01 -0.46191707493E+02  0.52433234101E+02  0.00000000000E+00 0. -1.
        -12    1    6    6    0    0  0.55265912165E+02  0.20169782683E+01 -0.24225280246E+03  0.24848502882E+03  0.00000000000E+00 0.  1.
</event>
<event>
12    1  0.8053217E-002  0.2305910E+03  0.7818608E-02  0.1126413E+00
         21   -1    0    0  501  502  0.00000000000E+00  0.00000000000E+00  0.64552952759E+02  0.64552952759E+02  0.00000000000E+00 0.  1.
         21   -1    0    0  502  503 -0.00000000000E+00 -0.00000000000E+00 -0.92653257804E+03  0.92653257804E+03  0.00000000000E+00 0. -1.
         -6    2    1    2    0  503  0.13384195343E+03  0.74192539008E+02 -0.26197600527E+03  0.34829743091E+03  0.17105984829E+03 0.  0.
        -24    2    3    3    0    0  0.49835367522E+02  0.29568695836E+02 -0.22581468903E+03  0.24642434984E+03  0.79842437222E+02 0.  0.
          6    2    1    2  501    0 -0.13384195343E+03 -0.74192539008E+02 -0.60000362001E+03  0.64278809989E+03  0.17249346654E+03 0.  0.
         24    2    5    5    0    0 -0.18839323604E+02 -0.43311994985E+02 -0.39414413248E+03  0.40492378675E+03  0.79892595893E+02 0.  0.
          5    1    5    5  501    0 -0.11500262982E+03 -0.30880544023E+02 -0.20585948753E+03  0.23786431315E+03  0.47000000000E+01 0. -1.
        -13    1    6    6    0    0  0.17454876901E+02 -0.19218250223E+02 -0.37388828691E+02  0.45518549847E+02  0.00000000000E+00 0.  1.
         14    1    6    6    0    0 -0.36294200505E+02 -0.24093744761E+02 -0.35675530379E+03  0.35940523690E+03  0.00000000000E+00 0. -1.
         -5    1    3    3    0  503  0.84006585903E+02  0.44623843172E+02 -0.36161316247E+02  0.10187308107E+03  0.47000000000E+01 0.  1.
         11    1    4    4    0    0  0.19909907065E+02 -0.15973182207E+02 -0.17126671653E+02  0.30738735027E+02  0.00000000000E+00 0. -1.
        -12    1    4    4    0    0  0.29925460457E+02  0.45541878044E+02 -0.20868801737E+03  0.21568561481E+03  0.00000000000E+00 0.  1.
</event>
<event>
12    1  0.8053217E-002  0.2026108E+03  0.7818608E-02  0.1147760E+00
         21   -1    0    0  501  502  0.00000000000E+00  0.00000000000E+00  0.25200329742E+03  0.25200329742E+03  0.00000000000E+00 0.  1.
         21   -1    0    0  502  503 -0.00000000000E+00 -0.00000000000E+00 -0.23414049355E+03  0.23414049355E+03  0.00000000000E+00 0.  1.
         -6    2    1    2    0  503  0.29790083978E+02  0.10194634859E+03 -0.12590601584E+03  0.23770743913E+03  0.17138259742E+03 0.  0.
        -24    2    3    3    0    0 -0.30237944005E+02  0.69976569716E+01 -0.73981443146E+02  0.11386532419E+03  0.80800728105E+02 0.  0.
          6    2    1    2  501    0 -0.29790083978E+02 -0.10194634859E+03  0.14376881971E+03  0.24843635184E+03  0.17254170597E+03 0.  0.
         24    2    5    5    0    0 -0.13252087039E+02 -0.74305624032E+02  0.17253839235E+03  0.20499336269E+03  0.80968131626E+02 0.  0.
          5    1    5    5  501    0 -0.16537996938E+02 -0.27640724556E+02 -0.28769572636E+02  0.43442989151E+02  0.47000000000E+01 0. -1.
        -13    1    6    6    0    0 -0.31346059684E+02 -0.49628693044E+01  0.23079290065E+02  0.39241039223E+02  0.00000000000E+00 0.  1.
         14    1    6    6    0    0  0.18093972644E+02 -0.69342754727E+02  0.14945910228E+03  0.16575232346E+03  0.00000000000E+00 0. -1.
         -5    1    3    3    0  503  0.60028027983E+02  0.94948691617E+02 -0.51924572692E+02  0.12384211494E+03  0.47000000000E+01 0.  1.
         13    1    4    4    0    0 -0.45273357707E+02  0.13763816365E+02 -0.82650303490E+02  0.95237556804E+02  0.00000000000E+00 0. -1.
        -14    1    4    4    0    0  0.15035413702E+02 -0.67661593930E+01  0.86688603440E+01  0.18627767386E+02  0.00000000000E+00 0.  1.
</event>
<event>
12    1  0.8053217E-002  0.2630897E+03  0.7818608E-02  0.1105351E+00
         21   -1    0    0  503  502  0.00000000000E+00  0.00000000000E+00  0.57840712291E+03  0.57840712291E+03  0.00000000000E+00 0. -1.
         21   -1    0    0  501  503 -0.00000000000E+00 -0.00000000000E+00 -0.19213010940E+03  0.19213010940E+03  0.00000000000E+00 0.  1.
          6    2    1    2  501    0  0.13846064866E+03 -0.14362122287E+03 -0.43797964359E+02  0.26637386457E+03  0.17099230145E+03 0.  0.
         24    2    3    3    0    0  0.65629062440E+02 -0.12772183859E+03  0.23313343583E+02  0.16595848713E+03  0.79866548510E+02 0.  0.
         -6    2    1    2    0  502 -0.13846064866E+03  0.14362122287E+03  0.43007497787E+03  0.50416336774E+03  0.17151620302E+03 0.  0.
        -24    2    5    5    0    0 -0.60726334676E+02  0.18654762601E+01  0.17674951407E+03  0.20360855431E+03  0.80776759895E+02 0.  0.
          5    1    3    3  501    0  0.72831586225E+02 -0.15899384282E+02 -0.67111307943E+02  0.10041537744E+03  0.47000000000E+01 0. -1.
        -13    1    4    4    0    0 -0.11643001931E+02 -0.48638731831E+01  0.16350902941E+02  0.20653541665E+02  0.00000000000E+00 0.  1.
         14    1    4    4    0    0  0.77272064371E+02 -0.12285796541E+03  0.69624406421E+01  0.14530494546E+03  0.00000000000E+00 0. -1.
         -5    1    5    5    0  502 -0.77734313989E+02  0.14175574661E+03  0.25332546380E+03  0.30055481344E+03  0.47000000000E+01 0.  1.
         13    1    6    6    0    0  0.40096780748E+01 -0.12178747678E+02 -0.20025340380E+01  0.12977270739E+02  0.00000000000E+00 0. -1.
        -14    1    6    6    0    0 -0.64736012751E+02  0.14044223938E+02  0.17875204811E+03  0.19063128357E+03  0.00000000000E+00 0.  1.
</event>
<event>
12    1  0.8053217E-002  0.1899471E+03  0.7818608E-02  0.1158579E+00
         21   -1    0    0  501  502  0.00000000000E+00  0.00000000000E+00  0.14908916361E+03  0.14908916361E+03  0.00000000000E+00 0.  1.
         21   -1    0    0  502  503 -0.00000000000E+00 -0.00000000000E+00 -0.50468159299E+03  0.50468159299E+03  0.00000000000E+00 0.  1.
         -6    2    1    2    0  503  0.54181173081E+00  0.79818800504E+02 -0.41387355552E+03  0.45538031414E+03  0.17236175932E+03 0.  0.
        -24    2    3    3    0    0  0.30957963030E+02  0.11218460955E+03 -0.34717084019E+03  0.37510559778E+03  0.81442219469E+02 0.  0.
          6    2    1    2  501    0 -0.54181173081E+00 -0.79818800504E+02  0.58281126135E+02  0.19839044246E+03  0.17201960214E+03 0.  0.
         24    2    5    5    0    0  0.39508491812E+02 -0.54129305339E+02  0.92954752950E+02  0.13932837872E+03  0.79252182306E+02 0.  0.
          5    1    5    5  501    0 -0.40050303542E+02 -0.25689495165E+02 -0.34673626815E+02  0.59062063731E+02  0.47000000000E+01 0. -1.
        -13    1    6    6    0    0  0.27494095321E+02 -0.15463317093E+02  0.93663476723E+02  0.98832617718E+02  0.00000000000E+00 0.  1.
         14    1    6    6    0    0  0.12014396491E+02 -0.38665988246E+02 -0.70872377355E+00  0.40495761006E+02  0.00000000000E+00 0. -1.
         -5    1    3    3    0  503 -0.30416151299E+02 -0.32365809047E+02 -0.66702715331E+02  0.80274716366E+02  0.47000000000E+01 0.  1.
         13    1    4    4    0    0  0.28619085593E+02 -0.84994402342E+00 -0.60027085163E+02  0.66505829956E+02  0.00000000000E+00 0. -1.
        -14    1    4    4    0    0  0.23388774371E+01  0.11303455357E+03 -0.28714375502E+03  0.30859976782E+03  0.00000000000E+00 0.  1.
</event>
<event>
12    1  0.8053217E-002  0.2686806E+03  0.7818608E-02  0.1102056E+00
         21   -1    0    0  501  502  0.00000000000E+00  0.00000000000E+00  0.29297970111E+03  0.29297970111E+03  0.00000000000E+00 0.  1.
         21   -1    0    0  502  503 -0.00000000000E+00 -0.00000000000E+00 -0.24895583400E+03  0.24895583400E+03  0.00000000000E+00 0. -1.
         -6    2    1    2    0  503  0.16414243543E+03 -0.12657244863E+03  0.50124452029E+02  0.27331620686E+03  0.17095603054E+03 0.  0.
        -24    2    3    3    0    0  0.11842122239E+03 -0.15393535557E+03  0.20332337275E+02  0.21208861423E+03  0.82755644741E+02 0.  0.
          6    2    1    2  501    0 -0.16414243543E+03  0.12657244863E+03 -0.61005849139E+01  0.26861932825E+03  0.17075070282E+03 0.  0.
         24    2    5    5    0    0 -0.75932791401E+02  0.20937174827E+02  0.46847372616E+02  0.12108855663E+03  0.79142960047E+02 0.  0.
          5    1    5    5  501    0 -0.88209644032E+02  0.10563527380E+03 -0.52947957530E+02  0.14753077163E+03  0.47000000000E+01 0. -1.
        -11    1    6    6    0    0  0.93109886832E+01 -0.37085555528E+01  0.28857314518E+02  0.30548199550E+02  0.00000000000E+00 0.  1.
         12    1    6    6    0    0 -0.85243780084E+02  0.24645730380E+02  0.17990058098E+02  0.90540357076E+02  0.00000000000E+00 0. -1.
         -5    1    3    3    0  503  0.45721213038E+02  0.27362906946E+02  0.29792114754E+02  0.61227592633E+02  0.47000000000E+01 0.  1.
         13    1    4    4    0    0  0.63565615375E+01 -0.64235983553E+02  0.22989638644E+02  0.68521463372E+02  0.00000000000E+00 0. -1.
        -14    1    4    4    0    0  0.11206466086E+03 -0.89699372018E+02 -0.26573013695E+01  0.14356715085E+03  0.00000000000E+00 0.  1.
</event>
<event>
12    1  0.8053217E-002  0.1900834E+03  0.7818608E-02  0.1158514E+00
         21   -1    0    0  501  502  0.00000000000E+00  0.00000000000E+00  0.22781040841E+04  0.22781040841E+04  0.00000000000E+00 0.  1.
         21   -1    0    0  502  503 -0.00000000000E+00 -0.00000000000E+00 -0.17212759262E+02  0.17212759262E+02  0.00000000000E+00 0.  1.
         -6    2    1    2    0  503 -0.51814048513E+02 -0.62143805120E+02  0.80475666418E+03  0.82690083225E+03  0.17200334213E+03 0.  0.
        -24    2    3    3    0    0 -0.13110563944E+02  0.21958604353E+02  0.52867291999E+03  0.53566982634E+03  0.82419896470E+02 0.  0.
          6    2    1    2  501    0  0.51814048513E+02  0.62143805120E+02  0.14561346607E+04  0.14684160112E+04  0.17137935572E+03 0.  0.
         24    2    5    5    0    0 -0.26212788489E+02 -0.85967701528E+01  0.61443662978E+03  0.62014124343E+03  0.79257649837E+02 0.  0.
          5    1    5    5  501    0  0.78026837003E+02  0.70740575273E+02  0.84169803093E+03  0.84827476772E+03  0.47000000000E+01 0. -1.
        -11    1    6    6    0    0 -0.78017417331E+01  0.14995230639E+02  0.53480684687E+03  0.53507390852E+03  0.00000000000E+00 0.  1.
         12    1    6    6    0    0 -0.18411046756E+02 -0.23592000792E+02  0.79629782906E+02  0.85067334916E+02  0.00000000000E+00 0. -1.
         -5    1    3    3    0  503 -0.38703484569E+02 -0.84102409473E+02  0.27608374419E+03  0.29123100591E+03  0.47000000000E+01 0.  1.
         13    1    4    4    0    0 -0.22323240161E+02  0.13347816332E+02  0.51931680662E+03  0.51996772678E+03  0.00000000000E+00 0. -1.
        -14    1    4    4    0    0  0.92126762170E+01  0.86107880218E+01  0.93561133686E+01  0.15702099567E+02  0.00000000000E+00 0.  1.
</event>
<event>
12    1  0.8053217E-002  0.1896999E+03  0.7818608E-02  0.1160598E+00
         21   -1    0    0  501  502  0.00000000000E+00  0.00000000000E+00  0.79620504418E+02  0.79620504418E+02  0.00000000000E+00 0. -1.
         21   -1    0    0  502  503 -0.00000000000E+00 -0.00000000000E+00 -0.64898652665E+03  0.64898652665E+03  0.00000000000E+00 0.  1.
         -6    2    1    2    0  503  0.37881700272E+02  0.46413158633E+02 -0.49071157559E+03  0.52324739237E+03  0.17146655270E+03 0.  0.
        -24    2    3    3    0    0  0.70474240463E+02 -0.18681139560E+02 -0.26310262155E+03  0.28423386285E+03  0.79058812164E+02 0.  0.
          6    2    1    2  501    0 -0.37881700272E+02 -0.46413158633E+02 -0.78654446640E+02  0.20535963870E+03  0.17999126290E+03 0.  0.
         24    2    5    5    0    0 -0.77512968418E+02 -0.74267712134E+02 -0.30721104390E+02  0.13704998444E+03  0.79466714043E+02 0.  0.
          5    1    5    5  501    0  0.39631268147E+02  0.27854553501E+02 -0.47933342251E+02  0.68309654259E+02  0.47000000000E+01 0. -1.
        -11    1    6    6    0    0  0.83133540504E+01 -0.35105877578E+02 -0.22124003582E+02  0.42320279188E+02  0.00000000000E+00 0.  1.
         12    1    6    6    0    0 -0.85826322469E+02 -0.39161834556E+02 -0.85971008076E+01  0.94729705249E+02  0.00000000000E+00 0. -1.
         -5    1    3    3    0  503 -0.32592540191E+02  0.65094298193E+02 -0.22760895404E+03  0.23901352952E+03  0.47000000000E+01 0.  1.
         11    1    4    4    0    0  0.57250493359E+01  0.11767241827E+02 -0.16765453983E+01  0.13192989600E+02  0.00000000000E+00 0. -1.
        -12    1    4    4    0    0  0.64749191127E+02 -0.30448381387E+02 -0.26142607615E+03  0.27104087325E+03  0.00000000000E+00 0.  1.
</event>
<event>
12    1  0.8053217E-002  0.1762408E+03  0.7818608E-02  0.1171528E+00
         21   -1    0    0  501  502  0.00000000000E+00  0.00000000000E+00  0.52880406104E+03  0.52880406104E+03  0.00000000000E+00 0. -1.
         21   -1    0    0  502  503 -0.00000000000E+00 -0.00000000000E+00 -0.69743848576E+02  0.69743848576E+02  0.00000000000E+00 0. -1.
         -6    2    1    2    0  503  0.83708390448E+01 -0.34146748135E+02  0.11030111834E+03  0.20778748360E+03  0.17254921118E+03 0.  0.
        -24    2    3    3    0    0 -0.13859728523E+02  0.21094141855E+02  0.10437231183E+00  0.82443289889E+02  0.78484586122E+02 0.  0.
          6    2    1    2  501    0 -0.83708390448E+01  0.34146748135E+02  0.34875909412E+03  0.39076042602E+03  0.17269838868E+03 0.  0.
         24    2    5    5    0    0 -0.71766469032E+02  0.12552045165E+02  0.24023633161E+03  0.26314923105E+03  0.78905277780E+02 0.  0.
          5    1    5    5  501    0  0.63395629987E+02  0.21594702970E+02  0.10852276251E+03  0.12761119497E+03  0.47000000000E+01 0. -1.
        -13    1    6    6    0    0 -0.23847282177E+02  0.34009713725E+02  0.46165632149E+02  0.62101683444E+02  0.00000000000E+00 0.  1.
         14    1    6    6    0    0 -0.47919186855E+02 -0.21457668560E+02  0.19407069946E+03  0.20104754761E+03  0.00000000000E+00 0. -1.
         -5    1    3    3    0  503  0.22230567568E+02 -0.55240889990E+02  0.11019674603E+03  0.12534419371E+03  0.47000000000E+01 0.  1.
         13    1    4    4    0    0 -0.32764315482E+02 -0.19121149719E+02  0.17463746754E+01  0.37975894460E+02  0.00000000000E+00 0. -1.
        -14    1    4    4    0    0  0.18904586959E+02  0.40215291574E+02 -0.16420023635E+01  0.44467395429E+02  0.00000000000E+00 0.  1.
</event>
<event>
12    1  0.8053217E-002  0.3070488E+03  0.7818608E-02  0.1081868E+00
         21   -1    0    0  501  502  0.00000000000E+00  0.00000000000E+00  0.18993794680E+03  0.18993794680E+03  0.00000000000E+00 0. -1.
         21   -1    0    0  502  503 -0.00000000000E+00 -0.00000000000E+00 -0.50514195855E+03  0.50514195855E+03  0.00000000000E+00 0. -1.
         -6    2    1    2    0  503  0.15594919082E+03 -0.20105431911E+03 -0.10829058501E+03  0.32482038058E+03  0.17040668851E+03 0.  0.
        -24    2    3    3    0    0  0.14464024166E+03 -0.20990926934E+03 -0.13094949295E+03  0.29758403384E+03  0.80161004389E+02 0.  0.
          6    2    1    2  501    0 -0.15594919082E+03  0.20105431911E+03 -0.20691342674E+03  0.37025952478E+03  0.17186029258E+03 0.  0.
         24    2    5    5    0    0 -0.25291724064E+02  0.18025813744E+02 -0.65914899477E+02  0.10479110464E+03  0.75311356191E+02 0.  0.
          5    1    5    5  501    0 -0.13065746676E+03  0.18302850537E+03 -0.14099852727E+03  0.26546842014E+03  0.47000000000E+01 0. -1.
        -11    1    6    6    0    0 -0.32542935352E+02  0.21191486608E+02 -0.79835174258E+02  0.88779371448E+02  0.00000000000E+00 0.  1.
         12    1    6    6    0    0  0.72512112880E+01 -0.31656728643E+01  0.13920274781E+02  0.16011733191E+02  0.00000000000E+00 0. -1.
         -5    1    3    3    0  503  0.11308949161E+02  0.88549502305E+01  0.22658907947E+02  0.27236346746E+02  0.47000000000E+01 0.  1.
         13    1    4    4    0    0  0.14067182380E+03 -0.15753773237E+03 -0.84535413174E+02  0.22749271464E+03  0.00000000000E+00 0. -1.
        -14    1    4    4    0    0  0.39684178594E+01 -0.52371536969E+02 -0.46414079781E+02  0.70091319196E+02  0.00000000000E+00 0.  1.
</event>
<event>
12    1  0.8053217E-002  0.1849385E+03  0.7818608E-02  0.1163321E+00
         21   -1    0    0  501  502  0.00000000000E+00  0.00000000000E+00  0.26811603420E+03  0.26811603420E+03  0.00000000000E+00 0.  1.
         21   -1    0    0  502  503 -0.00000000000E+00 -0.00000000000E+00 -0.20641740947E+03  0.20641740947E+03  0.00000000000E+00 0.  1.
         -6    2    1    2    0  503 -0.50711593237E+02 -0.49947191698E+02 -0.11633214744E+03  0.21848433870E+03  0.17069226721E+03 0.  0.
        -24    2    3    3    0    0  0.28488585370E+02 -0.17615050906E+02 -0.17222556786E+02  0.87477329047E+02  0.78954272337E+02 0.  0.
          6    2    1    2  501    0  0.50711593237E+02  0.49947191698E+02  0.17803077217E+03  0.25604910497E+03  0.16970504020E+03 0.  0.
         24    2    5    5    0    0  0.46726389975E+02  0.74612562557E+01  0.18982212887E+03  0.21152874279E+03  0.80454599330E+02 0.  0.
          5    1    5    5  501    0  0.39852032622E+01  0.42485935442E+02 -0.11791356699E+02  0.44520362176E+02  0.47000000000E+01 0. -1.
        -11    1    6    6    0    0  0.37561495667E+02 -0.27253504166E+02  0.54777574782E+02  0.71792772235E+02  0.00000000000E+00 0.  1.
         12    1    6    6    0    0  0.91648943079E+01  0.34714760422E+02  0.13504455409E+03  0.13973597056E+03  0.00000000000E+00 0. -1.
         -5    1    3    3    0  503 -0.79200178607E+02 -0.32332140793E+02 -0.99109590652E+02  0.13100700966E+03  0.47000000000E+01 0.  1.
         13    1    4    4    0    0  0.38589804965E+02  0.17095387085E+02  0.85709420609E+01  0.43068391596E+02  0.00000000000E+00 0. -1.
        -14    1    4    4    0    0 -0.10101219595E+02 -0.34710437991E+02 -0.25793498847E+02  0.44408937452E+02  0.00000000000E+00 0.  1.
</event>
<event>
12    1  0.8053217E-002  0.2293096E+03  0.7818608E-02  0.1127140E+00
         21   -1    0    0  501  502  0.00000000000E+00  0.00000000000E+00  0.13244226686E+03  0.13244226686E+03  0.00000000000E+00 0. -1.
         21   -1    0    0  502  503 -0.00000000000E+00 -0.00000000000E+00 -0.39694205954E+03  0.39694205954E+03  0.00000000000E+00 0.  1.
         -6    2    1    2    0  503 -0.11300986119E+03  0.10120461037E+03 -0.13512133290E+03  0.26615910106E+03  0.17195723476E+03 0.  0.
        -24    2    3    3    0    0 -0.32589623233E+02  0.75967861415E+02 -0.69644603652E+01  0.11269711179E+03  0.76281949294E+02 0.  0.
          6    2    1    2  501    0  0.11300986119E+03 -0.10120461037E+03 -0.12937845978E+03  0.26322522535E+03  0.17185788175E+03 0.  0.
         24    2    5    5    0    0  0.34273735674E+02 -0.71403554642E+02 -0.13680136011E+03  0.17858085263E+03  0.83086414197E+02 0.  0.
          5    1    5    5  501    0  0.78736125516E+02 -0.29801055729E+02  0.74229003350E+01  0.84644372721E+02  0.47000000000E+01 0. -1.
        -13    1    6    6    0    0 -0.17782890815E+02 -0.20060201251E+02 -0.84590081055E+02  0.88736264813E+02  0.00000000000E+00 0.  1.
         14    1    6    6    0    0  0.52056626489E+02 -0.51343353390E+02 -0.52211279056E+02  0.89844587813E+02  0.00000000000E+00 0. -1.
         -5    1    3    3    0  503 -0.80420237957E+02  0.25236748956E+02 -0.12815687254E+03  0.15346198927E+03  0.47000000000E+01 0.  1.
         13    1    4    4    0    0 -0.21660611599E+02 -0.15068322290E+01  0.20415063155E+02  0.29803144832E+02  0.00000000000E+00 0. -1.
        -14    1    4    4    0    0 -0.10929011633E+02  0.77474693644E+02 -0.27379523520E+02  0.82893966962E+02  0.00000000000E+00 0.  1.
</event>
<event>
12    1  0.8053217E-002  0.3139377E+03  0.7818608E-02  0.1078484E+00
         21   -1    0    0  501  502  0.00000000000E+00  0.00000000000E+00  0.10218736789E+03  0.10218736789E+03  0.00000000000E+00 0.  1.
         21   -1    0    0  502  503 -0.00000000000E+00 -0.00000000000E+00 -0.99270979326E+03  0.99270979326E+03  0.00000000000E+00 0. -1.
         -6    2    1    2    0  503  0.37136516561E+02 -0.26024541457E+03 -0.53795829633E+03  0.62281838422E+03  0.17145499254E+03 0.  0.
        -24    2    3    3    0    0  0.54454610939E+02 -0.27337563760E+03 -0.51391791594E+03  0.59007164333E+03  0.79833426874E+02 0.  0.
          6    2    1    2  501    0 -0.37136516561E+02  0.26024541457E+03 -0.35256412905E+03  0.47207877693E+03  0.17161034312E+03 0.  0.
         24    2    5    5    0    0 -0.90318130345E+02  0.17906493543E+03 -0.24171783150E+03  0.32467611102E+03  0.82252363059E+02 0.  0.
          5    1    5    5  501    0  0.53181613784E+02  0.81180479143E+02 -0.11084629754E+03  0.14740266591E+03  0.47000000000E+01 0. -1.
        -11    1    6    6    0    0 -0.86197076586E+02  0.15553198622E+03 -0.15887223024E+03  0.23845444070E+03  0.00000000000E+00 0.  1.
         12    1    6    6    0    0 -0.41210537588E+01  0.23532949207E+02 -0.82845601269E+02  0.86221670316E+02  0.00000000000E+00 0. -1.
         -5    1    3    3    0  503 -0.17318094379E+02  0.13130223034E+02 -0.24040380389E+02  0.32746740892E+02  0.47000000000E+01 0.  1.
         13    1    4    4    0    0 -0.19612968395E+01 -0.17819875692E+03 -0.34161235692E+03  0.38530201927E+03  0.00000000000E+00 0. -1.
        -14    1    4    4    0    0  0.56415907779E+02 -0.95176880684E+02 -0.17230555902E+03  0.20476962406E+03  0.00000000000E+00 0.  1.
</event>
<event>
12    1  0.8053217E-002  0.2286834E+03  0.7818608E-02  0.1127989E+00
         21   -1    0    0  501  502  0.00000000000E+00  0.00000000000E+00  0.17283399051E+03  0.17283399051E+03  0.00000000000E+00 0.  1.
         21   -1    0    0  502  503 -0.00000000000E+00 -0.00000000000E+00 -0.33836074655E+03  0.33836074655E+03  0.00000000000E+00 0.  1.
         -6    2    1    2    0  503 -0.41220939739E+02  0.14871886222E+03 -0.16978818366E+03  0.28482295057E+03  0.16875905903E+03 0.  0.
        -24    2    3    3    0    0  0.18129462117E+01  0.73642240134E+01 -0.60578638995E+02  0.10102451823E+03  0.80490143569E+02 0.  0.
          6    2    1    2  501    0  0.41220939739E+02 -0.14871886222E+03  0.42614276255E+01  0.22637178650E+03  0.16555832840E+03 0.  0.
         24    2    5    5    0    0  0.71470683381E+02 -0.10185681781E+03 -0.42765302508E+02  0.15326432077E+03  0.78601596717E+02 0.  0.
          5    1    5    5  501    0 -0.30249743643E+02 -0.46862044413E+02  0.47026730133E+02  0.73107465720E+02  0.47000000000E+01 0. -1.
        -11    1    6    6    0    0  0.25787493303E+02 -0.16652836028E+02  0.21231007394E+02  0.37323818583E+02  0.00000000000E+00 0.  1.
         12    1    6    6    0    0  0.45683190079E+02 -0.85203981783E+02 -0.63996309902E+02  0.11594050219E+03  0.00000000000E+00 0. -1.
         -5    1    3    3    0  503 -0.43033885951E+02  0.14135463821E+03 -0.10920954467E+03  0.18379843234E+03  0.47000000000E+01 0.  1.
         11    1    4    4    0    0 -0.36513281501E+02 -0.99657791860E+01 -0.21077084990E+02  0.43321818896E+02  0.00000000000E+00 0. -1.
        -12    1    4    4    0    0  0.38326227713E+02  0.17330003199E+02 -0.39501554005E+02  0.57702699334E+02  0.00000000000E+00 0.  1.
</event>
<event>
12    1  0.8053217E-002  0.1938620E+03  0.7818608E-02  0.1155432E+00
         21   -1    0    0  503  502  0.00000000000E+00  0.00000000000E+00  0.75103979997E+02  0.75103979997E+02  0.00000000000E+00 0. -1.
         21   -1    0    0  501  503 -0.00000000000E+00 -0.00000000000E+00 -0.53886460708E+03  0.53886460708E+03  0.00000000000E+00 0.  1.
          6    2    1    2  501    0  0.23434301230E+02  0.83855127202E+02 -0.31985038508E+03  0.37401433783E+03  0.17320972037E+03 0.  0.
         24    2    3    3    0    0 -0.41872301738E+02  0.59686402195E+02 -0.26568736593E+03  0.28566954566E+03  0.75508652763E+02 0.  0.
         -6    2    1    2    0  502 -0.23434301230E+02 -0.83855127202E+02 -0.14391024200E+03  0.23995424925E+03  0.17113455276E+03 0.  0.
        -24    2    5    5    0    0  0.37541637838E+02 -0.90402375530E+02 -0.72277934238E+02  0.14553915977E+03  0.79847249021E+02 0.  0.
          5    1    3    3  501    0  0.65306602969E+02  0.24168725006E+02 -0.54163019153E+02  0.88344792170E+02  0.47000000000E+01 0. -1.
        -13    1    4    4    0    0 -0.20008028247E+01 -0.16856505511E+02 -0.27375021389E+02  0.32210817842E+02  0.00000000000E+00 0.  1.
         14    1    4    4    0    0 -0.39871498914E+02  0.76542907706E+02 -0.23831234454E+03  0.25345872781E+03  0.00000000000E+00 0. -1.
         -5    1    5    5    0  502 -0.60975939068E+02  0.65472483281E+01 -0.71632307765E+02  0.94415089481E+02  0.47000000000E+01 0.  1.
         13    1    6    6    0    0  0.32699101511E+02 -0.87363249813E+02 -0.88349877550E+02  0.12848061924E+03  0.00000000000E+00 0. -1.
        -14    1    6    6    0    0  0.48425363271E+01 -0.30391257167E+01  0.16071943312E+02  0.17058540530E+02  0.00000000000E+00 0.  1.
</event>
<event>
12    1  0.8053217E-002  0.2008772E+03  0.7818608E-02  0.1149106E+00
         21   -1    0    0  501  502  0.00000000000E+00  0.00000000000E+00  0.32526819081E+03  0.32526819081E+03  0.00000000000E+00 0. -1.
         21   -1    0    0  502  503 -0.00000000000E+00 -0.00000000000E+00 -0.15852225115E+03  0.15852225115E+03  0.00000000000E+00 0. -1.
         -6    2    1    2    0  503 -0.92983915405E+02 -0.46383632458E+02 -0.29841551282E+02  0.20308163868E+03  0.17191330345E+03 0.  0.
        -24    2    3    3    0    0 -0.70690606241E+02  0.20348151806E+01 -0.76225457168E+02  0.13226571935E+03  0.81747158436E+02 0.  0.
          6    2    1    2  501    0  0.92983915405E+02  0.46383632458E+02  0.19658749095E+03  0.28070880328E+03  0.17132816685E+03 0.  0.
         24    2    5    5    0    0  0.97519960258E+01 -0.19960892956E+02  0.13568741079E+03  0.15798937442E+03  0.77820500566E+02 0.  0.
          5    1    5    5  501    0  0.83231919379E+02  0.66344525414E+02  0.60900080163E+02  0.12271942886E+03  0.47000000000E+01 0. -1.
        -11    1    6    6    0    0 -0.86689684041E+01  0.20579498514E+02  0.96676710427E+01  0.24333734520E+02  0.00000000000E+00 0.  1.
         12    1    6    6    0    0  0.18420964430E+02 -0.40540391470E+02  0.12601973974E+03  0.13365563990E+03  0.00000000000E+00 0. -1.
         -5    1    3    3    0  503 -0.22293309164E+02 -0.48418447639E+02  0.46383905886E+02  0.70815919329E+02  0.47000000000E+01 0.  1.
         13    1    4    4    0    0 -0.71250967996E+02 -0.28102907906E+02 -0.63715151037E+02  0.99629786434E+02  0.00000000000E+00 0. -1.
        -14    1    4    4    0    0  0.56036175461E+00  0.30137723087E+02 -0.12510306130E+02  0.32635932921E+02  0.00000000000E+00 0.  1.
</event>
<event>
12    1  0.8053217E-002  0.2460326E+03  0.7818608E-02  0.1116264E+00
         21   -1    0    0  501  502  0.00000000000E+00  0.00000000000E+00  0.40655062164E+03  0.40655062164E+03  0.00000000000E+00 0.  1.
         21   -1    0    0  502  503 -0.00000000000E+00 -0.00000000000E+00 -0.15082137772E+03  0.15082137772E+03  0.00000000000E+00 0. -1.
         -6    2    1    2    0  503  0.10332554771E+03  0.14192766423E+03  0.17108145509E+03  0.29966797396E+03  0.17237285070E+03 0.  0.
        -24    2    3    3    0    0 -0.81610106559E+01  0.96775127042E+02  0.93386050215E+02  0.15639665705E+03  0.79416198927E+02 0.  0.
          6    2    1    2  501    0 -0.10332554771E+03 -0.14192766423E+03  0.84647788827E+02  0.25770402541E+03  0.16860155953E+03 0.  0.
         24    2    5    5    0    0 -0.51130323634E+02 -0.75493007069E+02  0.11632689690E+03  0.16735159890E+03  0.78492716860E+02 0.  0.
          5    1    5    5  501    0 -0.52195224074E+02 -0.66434657160E+02 -0.31679108073E+02  0.90352426511E+02  0.47000000000E+01 0. -1.
        -11    1    6    6    0    0 -0.35068881613E+02 -0.67683658948E+02  0.34632078897E+02  0.83727444933E+02  0.00000000000E+00 0.  1.
         12    1    6    6    0    0 -0.16061442021E+02 -0.78093481202E+01  0.81694818003E+02  0.83624153965E+02  0.00000000000E+00 0. -1.
         -5    1    3    3    0  503  0.11148655836E+03  0.45152537186E+02  0.77695404878E+02  0.14327131691E+03  0.47000000000E+01 0.  1.
         13    1    4    4    0    0  0.32137769552E+02  0.70121700048E+02  0.56819726647E+02  0.95803811959E+02  0.00000000000E+00 0. -1.
        -14    1    4    4    0    0 -0.40298780208E+02  0.26653426994E+02  0.36566323567E+02  0.60592845089E+02  0.00000000000E+00 0.  1.
</event>
<event>
12    1  0.8053217E-002  0.2163180E+03  0.7818608E-02  0.1138891E+00
         21   -1    0    0  503  502  0.00000000000E+00  0.00000000000E+00  0.75883079171E+02  0.75883079171E+02  0.00000000000E+00 0.  1.
         21   -1    0    0  501  503 -0.00000000000E+00 -0.00000000000E+00 -0.58464547003E+03  0.58464547003E+03  0.00000000000E+00 0.  1.
          6    2    1    2  501    0 -0.99293480378E+02 -0.73083774151E+02 -0.25920915093E+03  0.33761345264E+03  0.17774427188E+03 0.  0.
         24    2    3    3    0    0 -0.92164103882E+02 -0.11671613607E+03 -0.17996428363E+03  0.24674844282E+03  0.79879735777E+02 0.  0.
         -6    2    1    2    0  502  0.99293480378E+02  0.73083774151E+02 -0.24955323993E+03  0.32291509656E+03  0.16369760761E+03 0.  0.
        -24    2    5    5    0    0  0.12712610647E+03  0.86919152536E+02 -0.20234036248E+03  0.26619456618E+03  0.78752388856E+02 0.  0.
          5    1    3    3  501    0 -0.71293764966E+01  0.43632361922E+02 -0.79244867296E+02  0.90865009816E+02  0.47000000000E+01 0. -1.
        -11    1    4    4    0    0 -0.73790991849E+02 -0.52429014508E+02 -0.57552164035E+02  0.10726678715E+03  0.00000000000E+00 0.  1.
         12    1    4    4    0    0 -0.18373112033E+02 -0.64287121565E+02 -0.12241211960E+03  0.13948165567E+03  0.00000000000E+00 0. -1.
         -5    1    5    5    0  502 -0.27832626088E+02 -0.13835378385E+02 -0.47212877449E+02  0.56720530384E+02  0.47000000000E+01 0.  1.
         11    1    6    6    0    0  0.15930691983E+02 -0.48827286208E+01 -0.64852418206E+02  0.66958674815E+02  0.00000000000E+00 0. -1.
        -12    1    6    6    0    0  0.11119541448E+03  0.91801881157E+02 -0.13748794428E+03  0.19923589137E+03  0.00000000000E+00 0.  1.
</event>
<event>
12    1  0.8053217E-002  0.2075758E+03  0.7818608E-02  0.1143876E+00
         21   -1    0    0  503  502  0.00000000000E+00  0.00000000000E+00  0.55117481027E+02  0.55117481027E+02  0.00000000000E+00 0. -1.
         21   -1    0    0  501  503 -0.00000000000E+00 -0.00000000000E+00 -0.77515366004E+03  0.77515366004E+03  0.00000000000E+00 0.  1.
          6    2    1    2  501    0  0.96490240968E+02 -0.65300527503E+02 -0.34891075904E+03  0.40503968503E+03  0.16954027009E+03 0.  0.
         24    2    3    3    0    0  0.98318796332E+02  0.12194301363E+02 -0.22788220448E+03  0.26123845717E+03  0.80622240652E+02 0.  0.
         -6    2    1    2    0  502 -0.96490240968E+02  0.65300527503E+02 -0.37112541998E+03  0.42523145604E+03  0.17179402888E+03 0.  0.
        -24    2    5    5    0    0 -0.52916757185E+02  0.36497571539E+01 -0.31694851251E+03  0.33219010354E+03  0.84145120979E+02 0.  0.
          5    1    3    3  501    0 -0.18285553644E+01 -0.77494828866E+02 -0.12102855455E+03  0.14380122786E+03  0.47000000000E+01 0. -1.
        -11    1    4    4    0    0 -0.52754677328E+01  0.79999259762E+01 -0.80347476683E+02  0.80916910375E+02  0.00000000000E+00 0.  1.
         12    1    4    4    0    0  0.10359426406E+03  0.41943753870E+01 -0.14753472780E+03  0.18032154680E+03  0.00000000000E+00 0. -1.
         -5    1    5    5    0  502 -0.43573483782E+02  0.61650770349E+02 -0.54176907467E+02  0.93041352506E+02  0.47000000000E+01 0.  1.
         11    1    6    6    0    0  0.92051433101E+01  0.23817500634E+02 -0.38599701008E+02  0.46281150782E+02  0.00000000000E+00 0. -1.
        -12    1    6    6    0    0 -0.62121900495E+02 -0.20167743481E+02 -0.27834881151E+03  0.28590895275E+03  0.00000000000E+00 0.  1.
</event>
<event>
12    1  0.8053217E-002  0.2705441E+03  0.7818608E-02  0.1101274E+00
         21   -1    0    0  503  502  0.00000000000E+00  0.00000000000E+00  0.43170975081E+03  0.43170975081E+03  0.00000000000E+00 0.  1.
         21   -1    0    0  501  503 -0.00000000000E+00 -0.00000000000E+00 -0.18892053445E+03  0.18892053445E+03  0.00000000000E+00 0. -1.
          6    2    1    2  501    0  0.53665489359E+02 -0.20128769692E+03  0.19084480394E+02  0.27121641271E+03  0.17261924414E+03 0.  0.
         24    2    3    3    0    0  0.27447858589E+01 -0.17806434725E+03 -0.28901839340E+02  0.19734477474E+03  0.79969983035E+02 0.  0.
         -6    2    1    2    0  502 -0.53665489359E+02  0.20128769692E+03  0.22370473596E+03  0.34941387255E+03  0.16926170199E+03 0.  0.
        -24    2    5    5    0    0 -0.58893099432E+02  0.42262604107E+02  0.98478517766E+02  0.14687991546E+03  0.81370548955E+02 0.  0.
          5    1    3    3  501    0  0.50920703500E+02 -0.23223349670E+02  0.47986319734E+02  0.73871637970E+02  0.47000000000E+01 0. -1.
        -13    1    4    4    0    0 -0.22793402280E+02 -0.15367324248E+03 -0.64317750935E+01  0.15548753125E+03  0.00000000000E+00 0.  1.
         14    1    4    4    0    0  0.25538188139E+02 -0.24391104772E+02 -0.22470064246E+02  0.41857243491E+02  0.00000000000E+00 0. -1.
         -5    1    5    5    0  502  0.52276100735E+01  0.15902509282E+03  0.12522621820E+03  0.20253395710E+03  0.47000000000E+01 0.  1.
         11    1    6    6    0    0 -0.13725743614E+02  0.15884345475E+02  0.91775982795E+02  0.94146372670E+02  0.00000000000E+00 0. -1.
        -12    1    6    6    0    0 -0.45167355818E+02  0.26378258632E+02  0.67025349709E+01  0.52733542789E+02  0.00000000000E+00 0.  1.
</event>
<event>
12    1  0.8053217E-002  0.2927109E+03  0.7818608E-02  0.1088961E+00
         21   -1    0    0  503  502  0.00000000000E+00  0.00000000000E+00  0.53216765645E+03  0.53216765645E+03  0.00000000000E+00 0. -1.
         21   -1    0    0  501  503 -0.00000000000E+00 -0.00000000000E+00 -0.20633233813E+03  0.20633233813E+03  0.00000000000E+00 0. -1.
          6    2    1    2  501    0  0.10062756451E+03 -0.21256137851E+03 -0.10345994967E+02  0.29274494795E+03  0.17402390229E+03 0.  0.
         24    2    3    3    0    0  0.27924834020E+02 -0.16989017000E+03 -0.55339444096E+02  0.19707353362E+03  0.78313838899E+02 0.  0.
         -6    2    1    2    0  502 -0.10062756451E+03  0.21256137851E+03  0.33618131328E+03  0.44575504663E+03  0.17427403658E+03 0.  0.
        -24    2    5    5    0    0 -0.13878990231E+03  0.15454819859E+03  0.26586198778E+03  0.34681672944E+03  0.80321009706E+02 0.  0.
          5    1    3    3  501    0  0.72702730487E+02 -0.42671208506E+02  0.44993449129E+02  0.95671414331E+02  0.47000000000E+01 0. -1.
        -11    1    4    4    0    0 -0.21158574052E+02 -0.34183050593E+02  0.52818017107E+01  0.40547054555E+02  0.00000000000E+00 0.  1.
         12    1    4    4    0    0  0.49083408072E+02 -0.13570711941E+03 -0.60621245806E+02  0.15652647907E+03  0.00000000000E+00 0. -1.
         -5    1    5    5    0  502  0.38162337800E+02  0.58013179914E+02  0.70319325501E+02  0.98938317193E+02  0.47000000000E+01 0.  1.
         11    1    6    6    0    0 -0.53536443314E+02  0.40428077002E+02  0.35319170373E+02  0.75815723756E+02  0.00000000000E+00 0. -1.
        -12    1    6    6    0    0 -0.85253458993E+02  0.11412012159E+03  0.23054281741E+03  0.27100100568E+03  0.00000000000E+00 0.  1.
</event>
<event>
12    1  0.8053217E-002  0.2017577E+03  0.7818608E-02  0.1149739E+00
         21   -1    0    0  501  502  0.00000000000E+00  0.00000000000E+00  0.56835732992E+02  0.56835732992E+02  0.00000000000E+00 0.  1.
         21   -1    0    0  502  503 -0.00000000000E+00 -0.00000000000E+00 -0.74247209099E+03  0.74247209099E+03  0.00000000000E+00 0.  1.
         -6    2    1    2    0  503  0.90597957142E+02  0.52190191443E+01 -0.45281615367E+03  0.49573040717E+03  0.18019694660E+03 0.  0.
        -24    2    3    3    0    0  0.23368954415E+02  0.54604562699E+02 -0.33883099089E+03  0.35440320506E+03  0.85249193974E+02 0.  0.
          6    2    1    2  501    0 -0.90597957142E+02 -0.52190191443E+01 -0.23282020433E+03  0.30357741682E+03  0.17239133522E+03 0.  0.
         24    2    5    5    0    0 -0.11617393946E+03 -0.22694182035E+02 -0.11972918396E+03  0.18622674116E+03  0.79585875144E+02 0.  0.
          5    1    5    5  501    0  0.25575982322E+02  0.17475162890E+02 -0.11309102037E+03  0.11735067566E+03  0.47000000000E+01 0. -1.
        -13    1    6    6    0    0 -0.74236495860E+02  0.22361781121E+02 -0.45881653452E+02  0.90090136508E+02  0.00000000000E+00 0.  1.
         14    1    6    6    0    0 -0.41937443603E+02 -0.45055963156E+02 -0.73847530505E+02  0.96136604650E+02  0.00000000000E+00 0. -1.
         -5    1    3    3    0  503  0.67229002727E+02 -0.49385543555E+02 -0.11398516279E+03  0.14132720211E+03  0.47000000000E+01 0.  1.
         13    1    4    4    0    0 -0.24578329076E+02  0.28504272619E+02 -0.22538264990E+03  0.22850366889E+03  0.00000000000E+00 0. -1.
        -14    1    4    4    0    0  0.47947283491E+02  0.26100290080E+02 -0.11344834099E+03  0.12589953618E+03  0.00000000000E+00 0.  1.
</event>
<event>
12    1  0.8053217E-002  0.2143419E+03  0.7818608E-02  0.1138318E+00
         21   -1    0    0  503  502  0.00000000000E+00  0.00000000000E+00  0.14795973348E+04  0.14795973348E+04  0.00000000000E+00 0.  1.
         21   -1    0    0  501  503 -0.00000000000E+00 -0.00000000000E+00 -0.35269976283E+02  0.35269976283E+02  0.00000000000E+00 0. -1.
          6    2    1    2  501    0  0.68934087356E+02 -0.10680546155E+03  0.45572996812E+03  0.50330058835E+03  0.17164604095E+03 0.  0.
         24    2    3    3    0    0  0.65944986130E+02 -0.42412320763E+02  0.40794238112E+03  0.42291927972E+03  0.79348501537E+02 0.  0.
         -6    2    1    2    0  502 -0.68934087356E+02  0.10680546155E+03  0.98859739042E+03  0.10115667228E+04  0.17257786425E+03 0.  0.
        -24    2    5    5    0    0 -0.94596955758E+01  0.12031199412E+03  0.80493529989E+03  0.81798603365E+03  0.81337890673E+02 0.  0.
          5    1    3    3  501    0  0.29891012261E+01 -0.64393140783E+02  0.47787587003E+02  0.80381308633E+02  0.47000000000E+01 0. -1.
        -13    1    4    4    0    0  0.59517898508E+02 -0.59434609861E+02  0.38250740176E+03  0.39164622492E+03  0.00000000000E+00 0.  1.
         14    1    4    4    0    0  0.64270876218E+01  0.17022289098E+02  0.25434979355E+02  0.31273054795E+02  0.00000000000E+00 0. -1.
         -5    1    5    5    0  502 -0.59474391780E+02 -0.13506532569E+02  0.18366209052E+03  0.19358068911E+03  0.47000000000E+01 0.  1.
         13    1    6    6    0    0 -0.34391999381E+02  0.16023165128E+02  0.23681462620E+03  0.23983477360E+03  0.00000000000E+00 0. -1.
        -14    1    6    6    0    0  0.24932303805E+02  0.10428882899E+03  0.56812067369E+03  0.57815126005E+03  0.00000000000E+00 0.  1.
</event>
<event>
12    1  0.8053217E-002  0.2237193E+03  0.7818608E-02  0.1131333E+00
         21   -1    0    0  501  502  0.00000000000E+00  0.00000000000E+00  0.14674086385E+03  0.14674086385E+03  0.00000000000E+00 0.  1.
         21   -1    0    0  502  503 -0.00000000000E+00 -0.00000000000E+00 -0.62040689873E+03  0.62040689873E+03  0.00000000000E+00 0.  1.
         -6    2    1    2    0  503 -0.92420681402E+02  0.10813908400E+03 -0.49464194987E+03  0.54244727564E+03  0.17129724001E+03 0.  0.
        -24    2    3    3    0    0 -0.94994632466E+01 -0.64718355721E+01 -0.17787971846E+03  0.19550060459E+03  0.80294256933E+02 0.  0.
          6    2    1    2  501    0  0.92420681402E+02 -0.10813908400E+03  0.20975914993E+02  0.22470048693E+03  0.17266926762E+03 0.  0.
         24    2    5    5    0    0  0.72941454589E+02 -0.11856285669E+03  0.67138625417E+02  0.17330806388E+03  0.78425016407E+02 0.  0.
          5    1    5    5  501    0  0.19479226813E+02  0.10423772684E+02 -0.46162710424E+02  0.51392423059E+02  0.47000000000E+01 0. -1.
        -11    1    6    6    0    0  0.67688619411E+02 -0.10143238522E+03  0.20903432637E+02  0.12372239678E+03  0.00000000000E+00 0.  1.
         12    1    6    6    0    0  0.52528351771E+01 -0.17130471471E+02  0.46235192780E+02  0.49585667099E+02  0.00000000000E+00 0. -1.
         -5    1    3    3    0  503 -0.82921218155E+02  0.11461091957E+03 -0.31676223141E+03  0.34694667105E+03  0.47000000000E+01 0.  1.
         11    1    4    4    0    0  0.16608690406E+02  0.30941522992E-01 -0.16470877631E+03  0.16554404413E+03  0.00000000000E+00 0. -1.
        -12    1    4    4    0    0 -0.26108153652E+02 -0.65027770951E+01 -0.13170942150E+02  0.29956560453E+02  0.00000000000E+00 0.  1.
</event>
<event>
12    1  0.8053217E-002  0.1821423E+03  0.7818608E-02  0.1168008E+00
         21   -1    0    0  503  502  0.00000000000E+00  0.00000000000E+00  0.64109069521E+02  0.64109069521E+02  0.00000000000E+00 0.  1.
         21   -1    0    0  501  503 -0.00000000000E+00 -0.00000000000E+00 -0.16522689348E+04  0.16522689348E+04  0.00000000000E+00 0.  1.
          6    2    1    2  501    0 -0.21428414209E+02 -0.42745520532E+02 -0.15194318276E+04  0.15303100618E+04  0.17575394706E+03 0.  0.
         24    2    3    3    0    0  0.13519019805E+02  0.30930135874E+02 -0.47130420505E+03  0.47900466909E+03  0.78602685110E+02 0.  0.
         -6    2    1    2    0  502  0.21428414209E+02  0.42745520532E+02 -0.68728037720E+02  0.18606794261E+03  0.16616672242E+03 0.  0.
        -24    2    5    5    0    0 -0.23233619355E+02  0.72180641007E+01 -0.91923730928E+02  0.12428584500E+03  0.80031852664E+02 0.  0.
          5    1    3    3  501    0 -0.34947434014E+02 -0.73675656405E+02 -0.10481276226E+04  0.10513053927E+04  0.47000000000E+01 0.  1.
        -13    1    4    4    0    0 -0.24726037390E+01  0.42005608113E+02 -0.12002373031E+03  0.12718600835E+03  0.00000000000E+00 0.  1.
         14    1    4    4    0    0  0.15991623544E+02 -0.11075472240E+02 -0.35128047474E+03  0.35181866074E+03  0.00000000000E+00 0. -1.
         -5    1    5    5    0  502  0.44662033563E+02  0.35527456431E+02  0.23195693209E+02  0.61782097616E+02  0.47000000000E+01 0.  1.
         11    1    6    6    0    0  0.34125839922E+01  0.29341994765E+02 -0.83600812365E+02  0.88666195443E+02  0.00000000000E+00 0. -1.
        -12    1    6    6    0    0 -0.26646203347E+02 -0.22123930664E+02 -0.83229185632E+01  0.35619649553E+02  0.00000000000E+00 0.  1.
</event>
<event>
12    1  0.8053217E-002  0.1753394E+03  0.7818608E-02  0.1173461E+00
         21   -1    0    0  503  502  0.00000000000E+00  0.00000000000E+00  0.13354584084E+03  0.13354584084E+03  0.00000000000E+00 0. -1.
         21   -1    0    0  501  503 -0.00000000000E+00 -0.00000000000E+00 -0.30066590268E+03  0.30066590268E+03  0.00000000000E+00 0. -1.
          6    2    1    2  501    0 -0.10284191139E+02  0.35166239260E+02 -0.19191692473E+03  0.25712757016E+03  0.16715278152E+03 0.  0.
         24    2    3    3    0    0 -0.29914685923E+02 -0.42541821314E+02 -0.10384167002E+03  0.13795022544E+03  0.74447815762E+02 0.  0.
         -6    2    1    2    0  502  0.10284191139E+02 -0.35166239260E+02  0.24796862889E+02  0.17708417336E+03  0.17146863000E+03 0.  0.
        -24    2    5    5    0    0 -0.56472001606E+02 -0.43506714148E+02  0.99761622009E+01  0.10803566896E+03  0.80562154968E+02 0.  0.
          5    1    3    3  501    0  0.19630494784E+02  0.77708060574E+02 -0.88075254705E+02  0.11917734472E+03  0.47000000000E+01 0. -1.
        -11    1    4    4    0    0  0.24980885965E+02 -0.10189235014E+02 -0.34117374616E+02  0.43495521889E+02  0.00000000000E+00 0.  1.
         12    1    4    4    0    0 -0.54895571887E+02 -0.32352586300E+02 -0.69724295408E+02  0.94454703552E+02  0.00000000000E+00 0. -1.
         -5    1    5    5    0  502  0.66756192745E+02  0.83404748888E+01  0.14820700688E+02  0.69048504401E+02  0.47000000000E+01 0.  1.
         11    1    6    6    0    0  0.10024241418E+02 -0.26936356202E+02 -0.18113140185E+02  0.33972614689E+02  0.00000000000E+00 0. -1.
        -12    1    6    6    0    0 -0.66496243024E+02 -0.16570357946E+02  0.28089302386E+02  0.74063054267E+02  0.00000000000E+00 0.  1.
</event>
<event>
12    1  0.8053217E-002  0.2303456E+03  0.7818608E-02  0.1126428E+00
         21   -1    0    0  503  502  0.00000000000E+00  0.00000000000E+00  0.98398888571E+03  0.98398888571E+03  0.00000000000E+00 0. -1.
         21   -1    0    0  501  503 -0.00000000000E+00 -0.00000000000E+00 -0.56079303379E+02  0.56079303379E+02  0.00000000000E+00 0. -1.
          6    2    1    2  501    0 -0.12876198700E+03  0.83590621478E+02  0.36115735816E+03  0.42836170885E+03  0.17173256813E+03 0.  0.
         24    2    3    3    0    0 -0.10053651088E+03 -0.11670036418E+02  0.22432401777E+03  0.25919692679E+03  0.81351104107E+02 0.  0.
         -6    2    1    2    0  502  0.12876198700E+03 -0.83590621478E+02  0.56675222417E+03  0.61170648024E+03  0.17149254525E+03 0.  0.
        -24    2    5    5    0    0  0.97665766637E+02 -0.12556158071E+03  0.42714462596E+03  0.46257262153E+03  0.78845330711E+02 0.  0.
          5    1    3    3  501    0 -0.28225476117E+02  0.95260657896E+02  0.13683334039E+03  0.16916478205E+03  0.47000000000E+01 0. -1.
        -11    1    4    4    0    0  0.23911366502E+01  0.71042446589E+01  0.83109132205E+02  0.83446483943E+02  0.00000000000E+00 0.  1.
         12    1    4    4    0    0 -0.10292764753E+03 -0.18774281077E+02  0.14121488557E+03  0.17575044285E+03  0.00000000000E+00 0. -1.
         -5    1    5    5    0  502  0.31096220359E+02  0.41970959228E+02  0.13960759820E+03  0.14913385871E+03  0.47000000000E+01 0.  1.
         11    1    6    6    0    0  0.10270655387E+03 -0.87160463605E+02  0.28475442316E+03  0.31500899055E+03  0.00000000000E+00 0. -1.
        -12    1    6    6    0    0 -0.50407872287E+01 -0.38401117101E+02  0.14239020281E+03  0.14756363097E+03  0.00000000000E+00 0.  1.
</event>
<event>
12    1  0.8053217E-002  0.1761588E+03  0.7818608E-02  0.1172644E+00
         21   -1    0    0  503  502  0.00000000000E+00  0.00000000000E+00  0.97601128537E+02  0.97601128537E+02  0.00000000000E+00 0. -1.
         21   -1    0    0  501  503 -0.00000000000E+00 -0.00000000000E+00 -0.43042851311E+03  0.43042851311E+03  0.00000000000E+00 0. -1.
          6    2    1    2  501    0  0.11520240253E+02  0.20628800138E+02 -0.30733139584E+03  0.35423793740E+03  0.17456708193E+03 0.  0.
         24    2    3    3    0    0  0.26121289712E+02 -0.50638793314E+02 -0.21706161573E+03  0.23820783905E+03  0.79878785649E+02 0.  0.
         -6    2    1    2    0  502 -0.11520240253E+02 -0.20628800138E+02 -0.25495988740E+02  0.17379170426E+03  0.17027990984E+03 0.  0.
        -24    2    5    5    0    0 -0.59059823772E+02  0.22590389862E+02 -0.34634755545E+02  0.10872621844E+03  0.81384493528E+02 0.  0.
          5    1    3    3  501    0 -0.14601049459E+02  0.71267593452E+02 -0.90269780109E+02  0.11603009835E+03  0.47000000000E+01 0. -1.
        -11    1    4    4    0    0  0.93347836481E+01  0.18589704805E+02 -0.20793283664E+02  0.29412173603E+02  0.00000000000E+00 0.  1.
         12    1    4    4    0    0  0.16786506064E+02 -0.69228498119E+02 -0.19626833206E+03  0.20879566544E+03  0.00000000000E+00 0. -1.
         -5    1    5    5    0  502  0.47539583519E+02 -0.43219190000E+02  0.91387668052E+01  0.65065485814E+02  0.47000000000E+01 0.  1.
         13    1    6    6    0    0  0.56330704524E+01 -0.23112647663E+02 -0.96368851083E+01  0.25667012278E+02  0.00000000000E+00 0. -1.
        -14    1    6    6    0    0 -0.64692894224E+02  0.45703037525E+02 -0.24997870437E+02  0.83059206163E+02  0.00000000000E+00 0.  1.
</event>
<event>
12    1  0.8053217E-002  0.3575111E+03  0.7818608E-02  0.1059822E+00
         21   -1    0    0  503  502  0.00000000000E+00  0.00000000000E+00  0.30042428655E+03  0.30042428655E+03  0.00000000000E+00 0.  1.
         21   -1    0    0  501  503 -0.00000000000E+00 -0.00000000000E+00 -0.68603697312E+03  0.68603697312E+03  0.00000000000E+00 0.  1.
          6    2    1    2  501    0  0.22124553781E+03  0.22317659821E+03 -0.49809342348E+03  0.61167317147E+03  0.16519572692E+03 0.  0.
         24    2    3    3    0    0  0.32543080549E+02  0.80521434119E+02 -0.16742083776E+03  0.20507070940E+03  0.80507797707E+02 0.  0.
         -6    2    1    2    0  502 -0.22124553781E+03 -0.22317659821E+03  0.11248073691E+03  0.37478808820E+03  0.17046059044E+03 0.  0.
        -24    2    5    5    0    0 -0.16463725853E+03 -0.23593028169E+03  0.99887347981E+02  0.31522436460E+03  0.81365797704E+02 0.  0.
          5    1    3    3  501    0  0.18870245726E+03  0.14265516409E+03 -0.33067258571E+03  0.40660246207E+03  0.47000000000E+01 0. -1.
        -13    1    4    4    0    0  0.38246325000E+02  0.44023000989E+02 -0.15578158384E+03  0.16633913507E+03  0.00000000000E+00 0.  1.
         14    1    4    4    0    0 -0.57032444510E+01  0.36498433130E+02 -0.11639253926E+02  0.38731574332E+02  0.00000000000E+00 0. -1.
         -5    1    5    5    0  502 -0.56608279276E+02  0.12753683475E+02  0.12593388927E+02  0.59563723603E+02  0.47000000000E+01 0.  1.
         11    1    6    6    0    0 -0.10108934977E+03 -0.80253416965E+02  0.60383984754E+02  0.14249874802E+03  0.00000000000E+00 0. -1.
        -12    1    6    6    0    0 -0.63547908765E+02 -0.15567686472E+03  0.39503363227E+02  0.17272561658E+03  0.00000000000E+00 0.  1.
</event>
<event>
12    1  0.8053217E-002  0.2350470E+03  0.7818608E-02  0.1123940E+00
         21   -1    0    0  501  502  0.00000000000E+00  0.00000000000E+00  0.11631886845E+04  0.11631886845E+04  0.00000000000E+00 0.  1.
         21   -1    0    0  502  503 -0.00000000000E+00 -0.00000000000E+00 -0.48140731547E+02  0.48140731547E+02  0.00000000000E+00 0. -1.
         -6    2    1    2    0  503  0.15264976904E+03  0.18559995324E+02  0.45325946811E+03  0.51057929706E+03  0.17776571027E+03 0.  0.
        -24    2    3    3    0    0  0.24792295900E+02  0.16040707049E+02  0.29595563558E+03  0.30779747840E+03  0.79231226569E+02 0.  0.
          6    2    1    2  501    0 -0.15264976904E+03 -0.18559995324E+02  0.66178848481E+03  0.70075011894E+03  0.17158177398E+03 0.  0.
         24    2    5    5    0    0 -0.15784671640E+03 -0.23427875572E+02  0.39885477149E+03  0.43767801454E+03  0.83740458761E+02 0.  0.
          5    1    5    5  501    0  0.51969473630E+01  0.48678802486E+01  0.26293371331E+03  0.26307210441E+03  0.47000000000E+01 0. -1.
        -13    1    6    6    0    0 -0.60840249151E+02 -0.46564484912E+02  0.12965488064E+03  0.15059938660E+03  0.00000000000E+00 0.  1.
         14    1    6    6    0    0 -0.97006467250E+02  0.23136609339E+02  0.26919989085E+03  0.28707862793E+03  0.00000000000E+00 0. -1.
         -5    1    3    3    0  503  0.12785747314E+03  0.25192882748E+01  0.15730383253E+03  0.20278181866E+03  0.47000000000E+01 0.  1.
         11    1    4    4    0    0  0.47020230706E+02  0.78931078643E+01  0.10424723126E+03  0.11463284203E+03  0.00000000000E+00 0. -1.
        -12    1    4    4    0    0 -0.22227934807E+02  0.81475991845E+01  0.19170840432E+03  0.19316463637E+03  0.00000000000E+00 0.  1.
</event>
<event>
12    1  0.8053217E-002  0.1913410E+03  0.7818608E-02  0.1158026E+00
         21   -1    0    0  503  502  0.00000000000E+00  0.00000000000E+00  0.27226562112E+03  0.27226562112E+03  0.00000000000E+00 0. -1.
         21   -1    0    0  501  503 -0.00000000000E+00 -0.00000000000E+00 -0.25042250108E+03  0.25042250108E+03  0.00000000000E+00 0. -1.
          6    2    1    2  501    0  0.57241139159E+02  0.61806494049E+02 -0.16867718003E+03  0.25507522399E+03  0.17179868484E+03 0.  0.
         24    2    3    3    0    0  0.87811388765E+02  0.82305061520E+02 -0.95368580920E+02  0.17291092436E+03  0.79486215090E+02 0.  0.
         -6    2    1    2    0  502 -0.57241139159E+02 -0.61806494049E+02  0.19052030008E+03  0.26761289821E+03  0.16799430891E+03 0.  0.
        -24    2    5    5    0    0  0.34137173361E+01 -0.63104312362E+02  0.18064483132E+03  0.20596623705E+03  0.76129678945E+02 0.  0.
          5    1    3    3  501    0 -0.30570249606E+02 -0.20498567471E+02 -0.73308599112E+02  0.82164299626E+02  0.47000000000E+01 0. -1.
        -11    1    4    4    0    0  0.39838459185E+01 -0.11850805648E+02  0.31767475531E+01  0.12899780922E+02  0.00000000000E+00 0.  1.
         12    1    4    4    0    0  0.83827542846E+02  0.94155867168E+02 -0.98545328474E+02  0.16001114344E+03  0.00000000000E+00 0. -1.
         -5    1    5    5    0  502 -0.60654856495E+02  0.12978183128E+01  0.98754687578E+01  0.61646661158E+02  0.47000000000E+01 0.  1.
         11    1    6    6    0    0  0.23952823839E+02  0.71296787755E+01  0.57916943072E+02  0.63078858456E+02  0.00000000000E+00 0. -1.
        -12    1    6    6    0    0 -0.20539106502E+02 -0.70233991138E+02  0.12272788825E+03  0.14288737859E+03  0.00000000000E+00 0.  1.
</event>
<event>
12    1  0.8053217E-002  0.1724403E+03  0.7818608E-02  0.1175494E+00
         21   -1    0    0  503  502  0.00000000000E+00  0.00000000000E+00  0.35579100049E+02  0.35579100049E+02  0.00000000000E+00 0.  1.
         21   -1    0    0  501  503 -0.00000000000E+00 -0.00000000000E+00 -0.13722538699E+04  0.13722538699E+04  0.00000000000E+00 0.  1.
          6    2    1    2  501    0 -0.92611534889E+00 -0.90786159528E+01 -0.11089963114E+04  0.11222228392E+04  0.17154592180E+03 0.  0.
         24    2    3    3    0    0 -0.56164574126E+02 -0.30711027872E+02 -0.80465801679E+03  0.81212102349E+03  0.89265929611E+02 0.  0.
         -6    2    1    2    0  502  0.92611534889E+00  0.90786159528E+01 -0.22767845844E+03  0.28561013068E+03  0.17219868569E+03 0.  0.
        -24    2    5    5    0    0 -0.45932365058E+02  0.54424051092E+02 -0.15845063135E+03  0.19039191962E+03  0.77914831615E+02 0.  0.
          5    1    3    3  501    0  0.55238458777E+02  0.21632411919E+02 -0.30433829458E+03  0.31010181573E+03  0.47000000000E+01 0. -1.
        -13    1    4    4    0    0 -0.55981586903E+02  0.19027105612E+02 -0.38247803508E+03  0.38702120890E+03  0.00000000000E+00 0.  1.
         14    1    4    4    0    0 -0.18298722280E+00 -0.49738133484E+02 -0.42217998171E+03  0.42509981459E+03  0.00000000000E+00 0. -1.
         -5    1    5    5    0  502  0.46858480407E+02 -0.45345435139E+02 -0.69227827090E+02  0.95218211060E+02  0.47000000000E+01 0.  1.
         13    1    6    6    0    0 -0.65484738918E+02  0.50133976479E+02 -0.10636837449E+03  0.13459531092E+03  0.00000000000E+00 0. -1.
        -14    1    6    6    0    0  0.19552373860E+02  0.42900746128E+01 -0.52082256856E+02  0.55796608705E+02  0.00000000000E+00 0.  1.
</event>
<event>
12    1  0.8053217E-002  0.2165982E+03  0.7818608E-02  0.1136812E+00
         21   -1    0    0  501  502  0.00000000000E+00  0.00000000000E+00  0.24363192477E+04  0.24363192477E+04  0.00000000000E+00 0. -1.
         21   -1    0    0  502  503 -0.00000000000E+00 -0.00000000000E+00 -0.45787626322E+02  0.45787626322E+02  0.00000000000E+00 0. -1.
         -6    2    1    2    0  503  0.68942732287E+01 -0.12733876464E+03  0.24531362859E+03  0.32598186940E+03  0.17269253261E+03 0.  0.
        -24    2    3    3    0    0  0.64730210446E+02 -0.40235988278E+02  0.12354907309E+03  0.16541852906E+03  0.79309402965E+02 0.  0.
          6    2    1    2  501    0 -0.68942732287E+01  0.12733876464E+03  0.21452179928E+04  0.21561250047E+04  0.17507743147E+03 0.  0.
         24    2    5    5    0    0 -0.56729844913E+02  0.62321214969E+02  0.16527197910E+04  0.16568380783E+04  0.80792952806E+02 0.  0.
          5    1    5    5  501    0  0.49835571684E+02  0.65017549668E+02  0.49249820188E+03  0.49928692635E+03  0.47000000000E+01 0. -1.
        -13    1    6    6    0    0 -0.31199997558E+02  0.33912034546E+02  0.14386325641E+04  0.14393703903E+04  0.00000000000E+00 0.  1.
         14    1    6    6    0    0 -0.25529847355E+02  0.28409180423E+02  0.21408722684E+03  0.21746768802E+03  0.00000000000E+00 0. -1.
         -5    1    3    3    0  503 -0.57835937217E+02 -0.87102776359E+02  0.12176455551E+03  0.16056334034E+03  0.47000000000E+01 0.  1.
         13    1    4    4    0    0  0.20693972557E+02 -0.22834752628E+02 -0.23537293446E+01  0.30906414700E+02  0.00000000000E+00 0. -1.
        -14    1    4    4    0    0  0.44036237889E+02 -0.17401235650E+02  0.12590280243E+03  0.13451211436E+03  0.00000000000E+00 0.  1.
</event>
<event>
12    1  0.8053217E-002  0.1991606E+03  0.7818608E-02  0.1150635E+00
         21   -1    0    0  503  502  0.00000000000E+00  0.00000000000E+00  0.14100337008E+03  0.14100337008E+03  0.00000000000E+00 0. -1.
         21   -1    0    0  501  503 -0.00000000000E+00 -0.00000000000E+00 -0.30436868340E+03  0.30436868340E+03  0.00000000000E+00 0. -1.
          6    2    1    2  501    0 -0.50008463567E+01  0.99437844387E+02 -0.14443441991E+03  0.24531378345E+03  0.17147786252E+03 0.  0.
         24    2    3    3    0    0  0.51930126100E+02  0.81966761855E+02 -0.13551108428E+03  0.18491436070E+03  0.80092314130E+02 0.  0.
         -6    2    1    2    0  502  0.50008463567E+01 -0.99437844387E+02 -0.18930893407E+02  0.20005827003E+03  0.17248779470E+03 0.  0.
        -24    2    5    5    0    0  0.78739773416E+01 -0.10957229453E+03  0.46436211324E+02  0.13368123829E+03  0.60384306741E+02 0.  0.
          5    1    3    3  501    0 -0.56930972457E+02  0.17471082532E+02 -0.89233356225E+01  0.60399422749E+02  0.47000000000E+01 0. -1.
        -11    1    4    4    0    0  0.61570879631E+02  0.54763893887E+02 -0.54189448102E+02  0.98623291254E+02  0.00000000000E+00 0.  1.
         12    1    4    4    0    0 -0.96407535311E+01  0.27202867967E+02 -0.81321636182E+02  0.86291069443E+02  0.00000000000E+00 0. -1.
         -5    1    5    5    0  502 -0.28731309850E+01  0.10134450148E+02 -0.65367104732E+02  0.66377031739E+02  0.47000000000E+01 0.  1.
         13    1    6    6    0    0 -0.17832144915E+01 -0.17947393728E+02  0.36880799114E+02  0.41054623843E+02  0.00000000000E+00 0. -1.
        -14    1    6    6    0    0  0.96571918331E+01 -0.91624900807E+02  0.95554122098E+01  0.92626614450E+02  0.00000000000E+00 0.  1.
</event>
<event>
12    1  0.8053217E-002  0.2129163E+03  0.7818608E-02  0.1139474E+00
         21   -1    0    0  503  502  0.00000000000E+00  0.00000000000E+00  0.92732874281E+03  0.92732874281E+03  0.00000000000E+00 0.  1.
         21   -1    0    0  501  503 -0.00000000000E+00 -0.00000000000E+00 -0.62813463072E+02  0.62813463072E+02  0.00000000000E+00 0. -1.
          6    2    1    2  501    0  0.11688131291E+03  0.37507057897E+02  0.19641892487E+03  0.28893888864E+03  0.17273467116E+03 0.  0.
         24    2    3    3    0    0  0.14329469604E+03  0.62998089540E+02  0.16067467955E+03  0.23748793552E+03  0.77987419949E+02 0.  0.
         -6    2    1    2    0  502 -0.11688131291E+03 -0.37507057897E+02  0.66809635487E+03  0.70120331724E+03  0.17396934220E+03 0.  0.
        -24    2    5    5    0    0 -0.16030442231E+02  0.19020162643E+01  0.45374107342E+03  0.46100704348E+03  0.79912074750E+02 0.  0.
          5    1    3    3  501    0 -0.26413383134E+02 -0.25491031643E+02  0.35744245324E+02  0.51450953117E+02  0.47000000000E+01 0. -1.
        -11    1    4    4    0    0  0.81388758598E+02  0.62640287083E+02  0.13696975445E+03  0.17119769048E+03  0.00000000000E+00 0.  1.
         12    1    4    4    0    0  0.61905937446E+02  0.35780245749E+00  0.23704925098E+02  0.66290245041E+02  0.00000000000E+00 0. -1.
         -5    1    5    5    0  502 -0.10085087068E+03 -0.39409074162E+02  0.21435528145E+03  0.24019627376E+03  0.47000000000E+01 0.  1.
         11    1    6    6    0    0 -0.30919995512E+02  0.30545207007E+02  0.17133279267E+03  0.17675967198E+03  0.00000000000E+00 0. -1.
        -12    1    6    6    0    0  0.14889553281E+02 -0.28643190743E+02  0.28240828075E+03  0.28424737151E+03  0.00000000000E+00 0.  1.
</event>
<event>
12    1  0.8053217E-002  0.1860785E+03  0.7818608E-02  0.1162559E+00
         21   -1    0    0  503  502  0.00000000000E+00  0.00000000000E+00  0.85581260291E+02  0.85581260291E+02  0.00000000000E+00 0. -1.
         21   -1    0    0  501  503 -0.00000000000E+00 -0.00000000000E+00 -0.57967378988E+03  0.57967378988E+03  0.00000000000E+00 0. -1.
          6    2    1    2  501    0 -0.59618970783E+02  0.23938656473E+02 -0.43333561057E+03  0.47159829838E+03  0.17463597197E+03 0.  0.
         24    2    3    3    0    0 -0.19578946607E+02  0.75408016415E+02 -0.19897047644E+03  0.22828491067E+03  0.80343299994E+02 0.  0.
         -6    2    1    2    0  502  0.59618970783E+02 -0.23938656473E+02 -0.60756919021E+02  0.19365675178E+03  0.17229060727E+03 0.  0.
        -24    2    5    5    0    0 -0.18428669264E+02 -0.41577480991E+02 -0.10822853602E+02  0.99221254556E+02  0.87518114807E+02 0.  0.
          5    1    3    3  501    0 -0.40040024176E+02 -0.51469359942E+02 -0.23436513412E+03  0.24331338771E+03  0.47000000000E+01 0. -1.
        -11    1    4    4    0    0 -0.11313816713E+02  0.38486649923E+02 -0.19012392118E+02  0.44392518795E+02  0.00000000000E+00 0.  1.
         12    1    4    4    0    0 -0.82651298947E+01  0.36921366492E+02 -0.17995808433E+03  0.18389239188E+03  0.00000000000E+00 0. -1.
         -5    1    5    5    0  502  0.78047640048E+02  0.17638824518E+02 -0.49934065420E+02  0.94435497228E+02  0.47000000000E+01 0.  1.
         11    1    6    6    0    0  0.34672342297E+02 -0.77838192695E+01 -0.12684400727E+01  0.35557954145E+02  0.00000000000E+00 0. -1.
        -12    1    6    6    0    0 -0.53101011561E+02 -0.33793661721E+02 -0.95544135291E+01  0.63663300411E+02  0.00000000000E+00 0.  1.
</event>
<event>
12    1  0.8053217E-002  0.2055638E+03  0.7818608E-02  0.1145795E+00
         21   -1    0    0  501  502  0.00000000000E+00  0.00000000000E+00  0.47600121819E+03  0.47600121819E+03  0.00000000000E+00 0. -1.
         21   -1    0    0  502  503 -0.00000000000E+00 -0.00000000000E+00 -0.11423242537E+03  0.11423242537E+03  0.00000000000E+00 0. -1.
         -6    2    1    2    0  503 -0.88244544900E+02 -0.55590899464E+02  0.36690091254E+02  0.20561350237E+03  0.17335888138E+03 0.  0.
        -24    2    3    3    0    0  0.18268165303E+02 -0.97413194472E+01 -0.73686740289E+01  0.81474845135E+02  0.78455298513E+02 0.  0.
          6    2    1    2  501    0  0.88244544900E+02  0.55590899464E+02  0.32507870157E+03  0.38462014118E+03  0.17714130795E+03 0.  0.
         24    2    5    5    0    0  0.31554606860E+02  0.34026244868E+02  0.91537499987E+02  0.14328558867E+03  0.99990836889E+02 0.  0.
          5    1    5    5  501    0  0.56689938040E+02  0.21564654596E+02  0.23354120158E+03  0.24133455252E+03  0.47000000000E+01 0. -1.
        -13    1    6    6    0    0  0.61786326626E+02  0.61769710360E+01  0.78652431803E+02  0.10020933169E+03  0.00000000000E+00 0.  1.
         14    1    6    6    0    0 -0.30231719766E+02  0.27849273832E+02  0.12885068184E+02  0.43076256977E+02  0.00000000000E+00 0. -1.
         -5    1    3    3    0  503 -0.10651271020E+03 -0.45849580017E+02  0.44058765283E+02  0.12413865724E+03  0.47000000000E+01 0.  1.
         11    1    4    4    0    0 -0.80133941665E+01 -0.37017212870E+02 -0.18282674267E+02  0.42056446749E+02  0.00000000000E+00 0. -1.
        -12    1    4    4    0    0  0.26281559469E+02  0.27275893423E+02  0.10914000238E+02  0.39418398387E+02  0.00000000000E+00 0.  1.
</event>
<event>
12    1  0.8053217E-002  0.1724141E+03  0.7818608E-02  0.1175617E+00
         21   -1    0    0  501  502  0.00000000000E+00  0.00000000000E+00  0.25288596767E+03  0.25288596767E+03  0.00000000000E+00 0. -1.
         21   -1    0    0  502  503 -0.00000000000E+00 -0.00000000000E+00 -0.11977241696E+03  0.11977241696E+03  0.00000000000E+00 0. -1.
         -6    2    1    2    0  503 -0.11119288637E+02  0.22751787555E+01  0.95855652339E+02  0.19726867044E+03  0.17204013262E+03 0.  0.
        -24    2    3    3    0    0 -0.11289945700E+02 -0.59353476293E+02  0.26063556053E+02  0.10404234931E+03  0.80592825200E+02 0.  0.
          6    2    1    2  501    0  0.11119288637E+02 -0.22751787555E+01  0.37257898378E+02  0.17538971419E+03  0.17101048458E+03 0.  0.
         24    2    5    5    0    0 -0.18023141199E+01  0.25158215625E+02  0.84766427211E+02  0.11883258151E+03  0.79370341424E+02 0.  0.
          5    1    5    5  501    0  0.12921602757E+02 -0.27433394380E+02 -0.47508528833E+02  0.56557132679E+02  0.47000000000E+01 0. -1.
        -11    1    6    6    0    0  0.17045880909E+02 -0.15418885045E+02  0.66756738109E+02  0.70602876393E+02  0.00000000000E+00 0.  1.
         12    1    6    6    0    0 -0.18848195029E+02  0.40577100670E+02  0.18009689102E+02  0.48229705122E+02  0.00000000000E+00 0. -1.
         -5    1    3    3    0  503  0.17065706290E+00  0.61628655049E+02  0.69792096286E+02  0.93226321127E+02  0.47000000000E+01 0.  1.
         11    1    4    4    0    0 -0.46845044007E+01 -0.57434434480E+02  0.51749653942E+02  0.77451181584E+02  0.00000000000E+00 0. -1.
        -12    1    4    4    0    0 -0.66054412992E+01 -0.19190418133E+01 -0.25686097889E+02  0.26591167726E+02  0.00000000000E+00 0.  1.
</event>
<event>
12    1  0.8053217E-002  0.2764416E+03  0.7818608E-02  0.1098098E+00
         21   -1    0    0  501  502  0.00000000000E+00  0.00000000000E+00  0.38417633341E+02  0.38417633341E+02  0.00000000000E+00 0.  1.
         21   -1    0    0  502  503 -0.00000000000E+00 -0.00000000000E+00 -0.19691143232E+04  0.19691143232E+04  0.00000000000E+00 0.  1.
         -6    2    1    2    0  503 -0.12198492652E+02 -0.21233870389E+03 -0.92057454478E+03  0.96026565660E+03  0.17151125431E+03 0.  0.
        -24    2    3    3    0    0  0.24070716594E+02 -0.76005090678E+02 -0.23558837003E+03  0.26088703294E+03  0.78765415366E+02 0.  0.
          6    2    1    2  501    0  0.12198492652E+02  0.21233870389E+03 -0.10101221450E+04  0.10472662999E+04  0.17658829694E+03 0.  0.
         24    2    5    5    0    0  0.54387077483E+02  0.15371825153E+03 -0.87823990891E+03  0.89682944161E+03  0.80065315152E+02 0.  0.
          5    1    5    5  501    0 -0.42188584832E+02  0.58620452355E+02 -0.13188223612E+03  0.15043685828E+03  0.47000000000E+01 0. -1.
        -13    1    6    6    0    0 -0.11688534853E+02  0.83129768823E+02 -0.36123809755E+03  0.37086404980E+03  0.00000000000E+00 0.  1.
         14    1    6    6    0    0  0.66075612337E+02  0.70588482710E+02 -0.51700181136E+03  0.52596539181E+03  0.00000000000E+00 0. -1.
         -5    1    3    3    0  503 -0.36269209246E+02 -0.13633361321E+03 -0.68498617475E+03  0.69937862366E+03  0.47000000000E+01 0.  1.
         11    1    4    4    0    0 -0.19033394190E+02 -0.46154045282E+02 -0.16850127016E+03  0.17574169692E+03  0.00000000000E+00 0. -1.
        -12    1    4    4    0    0  0.43104110784E+02 -0.29851045397E+02 -0.67087099873E+02  0.85145336027E+02  0.00000000000E+00 0.  1.
</event>
<event>
12    1  0.8053217E-002  0.2636572E+03  0.7818608E-02  0.1105278E+00
         21   -1    0    0  503  502  0.00000000000E+00  0.00000000000E+00  0.17584091297E+04  0.17584091297E+04  0.00000000000E+00 0. -1.
         21   -1    0    0  501  503 -0.00000000000E+00 -0.00000000000E+00 -0.39218168471E+02  0.39218168471E+02  0.00000000000E+00 0. -1.
          6    2    1    2  501    0  0.64234987928E+02 -0.18556740030E+03  0.85303063167E+03  0.89222748199E+03  0.17276350110E+03 0.  0.
         24    2    3    3    0    0  0.44139031922E+02 -0.18562539862E+03  0.54711640175E+03  0.58561786556E+03  0.84893372281E+02 0.  0.
         -6    2    1    2    0  502 -0.64234987928E+02  0.18556740030E+03  0.86616032957E+03  0.90539981620E+03  0.17593668442E+03 0.  0.
        -24    2    5    5    0    0 -0.29755751908E+02  0.12922290581E+03  0.78842910699E+03  0.80328344758E+03  0.77845207016E+02 0.  0.
          5    1    3    3  501    0  0.20095956006E+02  0.57998315749E-01  0.30591422993E+03  0.30660961642E+03  0.47000000000E+01 0. -1.
        -13    1    4    4    0    0 -0.86341594412E+01 -0.19356452456E+01  0.86131042985E+02  0.86584363469E+02  0.00000000000E+00 0.  1.
         14    1    4    4    0    0  0.52773191363E+02 -0.18368975337E+03  0.46098535876E+03  0.49903350210E+03  0.00000000000E+00 0. -1.
         -5    1    5    5    0  502 -0.34479236019E+02  0.56344494485E+02  0.77731222584E+02  0.10211636862E+03  0.47000000000E+01 0.  1.
         13    1    6    6    0    0 -0.27838551487E+02  0.11998797266E+03  0.50887605198E+03  0.52357132734E+03  0.00000000000E+00 0. -1.
        -14    1    6    6    0    0 -0.19172004218E+01  0.92349331595E+01  0.27955305501E+03  0.27971212024E+03  0.00000000000E+00 0.  1.
</event>
<event>
12    1  0.8053217E-002  0.2103884E+03  0.7818608E-02  0.1141395E+00
         21   -1    0    0  501  502  0.00000000000E+00  0.00000000000E+00  0.69729226865E+03  0.69729226865E+03  0.00000000000E+00 0. -1.
         21   -1    0    0  502  503 -0.00000000000E+00 -0.00000000000E+00 -0.12184426055E+03  0.12184426055E+03  0.00000000000E+00 0.  1.
         -6    2    1    2    0  503 -0.43415544188E+01  0.12103992855E+03  0.39995502043E+01  0.21042644131E+03  0.17202842033E+03 0.  0.
        -24    2    3    3    0    0 -0.17615285782E+02  0.11340107583E+03 -0.52845152395E+02  0.15136753657E+03  0.83363173534E+02 0.  0.
          6    2    1    2  501    0  0.43415544188E+01 -0.12103992855E+03  0.57144845790E+03  0.60871008789E+03  0.17118737591E+03 0.  0.
         24    2    5    5    0    0  0.59321635381E+02 -0.11351371477E+03  0.35615920996E+03  0.38633427204E+03  0.77462036207E+02 0.  0.
          5    1    5    5  501    0 -0.54980080962E+02 -0.75262137845E+01  0.21528924794E+03  0.22237581585E+03  0.47000000000E+01 0. -1.
        -13    1    6    6    0    0  0.33027826891E+00 -0.74962420756E+02  0.13759953962E+03  0.15669431040E+03  0.00000000000E+00 0.  1.
         14    1    6    6    0    0  0.58991357112E+02 -0.38551294013E+02  0.21855967034E+03  0.22963996164E+03  0.00000000000E+00 0. -1.
         -5    1    3    3    0  503  0.13273731363E+02  0.76388527195E+01  0.56844702600E+02  0.59058904738E+02  0.47000000000E+01 0.  1.
         11    1    4    4    0    0  0.23080608818E+02  0.38999835989E+02  0.92604036235E+01  0.46254262354E+02  0.00000000000E+00 0. -1.
        -12    1    4    4    0    0 -0.40695894600E+02  0.74401239845E+02 -0.62105556019E+02  0.10511327421E+03  0.00000000000E+00 0.  1.
</event>
<event>
12    1  0.8053217E-002  0.1909764E+03  0.7818608E-02  0.1158638E+00
         21   -1    0    0  503  502  0.00000000000E+00  0.00000000000E+00  0.25205265840E+02  0.25205265840E+02  0.00000000000E+00 0.  1.
         21   -1    0    0  501  503 -0.00000000000E+00 -0.00000000000E+00 -0.14120932879E+04  0.14120932879E+04  0.00000000000E+00 0.  1.
          6    2    1    2  501    0 -0.68909230048E+02 -0.25994355944E+02 -0.70703143561E+03  0.73236973899E+03  0.17620384535E+03 0.  0.
         24    2    3    3    0    0 -0.60423698282E+02 -0.16570456821E+02 -0.71154284590E+03  0.71811291793E+03  0.73941449704E+02 0.  0.
         -6    2    1    2    0  502  0.68909230048E+02  0.25994355944E+02 -0.67985658648E+03  0.70492881478E+03  0.17115918673E+03 0.  0.
        -24    2    5    5    0    0  0.63112885588E+02  0.76433903642E+02 -0.38471344041E+03  0.40541368620E+03  0.80811185909E+02 0.  0.
          5    1    3    3  501    0 -0.84855317665E+01 -0.94238991232E+01  0.45114102901E+01  0.14256821064E+02  0.47000000000E+01 0. -1.
        -13    1    4    4    0    0 -0.40551862425E+02 -0.20398519606E+02 -0.16316139306E+03  0.16935818060E+03  0.00000000000E+00 0.  1.
         14    1    4    4    0    0 -0.19871835857E+02  0.38280627853E+01 -0.54838145284E+03  0.54875473733E+03  0.00000000000E+00 0. -1.
         -5    1    5    5    0  502  0.57963444601E+01 -0.50439547698E+02 -0.29514314607E+03  0.29951512858E+03  0.47000000000E+01 0.  1.
         13    1    6    6    0    0 -0.27895029997E+01  0.65647397450E+01  0.16248778928E+01  0.73155562380E+01  0.00000000000E+00 0. -1.
        -14    1    6    6    0    0  0.65902388588E+02  0.69869163897E+02 -0.38633831831E+03  0.39809812996E+03  0.00000000000E+00 0.  1.
</event>
<event>
12    1  0.8053217E-002  0.1749206E+03  0.7818608E-02  0.1173040E+00
         21   -1    0    0  503  502  0.00000000000E+00  0.00000000000E+00  0.13908965598E+03  0.13908965598E+03  0.00000000000E+00 0. -1.
         21   -1    0    0  501  503 -0.00000000000E+00 -0.00000000000E+00 -0.60813982806E+03  0.60813982806E+03  0.00000000000E+00 0. -1.
          6    2    1    2  501    0 -0.94192933778E+01 -0.31754113822E+02 -0.53323110555E+03  0.56090610001E+03  0.17083089377E+03 0.  0.
         24    2    3    3    0    0  0.44187717811E+02 -0.62101320713E+02 -0.38733667111E+03  0.40247018042E+03  0.78379977681E+02 0.  0.
         -6    2    1    2    0  502  0.94192933778E+01  0.31754113822E+02  0.64180933481E+02  0.18632338403E+03  0.17175611890E+03 0.  0.
        -24    2    5    5    0    0  0.56935286983E+02  0.60825164231E+02  0.45887086551E+02  0.12750459064E+03  0.84914477062E+02 0.  0.
          5    1    3    3  501    0 -0.53607011189E+02  0.30347206890E+02 -0.14589443444E+03  0.15843591959E+03  0.47000000000E+01 0. -1.
        -11    1    4    4    0    0  0.82845363861E+01 -0.13507778727E+01 -0.22860989845E+03  0.22876394780E+03  0.00000000000E+00 0.  1.
         12    1    4    4    0    0  0.35903181425E+02 -0.60750542840E+02 -0.15872677266E+03  0.17370623262E+03  0.00000000000E+00 0. -1.
         -5    1    5    5    0  502 -0.47515993605E+02 -0.29071050409E+02  0.18293846930E+02  0.58818793388E+02  0.47000000000E+01 0.  1.
         11    1    6    6    0    0  0.58652103861E+02  0.11400587537E+02 -0.42453628975E+00  0.59751342366E+02  0.00000000000E+00 0. -1.
        -12    1    6    6    0    0 -0.17168168784E+01  0.49424576694E+02  0.46311622840E+02  0.67753248274E+02  0.00000000000E+00 0.  1.
</event>
<event>
12    1  0.8053217E-002  0.5267623E+03  0.7818608E-02  0.1007251E+00
         21   -1    0    0  501  502  0.00000000000E+00  0.00000000000E+00  0.26851030687E+03  0.26851030687E+03  0.00000000000E+00 0. -1.
         21   -1    0    0  502  503 -0.00000000000E+00 -0.00000000000E+00 -0.17035223972E+04  0.17035223972E+04  0.00000000000E+00 0. -1.
         -6    2    1    2    0  503  0.19529755254E+02 -0.49370888717E+03 -0.13377682201E+04  0.14363696211E+04  0.17147594956E+03 0.  0.
        -24    2    3    3    0    0 -0.10118771251E+02 -0.48563329613E+03 -0.12346674686E+04  0.13286844075E+04  0.71108429341E+02 0.  0.
          6    2    1    2  501    0 -0.19529755254E+02  0.49370888717E+03 -0.97243870298E+02  0.53566308297E+03  0.18261624115E+03 0.  0.
         24    2    5    5    0    0 -0.30372026821E+02  0.11646558663E+03 -0.44163607772E+02  0.15452050213E+03  0.86252353275E+02 0.  0.
          5    1    5    5  501    0  0.10842271567E+02  0.37724330054E+03 -0.53080262525E+02  0.38114258084E+03  0.47000000000E+01 0. -1.
        -13    1    6    6    0    0 -0.51644891460E+02  0.92849653590E+02 -0.56609302304E+02  0.12038632021E+03  0.00000000000E+00 0.  1.
         14    1    6    6    0    0  0.21272864639E+02  0.23615933039E+02  0.12445694532E+02  0.34134181924E+02  0.00000000000E+00 0. -1.
         -5    1    3    3    0  503  0.29648526505E+02 -0.80755910449E+01 -0.10310075142E+03  0.10768521365E+03  0.47000000000E+01 0.  1.
         13    1    4    4    0    0  0.25551218483E+02 -0.92139341130E+02 -0.22614423210E+03  0.24552746620E+03  0.00000000000E+00 0. -1.
        -14    1    4    4    0    0 -0.35669989734E+02 -0.39349395500E+03 -0.10085232365E+04  0.10831569413E+04  0.00000000000E+00 0.  1.
</event>
<event>
12    1  0.8053217E-002  0.2454698E+03  0.7818608E-02  0.1116254E+00
         21   -1    0    0  503  502  0.00000000000E+00  0.00000000000E+00  0.44547465271E+03  0.44547465271E+03  0.00000000000E+00 0.  1.
         21   -1    0    0  501  503 -0.00000000000E+00 -0.00000000000E+00 -0.22603480745E+03  0.22603480745E+03  0.00000000000E+00 0. -1.
          6    2    1    2  501    0 -0.54209605847E+02 -0.16643079931E+03 -0.10321772485E+03  0.26628804763E+03  0.17209745280E+03 0.  0.
         24    2    3    3    0    0 -0.88434743819E+02 -0.13871123545E+03 -0.11999130352E+03  0.21892585562E+03  0.80430756464E+02 0.  0.
         -6    2    1    2    0  502  0.54209605847E+02  0.16643079931E+03  0.32265757011E+03  0.40522141254E+03  0.17163505850E+03 0.  0.
        -24    2    5    5    0    0  0.76316302397E+02  0.73534748438E+02  0.10927600194E+03  0.17140061377E+03  0.78774288718E+02 0.  0.
          5    1    3    3  501    0  0.34225137972E+02 -0.27719563862E+02  0.16773578672E+02  0.47362192004E+02  0.47000000000E+01 0. -1.
        -11    1    4    4    0    0  0.66873239831E+01 -0.37065919630E+02 -0.42861116281E+01  0.37907432687E+02  0.00000000000E+00 0.  1.
         12    1    4    4    0    0 -0.95122067802E+02 -0.10164531582E+03 -0.11570519189E+03  0.18101842293E+03  0.00000000000E+00 0. -1.
         -5    1    5    5    0  502 -0.22106696550E+02  0.92896050872E+02  0.21338156818E+03  0.23382079877E+03  0.47000000000E+01 0.  1.
         11    1    6    6    0    0  0.69991187003E+02  0.89094810221E+02  0.10400207491E+03  0.15379558853E+03  0.00000000000E+00 0. -1.
        -12    1    6    6    0    0  0.63251153946E+01 -0.15560061784E+02  0.52739270286E+01  0.17605025242E+02  0.00000000000E+00 0.  1.
</event>
<event>
12    1  0.8053217E-002  0.1925983E+03  0.7818608E-02  0.1156636E+00
         21   -1    0    0  501  502  0.00000000000E+00  0.00000000000E+00  0.15735322959E+03  0.15735322959E+03  0.00000000000E+00 0. -1.
         21   -1    0    0  502  503 -0.00000000000E+00 -0.00000000000E+00 -0.12847496745E+04  0.12847496745E+04  0.00000000000E+00 0. -1.
         -6    2    1    2    0  503 -0.13704271813E+01 -0.83193002768E+02 -0.12166874491E+04  0.12318370252E+04  0.17369845761E+03 0.  0.
        -24    2    3    3    0    0 -0.64008697498E+02 -0.76760913902E+02 -0.93244512210E+03  0.94066574380E+03  0.73544439470E+02 0.  0.
          6    2    1    2  501    0  0.13704271813E+01  0.83193002768E+02  0.89291004160E+02  0.21026587887E+03  0.17121887342E+03 0.  0.
         24    2    5    5    0    0  0.47310946746E+02  0.81516298179E+02  0.17810264225E+02  0.12514873102E+03  0.80385115629E+02 0.  0.
          5    1    5    5  501    0 -0.45940519565E+02  0.16767045898E+01  0.71480739934E+02  0.85117147847E+02  0.47000000000E+01 0. -1.
        -13    1    6    6    0    0  0.36363587076E+01  0.35857812457E+02 -0.29207565736E+02  0.46390599426E+02  0.00000000000E+00 0.  1.
         14    1    6    6    0    0  0.43674588038E+02  0.45658485722E+02  0.47017829962E+02  0.78758131599E+02  0.00000000000E+00 0. -1.
         -5    1    3    3    0  503  0.62638270316E+02 -0.64320888667E+01 -0.28424232696E+03  0.29117128139E+03  0.47000000000E+01 0.  1.
         11    1    4    4    0    0 -0.25982168855E+02 -0.14382151305E+02 -0.57839789305E+03  0.57915977248E+03  0.00000000000E+00 0. -1.
        -12    1    4    4    0    0 -0.38026528643E+02 -0.62378762597E+02 -0.35404722905E+03  0.36150597132E+03  0.00000000000E+00 0.  1.
</event>
<event>
12    1  0.8053217E-002  0.1993997E+03  0.7818608E-02  0.1153816E+00
         21   -1    0    0  501  502  0.00000000000E+00  0.00000000000E+00  0.28903247424E+03  0.28903247424E+03  0.00000000000E+00 0. -1.
         21   -1    0    0  502  503 -0.00000000000E+00 -0.00000000000E+00 -0.39459261875E+03  0.39459261875E+03  0.00000000000E+00 0. -1.
         -6    2    1    2    0  503  0.10911090730E+02  0.79776690764E+02 -0.33506912319E+03  0.38991222615E+03  0.18241944661E+03 0.  0.
        -24    2    3    3    0    0  0.67547071035E+02  0.88840616356E+01 -0.21798906251E+03  0.24171226078E+03  0.79145766018E+02 0.  0.
          6    2    1    2  501    0 -0.10911090730E+02 -0.79776690764E+02  0.22950897868E+03  0.29371286683E+03  0.16464964184E+03 0.  0.
         24    2    5    5    0    0  0.12687005121E+02 -0.35494401276E+02  0.43514753434E+02  0.10101171708E+03  0.83000124099E+02 0.  0.
          5    1    5    5  501    0 -0.23598095851E+02 -0.44282289489E+02  0.18599422525E+03  0.19270114975E+03  0.47000000000E+01 0. -1.
        -13    1    6    6    0    0  0.14306194457E+02 -0.62109496352E+02  0.24593436062E+02  0.68316131582E+02  0.00000000000E+00 0.  1.
         14    1    6    6    0    0 -0.16191893365E+01  0.26615095077E+02  0.18921317372E+02  0.32695585499E+02  0.00000000000E+00 0. -1.
         -5    1    3    3    0  503 -0.56635980305E+02  0.70892629129E+02 -0.11708006067E+03  0.14819996538E+03  0.47000000000E+01 0.  1.
         11    1    4    4    0    0  0.27946637721E+02  0.34284484677E+02 -0.16511879970E+03  0.17094051148E+03  0.00000000000E+00 0. -1.
        -12    1    4    4    0    0  0.39600433313E+02 -0.25400423041E+02 -0.52870262813E+02  0.70771749302E+02  0.00000000000E+00 0.  1.
</event>
<event>
12    1  0.8053217E-002  0.2532940E+03  0.7818608E-02  0.1111391E+00
         21   -1    0    0  503  502  0.00000000000E+00  0.00000000000E+00  0.27886825136E+03  0.27886825136E+03  0.00000000000E+00 0. -1.
         21   -1    0    0  501  503 -0.00000000000E+00 -0.00000000000E+00 -0.29611944700E+03  0.29611944700E+03  0.00000000000E+00 0. -1.
          6    2    1    2  501    0  0.16955591946E+03 -0.74141032789E+02 -0.14532225818E+03  0.29202126879E+03  0.17295016662E+03 0.  0.
         24    2    3    3    0    0  0.98283730735E+02  0.13758147742E+01 -0.44306381773E+02  0.14707708492E+03  0.10003513807E+03 0.  0.
         -6    2    1    2    0  502 -0.16955591946E+03  0.74141032789E+02  0.12807106254E+03  0.28296642958E+03  0.17152755067E+03 0.  0.
        -24    2    5    5    0    0 -0.66640933548E+02  0.90687025391E+02  0.10853566209E+03  0.17681094895E+03  0.82564950938E+02 0.  0.
          5    1    3    3  501    0  0.71272188727E+02 -0.75516847563E+02 -0.10101587641E+03  0.14494418387E+03  0.47000000000E+01 0. -1.
        -13    1    4    4    0    0 -0.14377761265E+02 -0.19086454683E+02  0.10442181569E+01  0.23918678119E+02  0.00000000000E+00 0.  1.
         14    1    4    4    0    0  0.11266149200E+03  0.20462269458E+02 -0.45350599930E+02  0.12315840680E+03  0.00000000000E+00 0. -1.
         -5    1    5    5    0  502 -0.10291498591E+03 -0.16545992602E+02  0.19535400446E+02  0.10615548063E+03  0.47000000000E+01 0.  1.
         11    1    6    6    0    0 -0.70337472365E+02  0.73400927391E+02  0.45564013999E+02  0.11140527605E+03  0.00000000000E+00 0. -1.
        -12    1    6    6    0    0  0.36965388176E+01  0.17286098000E+02  0.62971648092E+02  0.65405672894E+02  0.00000000000E+00 0.  1.
</event>
<event>
12    1  0.8053217E-002  0.1732480E+03  0.7818608E-02  0.1174574E+00
         21   -1    0    0  503  502  0.00000000000E+00  0.00000000000E+00  0.12247862735E+04  0.12247862735E+04  0.00000000000E+00 0.  1.
         21   -1    0    0  501  503 -0.00000000000E+00 -0.00000000000E+00 -0.44647183033E+02  0.44647183033E+02  0.00000000000E+00 0.  1.
          6    2    1    2  501    0  0.15241332802E+02  0.13097514666E+02  0.16308240785E+03  0.23772654467E+03  0.17179695915E+03 0.  0.
         24    2    3    3    0    0  0.19646210906E+02  0.75399746104E+02  0.97388596905E+02  0.14695905164E+03  0.77725984953E+02 0.  0.
         -6    2    1    2    0  502 -0.15241332802E+02 -0.13097514666E+02  0.10170566826E+04  0.10317069118E+04  0.17207850890E+03 0.  0.
        -24    2    5    5    0    0  0.58926808568E+02 -0.14896156979E+02  0.47990860123E+03  0.48943917390E+03  0.74459218020E+02 0.  0.
          5    1    3    3  501    0 -0.44048781041E+01 -0.62302231438E+02  0.65693810950E+02  0.90767493027E+02  0.47000000000E+01 0. -1.
        -13    1    4    4    0    0 -0.85473474482E+00  0.29642327862E+02 -0.75990999562E+01  0.30612815824E+02  0.00000000000E+00 0.  1.
         14    1    4    4    0    0  0.20500945651E+02  0.45757418242E+02  0.10498769686E+03  0.11634623582E+03  0.00000000000E+00 0. -1.
         -5    1    5    5    0  502 -0.74168141370E+02  0.17986423133E+01  0.53714808135E+03  0.54226773793E+03  0.47000000000E+01 0.  1.
         11    1    6    6    0    0  0.54464673821E+02 -0.34191775460E+02  0.23221125999E+03  0.24095133838E+03  0.00000000000E+00 0. -1.
        -12    1    6    6    0    0  0.44621347472E+01  0.19295618481E+02  0.24769734124E+03  0.24848783551E+03  0.00000000000E+00 0.  1.
</event>
<event>
12    1  0.8053217E-002  0.2862102E+03  0.7818608E-02  0.1093525E+00
         21   -1    0    0  501  502  0.00000000000E+00  0.00000000000E+00  0.36805424791E+03  0.36805424791E+03  0.00000000000E+00 0. -1.
         21   -1    0    0  502  503 -0.00000000000E+00 -0.00000000000E+00 -0.22162646548E+03  0.22162646548E+03  0.00000000000E+00 0.  1.
         -6    2    1    2    0  503  0.10166133540E+03  0.19717025223E+03  0.11984470401E+03  0.30223865718E+03  0.16665628501E+03 0.  0.
        -24    2    3    3    0    0  0.44744976697E+02  0.55109041861E+02  0.10201764982E+03  0.14809342293E+03  0.80529135136E+02 0.  0.
          6    2    1    2  501    0 -0.10166133540E+03 -0.19717025223E+03  0.26583078422E+02  0.28744205621E+03  0.18084562516E+03 0.  0.
         24    2    5    5    0    0 -0.29181118739E+02 -0.23839564536E+02 -0.23724774955E+02  0.92891602047E+02  0.81523752710E+02 0.  0.
          5    1    5    5  501    0 -0.72480216664E+02 -0.17333068769E+03  0.50307853377E+02  0.19455045416E+03  0.47000000000E+01 0. -1.
        -13    1    6    6    0    0  0.11779898555E+02 -0.38271768562E+02 -0.28573085777E+02  0.49192636742E+02  0.00000000000E+00 0.  1.
         14    1    6    6    0    0 -0.40961017295E+02  0.14432204026E+02  0.48483108214E+01  0.43698965304E+02  0.00000000000E+00 0. -1.
         -5    1    3    3    0  503  0.56916358706E+02  0.14206121037E+03  0.17827054187E+02  0.15414523425E+03  0.47000000000E+01 0.  1.
         11    1    4    4    0    0 -0.19008589744E+02  0.12191461296E+02  0.30463836310E+01  0.22786809031E+02  0.00000000000E+00 0. -1.
        -12    1    4    4    0    0  0.63753566442E+02  0.42917580565E+02  0.98971266190E+02  0.12530661390E+03  0.00000000000E+00 0.  1.
</event>
<event>
12    1  0.8053217E-002  0.1889551E+03  0.7818608E-02  0.1159408E+00
         21   -1    0    0  501  502  0.00000000000E+00  0.00000000000E+00  0.47613400311E+03  0.47613400311E+03  0.00000000000E+00 0.  1.
         21   -1    0    0  502  503 -0.00000000000E+00 -0.00000000000E+00 -0.11853885259E+03  0.11853885259E+03  0.00000000000E+00 0.  1.
         -6    2    1    2    0  503 -0.28605026883E+01 -0.78994587733E+02 -0.14340057410E+01  0.18895625986E+03  0.17162192285E+03 0.  0.
        -24    2    3    3    0    0 -0.51421891431E+02 -0.28194022946E+02  0.41819607094E+02  0.10630112764E+03  0.78178874076E+02 0.  0.
          6    2    1    2  501    0  0.28605026883E+01  0.78994587733E+02  0.35902915626E+03  0.40571659584E+03  0.17162661136E+03 0.  0.
         24    2    5    5    0    0  0.48840197896E+02  0.55388104132E+02  0.13330853643E+03  0.17410639171E+03  0.84194196590E+02 0.  0.
          5    1    5    5  501    0 -0.45979695208E+02  0.23606483601E+02  0.22572061983E+03  0.23161020412E+03  0.47000000000E+01 0. -1.
        -11    1    6    6    0    0  0.27118516069E+02  0.76813769717E+02  0.98429262892E+02  0.12776575803E+03  0.00000000000E+00 0.  1.
         12    1    6    6    0    0  0.21721681828E+02 -0.21425665585E+02  0.34879273541E+02  0.46340633681E+02  0.00000000000E+00 0. -1.
         -5    1    3    3    0  503  0.48561388743E+02 -0.50800564787E+02 -0.43253612835E+02  0.82655132222E+02  0.47000000000E+01 0.  1.
         13    1    4    4    0    0  0.60282061179E+01 -0.35467243863E+02  0.30787038136E+02  0.47350885667E+02  0.00000000000E+00 0. -1.
        -14    1    4    4    0    0 -0.57450097549E+02  0.72732209167E+01  0.11032568958E+02  0.58950241974E+02  0.00000000000E+00 0.  1.
</event>
<event>
12    1  0.8053217E-002  0.2237559E+03  0.7818608E-02  0.1131862E+00
         21   -1    0    0  501  502  0.00000000000E+00  0.00000000000E+00  0.22626083580E+03  0.22626083580E+03  0.00000000000E+00 0. -1.
         21   -1    0    0  502  503 -0.00000000000E+00 -0.00000000000E+00 -0.22659699323E+03  0.22659699323E+03  0.00000000000E+00 0.  1.
         -6    2    1    2    0  503  0.70038419210E+02 -0.12023897075E+03 -0.46083900368E+02  0.22447313933E+03  0.17000492391E+03 0.  0.
        -24    2    3    3    0    0  0.12548573429E+02 -0.12860078188E+03 -0.23617917333E+01  0.15161220990E+03  0.79278347203E+02 0.  0.
          6    2    1    2  501    0 -0.70038419210E+02  0.12023897075E+03  0.45747742941E+02  0.22838468971E+03  0.17522534136E+03 0.  0.
         24    2    5    5    0    0 -0.11449313507E+03  0.77726651191E+02  0.43151578162E+02  0.16664046611E+03  0.82200218754E+02 0.  0.
          5    1    5    5  501    0  0.44454715859E+02  0.42512319561E+02  0.25961647790E+01  0.61744223601E+02  0.47000000000E+01 0. -1.
        -11    1    6    6    0    0  0.58253717226E+01  0.24720851294E+02 -0.63059915598E+01  0.26169084317E+02  0.00000000000E+00 0.  1.
         12    1    6    6    0    0 -0.12031850679E+03  0.53005799896E+02  0.49457569722E+02  0.14047138179E+03  0.00000000000E+00 0. -1.
         -5    1    3    3    0  503  0.57489845781E+02  0.83618111308E+01 -0.43722108634E+02  0.72860929425E+02  0.47000000000E+01 0.  1.
         13    1    4    4    0    0  0.85894681376E+01 -0.49047440672E+02 -0.39662014895E+02  0.63659294882E+02  0.00000000000E+00 0. -1.
        -14    1    4    4    0    0  0.39591052916E+01 -0.79553341210E+02  0.37300223162E+02  0.87952915019E+02  0.00000000000E+00 0.  1.
</event>
<event>
12    1  0.8053217E-002  0.2008585E+03  0.7818608E-02  0.1150150E+00
         21   -1    0    0  503  502  0.00000000000E+00  0.00000000000E+00  0.13042500387E+04  0.13042500387E+04  0.00000000000E+00 0. -1.
         21   -1    0    0  501  503 -0.00000000000E+00 -0.00000000000E+00 -0.36943691782E+02  0.36943691782E+02  0.00000000000E+00 0.  1.
          6    2    1    2  501    0  0.90906811196E+02 -0.19078620361E+02  0.35237027096E+03  0.40559702808E+03  0.17809014363E+03 0.  0.
         24    2    3    3    0    0  0.10385407382E+03 -0.70197073325E+01  0.13980894459E+03  0.19224882336E+03  0.81105635773E+02 0.  0.
         -6    2    1    2    0  502 -0.90906811196E+02  0.19078620361E+02  0.91493607601E+03  0.93559670245E+03  0.17206139710E+03 0.  0.
        -24    2    5    5    0    0 -0.10280859286E+03  0.51158539317E+02  0.50379208891E+03  0.52300460154E+03  0.80873614179E+02 0.  0.
          5    1    3    3  501    0 -0.12947262625E+02 -0.12058913028E+02  0.21256132637E+03  0.21334820473E+03  0.47000000000E+01 0. -1.
        -11    1    4    4    0    0  0.59103314500E+02  0.30759789660E+02  0.10428160148E+03  0.12374982365E+03  0.00000000000E+00 0.  1.
         12    1    4    4    0    0  0.44750759321E+02 -0.37779496993E+02  0.35527343106E+02  0.68498999708E+02  0.00000000000E+00 0. -1.
         -5    1    5    5    0  502  0.11901781659E+02 -0.32079918956E+02  0.41114398710E+03  0.41259210091E+03  0.47000000000E+01 0.  1.
         11    1    6    6    0    0 -0.26727291407E+01  0.62839922868E+01  0.19804672144E+03  0.19816441637E+03  0.00000000000E+00 0. -1.
        -12    1    6    6    0    0 -0.10013586371E+03  0.44874547030E+02  0.30574536747E+03  0.32484018517E+03  0.00000000000E+00 0.  1.
</event>
<event>
12    1  0.8053217E-002  0.2713061E+03  0.7818608E-02  0.1100588E+00
         21   -1    0    0  501  502  0.00000000000E+00  0.00000000000E+00  0.34989462842E+03  0.34989462842E+03  0.00000000000E+00 0.  1.
         21   -1    0    0  502  503 -0.00000000000E+00 -0.00000000000E+00 -0.22365265533E+03  0.22365265533E+03  0.00000000000E+00 0. -1.
         -6    2    1    2    0  503  0.17636476979E+03 -0.11370238587E+03 -0.75740880284E+01  0.27103494783E+03  0.17137622811E+03 0.  0.
        -24    2    3    3    0    0  0.34008588021E+02 -0.75526931597E+02 -0.36008510812E+02  0.12085753876E+03  0.80305855130E+02 0.  0.
          6    2    1    2  501    0 -0.17636476979E+03  0.11370238587E+03  0.13381606111E+03  0.30251233592E+03  0.17197154008E+03 0.  0.
         24    2    5    5    0    0 -0.50685257298E+02  0.86139356405E+02  0.11585884122E+03  0.17251382747E+03  0.79679141244E+02 0.  0.
          5    1    5    5  501    0 -0.12567951249E+03  0.27563029468E+02  0.17957219893E+02  0.12999850845E+03  0.47000000000E+01 0. -1.
        -11    1    6    6    0    0 -0.59813894520E+02  0.25175101283E+02  0.71557954914E+02  0.96602425507E+02  0.00000000000E+00 0.  1.
         12    1    6    6    0    0  0.91286372226E+01  0.60964255122E+02  0.44300886304E+02  0.75911401959E+02  0.00000000000E+00 0. -1.
         -5    1    3    3    0  503  0.14235618177E+03 -0.38175454276E+02  0.28434422783E+02  0.15017740907E+03  0.47000000000E+01 0.  1.
         13    1    4    4    0    0  0.30247782080E+01 -0.75655365422E+02 -0.32767291870E+01  0.75786677948E+02  0.00000000000E+00 0. -1.
        -14    1    4    4    0    0  0.30983809813E+02  0.12843382487E+00 -0.32731781625E+02  0.45070860809E+02  0.00000000000E+00 0.  1.
</event>
<event>
12    1  0.8053217E-002  0.2716565E+03  0.7818608E-02  0.1100376E+00
         21   -1    0    0  501  502  0.00000000000E+00  0.00000000000E+00  0.61808245679E+02  0.61808245679E+02  0.00000000000E+00 0. -1.
         21   -1    0    0  502  503 -0.00000000000E+00 -0.00000000000E+00 -0.17078137079E+04  0.17078137079E+04  0.00000000000E+00 0.  1.
         -6    2    1    2    0  503 -0.19361400790E+03  0.82972119785E+02 -0.13086333421E+04  0.13364739266E+04  0.17108645723E+03 0.  0.
        -24    2    3    3    0    0 -0.11464080030E+03  0.76120017820E+02 -0.51526761805E+03  0.53914401945E+03  0.78985981625E+02 0.  0.
          6    2    1    2  501    0  0.19361400790E+03 -0.82972119785E+02 -0.33737212008E+03  0.43314802689E+03  0.17154156661E+03 0.  0.
         24    2    5    5    0    0  0.88254706241E+02  0.22169305973E+02 -0.18028564808E+03  0.21669121470E+03  0.78560781086E+02 0.  0.
          5    1    5    5  501    0  0.10535930165E+03 -0.10514142576E+03 -0.15708647200E+03  0.21645681219E+03  0.47000000000E+01 0. -1.
        -13    1    6    6    0    0 -0.79529686378E+01 -0.12483945083E+02 -0.93632182264E+01  0.17514806609E+02  0.00000000000E+00 0.  1.
         14    1    6    6    0    0  0.96207674879E+02  0.34653251056E+02 -0.17092242985E+03  0.19917640810E+03  0.00000000000E+00 0. -1.
         -5    1    3    3    0  503 -0.78973207600E+02  0.68521019649E+01 -0.79336572404E+03  0.79732990719E+03  0.47000000000E+01 0.  1.
         13    1    4    4    0    0 -0.12537343958E+03  0.59245543954E+02 -0.45134886714E+03  0.47216981447E+03  0.00000000000E+00 0. -1.
        -14    1    4    4    0    0  0.10732639290E+02  0.16874473866E+02 -0.63918750916E+02  0.66974204983E+02  0.00000000000E+00 0.  1.
</event>
<event>
12    1  0.8053217E-002  0.2010076E+03  0.7818608E-02  0.1149353E+00
         21   -1    0    0  503  502  0.00000000000E+00  0.00000000000E+00  0.10335618296E+04  0.10335618296E+04  0.00000000000E+00 0.  1.
         21   -1    0    0  501  503 -0.00000000000E+00 -0.00000000000E+00 -0.39625958252E+02  0.39625958252E+02  0.00000000000E+00 0. -1.
          6    2    1    2  501    0 -0.53858640127E+02  0.87053996443E+02  0.41086270990E+03  0.45643957274E+03  0.17043991834E+03 0.  0.
         24    2    3    3    0    0 -0.83799924238E+02  0.89726438091E+01  0.22680836458E+03  0.25422367288E+03  0.78004525330E+02 0.  0.
         -6    2    1    2    0  502  0.53858640127E+02 -0.87053996443E+02  0.58307316141E+03  0.61674821508E+03  0.17298814360E+03 0.  0.
        -24    2    5    5    0    0  0.24983994963E+02 -0.27400876690E+02  0.51198208107E+03  0.51944317135E+03  0.79501879734E+02 0.  0.
          5    1    3    3  501    0  0.29941284112E+02  0.78081352634E+02  0.18405434532E+03  0.20221589986E+03  0.47000000000E+01 0. -1.
        -11    1    4    4    0    0 -0.23958256066E+02  0.37986970423E+02  0.12296451594E+03  0.13090943486E+03  0.00000000000E+00 0.  1.
         12    1    4    4    0    0 -0.59841668172E+02 -0.29014326614E+02  0.10384384864E+03  0.12331423802E+03  0.00000000000E+00 0. -1.
         -5    1    5    5    0  502  0.28874645164E+02 -0.59653119753E+02  0.71091080341E+02  0.97305043722E+02  0.47000000000E+01 0.  1.
         11    1    6    6    0    0  0.34142261624E+02 -0.19848208812E+02  0.10334624305E+03  0.11063494645E+03  0.00000000000E+00 0. -1.
        -12    1    6    6    0    0 -0.91582666615E+01 -0.75526678776E+01  0.40863583802E+03  0.40880822491E+03  0.00000000000E+00 0.  1.
</event>
<event>
12    1  0.8053217E-002  0.1990127E+03  0.7818608E-02  0.1150599E+00
         21   -1    0    0  503  502  0.00000000000E+00  0.00000000000E+00  0.45837781443E+02  0.45837781443E+02  0.00000000000E+00 0. -1.
         21   -1    0    0  501  503 -0.00000000000E+00 -0.00000000000E+00 -0.15502713507E+04  0.15502713507E+04  0.00000000000E+00 0. -1.
          6    2    1    2  501    0  0.96521688903E+02  0.23904167923E+02 -0.12832470299E+04  0.12985699667E+04  0.17225902913E+03 0.  0.
         24    2    3    3    0    0  0.24484545324E+02  0.27902786680E+02 -0.10646061814E+04  0.10682848182E+04  0.80424330025E+02 0.  0.
         -6    2    1    2    0  502 -0.96521688903E+02 -0.23904167923E+02 -0.22118653936E+03  0.29753916540E+03  0.17238974471E+03 0.  0.
        -24    2    5    5    0    0 -0.12674120592E+03 -0.46462165041E+02 -0.19785415531E+03  0.25294575122E+03  0.81321708219E+02 0.  0.
          5    1    3    3  501    0  0.72037143579E+02 -0.39986187568E+01 -0.21864084847E+03  0.23028514851E+03  0.47000000000E+01 0. -1.
        -13    1    4    4    0    0 -0.24972856259E+02  0.29375642172E+02 -0.40846246275E+03  0.41027814392E+03  0.00000000000E+00 0.  1.
         14    1    4    4    0    0  0.49457401583E+02 -0.14728554929E+01 -0.65614371863E+03  0.65800667426E+03  0.00000000000E+00 0. -1.
         -5    1    5    5    0  502  0.30219517020E+02  0.22557997118E+02 -0.23332384057E+02  0.44593414184E+02  0.47000000000E+01 0.  1.
         13    1    6    6    0    0 -0.74147909029E+02  0.99519122652E+01 -0.63962104505E+02  0.98428165602E+02  0.00000000000E+00 0. -1.
        -14    1    6    6    0    0 -0.52593296894E+02 -0.56414077306E+02 -0.13389205080E+03  0.15451758561E+03  0.00000000000E+00 0.  1.
</event>
<event>
12    1  0.8053217E-002  0.2211071E+03  0.7818608E-02  0.1133106E+00
         21   -1    0    0  501  502  0.00000000000E+00  0.00000000000E+00  0.18662758386E+03  0.18662758386E+03  0.00000000000E+00 0.  1.
         21   -1    0    0  502  503 -0.00000000000E+00 -0.00000000000E+00 -0.33278225018E+03  0.33278225018E+03  0.00000000000E+00 0.  1.
         -6    2    1    2    0  503 -0.10401592045E+03 -0.92250782924E+02 -0.19316868709E+03  0.29360262755E+03  0.17192685240E+03 0.  0.
        -24    2    3    3    0    0 -0.64772602711E+01 -0.22946598058E+02 -0.22271101864E+02  0.84928396017E+02  0.78411282407E+02 0.  0.
          6    2    1    2  501    0  0.10401592045E+03  0.92250782924E+02  0.47014020778E+02  0.22580720649E+03  0.17160727751E+03 0.  0.
         24    2    5    5    0    0  0.46070374880E+01  0.19811340952E+02 -0.18977169213E+02  0.86141441460E+02  0.81526075342E+02 0.  0.
          5    1    5    5  501    0  0.99408882961E+02  0.72439441972E+02  0.65991189991E+02  0.13966576503E+03  0.47000000000E+01 0. -1.
        -13    1    6    6    0    0  0.40057690222E+02 -0.55430793738E+01 -0.88897267160E+01  0.41404969701E+02  0.00000000000E+00 0.  1.
         14    1    6    6    0    0 -0.35450652734E+02  0.25354420325E+02 -0.10087442497E+02  0.44736471759E+02  0.00000000000E+00 0. -1.
         -5    1    3    3    0  503 -0.97538660178E+02 -0.69304184866E+02 -0.17089758523E+03  0.20867423153E+03  0.47000000000E+01 0.  1.
         11    1    4    4    0    0 -0.13051140983E+02 -0.28340979231E+02  0.23065243887E+02  0.38801402814E+02  0.00000000000E+00 0. -1.
        -12    1    4    4    0    0  0.65738807120E+01  0.53943811739E+01 -0.45336345751E+02  0.46126993203E+02  0.00000000000E+00 0.  1.
</event>
<event>
12    1  0.8053217E-002  0.2444598E+03  0.7818608E-02  0.1117105E+00
         21   -1    0    0  501  502  0.00000000000E+00  0.00000000000E+00  0.19328921876E+03  0.19328921876E+03  0.00000000000E+00 0.  1.
         21   -1    0    0  502  503 -0.00000000000E+00 -0.00000000000E+00 -0.36669123174E+03  0.36669123174E+03  0.00000000000E+00 0.  1.
         -6    2    1    2    0  503  0.14144001336E+03 -0.98988233514E+02 -0.19964674109E+03  0.31562544529E+03  0.17307990275E+03 0.  0.
        -24    2    3    3    0    0  0.59710569786E+01 -0.38153923537E+02 -0.11407168102E+03  0.14416748450E+03  0.79249856617E+02 0.  0.
          6    2    1    2  501    0 -0.14144001336E+03  0.98988233514E+02  0.26244728102E+02  0.24435500521E+03  0.17092874265E+03 0.  0.
         24    2    5    5    0    0 -0.15841567610E+03  0.82750948024E+02 -0.15293745030E+02  0.19640339089E+03  0.79982169774E+02 0.  0.
          5    1    5    5  501    0  0.16975662741E+02  0.16237285490E+02  0.41538473132E+02  0.47951614318E+02  0.47000000000E+01 0. -1.
        -13    1    6    6    0    0 -0.36983183752E+02  0.11373381352E+02  0.29434270366E+02  0.48615696598E+02  0.00000000000E+00 0.  1.
         14    1    6    6    0    0 -0.12143249235E+03  0.71377566672E+02 -0.44728015396E+02  0.14778769429E+03  0.00000000000E+00 0. -1.
         -5    1    3    3    0  503  0.13546895638E+03 -0.60834309977E+02 -0.85575060068E+02  0.17145796079E+03  0.47000000000E+01 0.  1.
         11    1    4    4    0    0 -0.38776755694E+01  0.24464675540E+02 -0.32083480736E+02  0.40532782451E+02  0.00000000000E+00 0. -1.
        -12    1    4    4    0    0  0.98487325480E+01 -0.62618599077E+02 -0.81988200281E+02  0.10363470205E+03  0.00000000000E+00 0.  1.
</event>
<event>
12    1  0.8053217E-002  0.3904040E+03  0.7818608E-02  0.1047209E+00
         21   -1    0    0  503  502  0.00000000000E+00  0.00000000000E+00  0.91572474142E+02  0.91572474142E+02  0.00000000000E+00 0.  1.
         21   -1    0    0  501  503 -0.00000000000E+00 -0.00000000000E+00 -0.17375117550E+04  0.17375117550E+04  0.00000000000E+00 0. -1.
          6    2    1    2  501    0  0.19769184365E+03  0.28923482218E+03 -0.10132598849E+04  0.10856472687E+04  0.17086705432E+03 0.  0.
         24    2    3    3    0    0  0.16300577917E+03  0.13323893719E+03 -0.67256261005E+03  0.70930359291E+03  0.80297098678E+02 0.  0.
         -6    2    1    2    0  502 -0.19769184365E+03 -0.28923482218E+03 -0.63267939596E+03  0.74343696045E+03  0.17226853658E+03 0.  0.
        -24    2    5    5    0    0 -0.10164720295E+03 -0.10498221089E+03 -0.41213790043E+03  0.44039531477E+03  0.52316018807E+02 0.  0.
          5    1    3    3  501    0  0.34686064476E+02  0.15599588499E+03 -0.34069727484E+03  0.37634367577E+03  0.47000000000E+01 0. -1.
        -11    1    4    4    0    0  0.33636724579E+02  0.62929398628E+02 -0.14541105403E+03  0.16197503847E+03  0.00000000000E+00 0.  1.
         12    1    4    4    0    0  0.12936905459E+03  0.70309538557E+02 -0.52715155601E+03  0.54732855444E+03  0.00000000000E+00 0. -1.
         -5    1    5    5    0  502 -0.96044640695E+02 -0.18425261129E+03 -0.22054149552E+03  0.30304164569E+03  0.47000000000E+01 0.  1.
         13    1    6    6    0    0 -0.27728314098E+02 -0.66084497563E+02 -0.18715887277E+03  0.20041073792E+03  0.00000000000E+00 0. -1.
        -14    1    6    6    0    0 -0.73918888854E+02 -0.38897713325E+02 -0.22497902767E+03  0.23998457684E+03  0.00000000000E+00 0.  1.
</event>
<event>
12    1  0.8053217E-002  0.1888976E+03  0.7818608E-02  0.1160298E+00
         21   -1    0    0  503  502  0.00000000000E+00  0.00000000000E+00  0.35320265479E+03  0.35320265479E+03  0.00000000000E+00 0.  1.
         21   -1    0    0  501  503 -0.00000000000E+00 -0.00000000000E+00 -0.23424855568E+03  0.23424855568E+03  0.00000000000E+00 0.  1.
          6    2    1    2  501    0 -0.18493124540E+02  0.73044853417E+02 -0.16339320778E+03  0.24975918135E+03  0.17321882707E+03 0.  0.
         24    2    3    3    0    0 -0.24995667967E+02  0.62712288983E+02 -0.19275043584E+03  0.21761914715E+03  0.75151500889E+02 0.  0.
         -6    2    1    2    0  502  0.18493124540E+02 -0.73044853417E+02  0.28234730689E+03  0.33769202913E+03  0.16922871673E+03 0.  0.
        -24    2    5    5    0    0  0.35606712777E+02 -0.61431668129E+02  0.78014165555E+02  0.13226110735E+03  0.79781593411E+02 0.  0.
          5    1    3    3  501    0  0.65025434270E+01  0.10332564435E+02  0.29357228058E+02  0.32140034195E+02  0.47000000000E+01 0. -1.
        -13    1    4    4    0    0 -0.36102211331E+02  0.28747140695E+02 -0.41043560142E+02  0.61760356138E+02  0.00000000000E+00 0.  1.
         14    1    4    4    0    0  0.11106543365E+02  0.33965148288E+02 -0.15170687569E+03  0.15585879101E+03  0.00000000000E+00 0. -1.
         -5    1    5    5    0  502 -0.17113588237E+02 -0.11613185289E+02  0.20433314133E+03  0.20543092177E+03  0.47000000000E+01 0.  1.
         11    1    6    6    0    0 -0.23632476941E+02 -0.14932526848E+02  0.71534020139E+01  0.28855597114E+02  0.00000000000E+00 0. -1.
        -12    1    6    6    0    0  0.59239189718E+02 -0.46499141281E+02  0.70860763541E+02  0.10340551024E+03  0.00000000000E+00 0.  1.
</event>
<event>
12    1  0.8053217E-002  0.3176987E+03  0.7818608E-02  0.1077042E+00
         21   -1    0    0  501  502  0.00000000000E+00  0.00000000000E+00  0.80104716553E+03  0.80104716553E+03  0.00000000000E+00 0.  1.
         21   -1    0    0  502  503 -0.00000000000E+00 -0.00000000000E+00 -0.26228669371E+03  0.26228669371E+03  0.00000000000E+00 0. -1.
         -6    2    1    2    0  503 -0.26407863804E+03 -0.76229964654E+01 -0.11485516644E+03  0.33782266081E+03  0.17645623751E+03 0.  0.
        -24    2    3    3    0    0 -0.25852477096E+03  0.11780262122E+02 -0.56258964180E+02  0.27567013228E+03  0.76518749382E+02 0.  0.
          6    2    1    2  501    0  0.26407863804E+03  0.76229964654E+01  0.65361563825E+03  0.72551119843E+03  0.17134018599E+03 0.  0.
         24    2    5    5    0    0  0.12889038566E+03 -0.59284604692E+02  0.35318290592E+03  0.38930529823E+03  0.81811089260E+02 0.  0.
          5    1    5    5  501    0  0.13518825238E+03  0.66907601158E+02  0.30043273234E+03  0.33620590021E+03  0.47000000000E+01 0. -1.
        -13    1    6    6    0    0  0.77083040421E+02  0.84124823540E+01  0.14706447482E+03  0.16625439763E+03  0.00000000000E+00 0.  1.
         14    1    6    6    0    0  0.51807345240E+02 -0.67697087046E+02  0.20611843110E+03  0.22305090059E+03  0.00000000000E+00 0. -1.
         -5    1    3    3    0  503 -0.55538670797E+01 -0.19403258588E+02 -0.58596202256E+02  0.62152528526E+02  0.47000000000E+01 0.  1.
         11    1    4    4    0    0 -0.13882775186E+03  0.42379243002E+02 -0.17591940861E+02  0.14621429926E+03  0.00000000000E+00 0. -1.
        -12    1    4    4    0    0 -0.11969701910E+03 -0.30598980879E+02 -0.38667023320E+02  0.12945583303E+03  0.00000000000E+00 0.  1.
</event>
<event>
12    1  0.8053217E-002  0.2118117E+03  0.7818608E-02  0.1140342E+00
         21   -1    0    0  501  502  0.00000000000E+00  0.00000000000E+00  0.32506412599E+03  0.32506412599E+03  0.00000000000E+00 0. -1.
         21   -1    0    0  502  503 -0.00000000000E+00 -0.00000000000E+00 -0.22010411066E+03  0.22010411066E+03  0.00000000000E+00 0.  1.
         -6    2    1    2    0  503 -0.12085991062E+03 -0.22798745800E+02 -0.11474666607E+03  0.23998760009E+03  0.17117345010E+03 0.  0.
        -24    2    3    3    0    0 -0.11153070964E+03 -0.66929689152E+02 -0.54303576647E+02  0.16442285163E+03  0.84659985928E+02 0.  0.
          6    2    1    2  501    0  0.12085991062E+03  0.22798745800E+02  0.21970668140E+03  0.30518063655E+03  0.17244504710E+03 0.  0.
         24    2    5    5    0    0  0.15583430553E+03  0.20641948624E+02  0.17899787476E+03  0.25126257825E+03  0.79888817969E+02 0.  0.
          5    1    5    5  501    0 -0.34974394911E+02  0.21567971765E+01  0.40708806638E+02  0.53918058305E+02  0.47000000000E+01 0. -1.
        -11    1    6    6    0    0  0.60327705829E+01 -0.25051111251E+01 -0.81401634242E+01  0.10437057211E+02  0.00000000000E+00 0.  1.
         12    1    6    6    0    0  0.14980153494E+03  0.23147059749E+02  0.18713803818E+03  0.24082552104E+03  0.00000000000E+00 0. -1.
         -5    1    3    3    0  503 -0.93292009726E+01  0.44130943351E+02 -0.60443089421E+02  0.75564748465E+02  0.47000000000E+01 0.  1.
         13    1    4    4    0    0 -0.80145342205E+02 -0.22397307677E+02  0.56565365836E+01  0.83408103170E+02  0.00000000000E+00 0. -1.
        -14    1    4    4    0    0 -0.31385367438E+02 -0.44532381475E+02 -0.59960113230E+02  0.81014748457E+02  0.00000000000E+00 0.  1.
</event>
<event>
12    1  0.8053217E-002  0.2976241E+03  0.7818608E-02  0.1087715E+00
         21   -1    0    0  503  502  0.00000000000E+00  0.00000000000E+00  0.56964258386E+03  0.56964258386E+03  0.00000000000E+00 0.  1.
         21   -1    0    0  501  503 -0.00000000000E+00 -0.00000000000E+00 -0.17404326259E+03  0.17404326259E+03  0.00000000000E+00 0.  1.
          6    2    1    2  501    0  0.11210675788E+03 -0.20165782946E+03  0.57687343999E+02  0.29339195156E+03  0.17180571072E+03 0.  0.
         24    2    3    3    0    0  0.78627060996E+01 -0.23321741344E+02  0.23032013963E+02  0.83883802417E+02  0.76813363904E+02 0.  0.
         -6    2    1    2    0  502 -0.11210675788E+03  0.20165782946E+03  0.33791197727E+03  0.45029389488E+03  0.18800606915E+03 0.  0.
        -24    2    5    5    0    0 -0.67670821473E+02  0.15824843330E+03  0.12158034957E+03  0.22517083684E+03  0.79361310723E+02 0.  0.
          5    1    3    3  501    0  0.10424405178E+03 -0.17833608812E+03  0.34655330036E+02  0.20950814915E+03  0.47000000000E+01 0. -1.
        -13    1    4    4    0    0  0.17429668186E+02  0.15002002317E+02 -0.16263766655E+02  0.28166709294E+02  0.00000000000E+00 0.  1.
         14    1    4    4    0    0 -0.95669620864E+01 -0.38323743661E+02  0.39295780618E+02  0.55717093124E+02  0.00000000000E+00 0. -1.
         -5    1    5    5    0  502 -0.44435936410E+02  0.43409396162E+02  0.21633162770E+03  0.22512305804E+03  0.47000000000E+01 0.  1.
         11    1    6    6    0    0 -0.56489328558E+02  0.50418650418E+02  0.24317554744E+02  0.79526272512E+02  0.00000000000E+00 0. -1.
        -12    1    6    6    0    0 -0.11181492916E+02  0.10782978288E+03  0.97262794829E+02  0.14564456433E+03  0.00000000000E+00 0.  1.
</event>
<event>
12    1  0.8053217E-002  0.2585655E+03  0.7818608E-02  0.1108440E+00
         21   -1    0    0  503  502  0.00000000000E+00  0.00000000000E+00  0.29537505688E+03  0.29537505688E+03  0.00000000000E+00 0. -1.
         21   -1    0    0  501  503 -0.00000000000E+00 -0.00000000000E+00 -0.26509074132E+03  0.26509074132E+03  0.00000000000E+00 0. -1.
          6    2    1    2  501    0 -0.17169102153E+01 -0.19175927891E+03  0.12572426686E+03  0.28751124234E+03  0.17344034814E+03 0.  0.
         24    2    3    3    0    0  0.58340343102E+02 -0.16243314923E+03  0.81243709170E+02  0.20709043924E+03  0.80608846561E+02 0.  0.
         -6    2    1    2    0  502  0.17169102153E+01  0.19175927891E+03 -0.95439951294E+02  0.27295455586E+03  0.16917693824E+03 0.  0.
        -24    2    5    5    0    0  0.34963599077E+02  0.14736283956E+03 -0.12377758899E+03  0.21049258457E+03  0.77768739733E+02 0.  0.
          5    1    3    3  501    0 -0.60057253317E+02 -0.29326129681E+02  0.44480557690E+02  0.80420803096E+02  0.47000000000E+01 0. -1.
        -13    1    4    4    0    0  0.52256340378E+02 -0.34998661987E+02  0.28057371174E+02  0.68868334725E+02  0.00000000000E+00 0.  1.
         14    1    4    4    0    0  0.60840027245E+01 -0.12743448724E+03  0.53186337996E+02  0.13822210452E+03  0.00000000000E+00 0. -1.
         -5    1    5    5    0  502 -0.33246688861E+02  0.44396439355E+02  0.28337637696E+02  0.62461971294E+02  0.47000000000E+01 0.  1.
         11    1    6    6    0    0 -0.33742976438E+00  0.52886035548E+02 -0.27621324527E+01  0.52959191747E+02  0.00000000000E+00 0. -1.
        -12    1    6    6    0    0  0.35301028841E+02  0.94476804008E+02 -0.12101545654E+03  0.15753339282E+03  0.00000000000E+00 0.  1.
</event>
<event>
12    1  0.8053217E-002  0.1998633E+03  0.7818608E-02  0.1150582E+00
         21   -1    0    0  501  502  0.00000000000E+00  0.00000000000E+00  0.11892769059E+04  0.11892769059E+04  0.00000000000E+00 0. -1.
         21   -1    0    0  502  503 -0.00000000000E+00 -0.00000000000E+00 -0.44670597706E+02  0.44670597706E+02  0.00000000000E+00 0. -1.
         -6    2    1    2    0  503 -0.92767410373E+02 -0.33611777885E+02  0.26082232367E+03  0.32859338868E+03  0.17380962722E+03 0.  0.
        -24    2    3    3    0    0  0.11769816045E+02  0.36283852515E+01  0.15803054235E+03  0.17725568100E+03  0.79336185829E+02 0.  0.
          6    2    1    2  501    0  0.92767410373E+02  0.33611777885E+02  0.88378398454E+03  0.90535411495E+03  0.16987171067E+03 0.  0.
         24    2    5    5    0    0  0.17325191251E+02 -0.22612707518E+02  0.60986145282E+03  0.61568470930E+03  0.79530955212E+02 0.  0.
          5    1    5    5  501    0  0.75442219122E+02  0.56224485403E+02  0.27392253172E+03  0.28966940565E+03  0.47000000000E+01 0. -1.
        -11    1    6    6    0    0  0.21383072103E+02  0.78330037667E+01  0.49555322025E+02  0.54537341900E+02  0.00000000000E+00 0.  1.
         12    1    6    6    0    0 -0.40578808524E+01 -0.30445711285E+02  0.56030613079E+03  0.56114736740E+03  0.00000000000E+00 0. -1.
         -5    1    3    3    0  503 -0.10453722642E+03 -0.37240163136E+02  0.10279178133E+03  0.15133770768E+03  0.47000000000E+01 0.  1.
         11    1    4    4    0    0 -0.18978416757E+02 -0.14106836788E+02  0.11144709728E+02  0.26141685135E+02  0.00000000000E+00 0. -1.
        -12    1    4    4    0    0  0.30748232802E+02  0.17735222039E+02  0.14688583262E+03  0.15111399586E+03  0.00000000000E+00 0.  1.
</event>
<event>
12    1  0.8053217E-002  0.1728058E+03  0.7818608E-02  0.1174961E+00
         21   -1    0    0  501  502  0.00000000000E+00  0.00000000000E+00  0.65927695441E+03  0.65927695441E+03  0.00000000000E+00 0.  1.
         21   -1    0    0  502  503 -0.00000000000E+00 -0.00000000000E+00 -0.55765572132E+02  0.55765572132E+02  0.00000000000E+00 0.  1.
         -6    2    1    2    0  503  0.21750054745E+02 -0.27335815501E+01  0.14679877708E+03  0.22674151001E+03  0.17140972569E+03 0.  0.
        -24    2    3    3    0    0  0.21821848832E+02 -0.61706984994E+02  0.12657060035E+03  0.16421842146E+03  0.81631047956E+02 0.  0.
          6    2    1    2  501    0 -0.21750054745E+02  0.27335815501E+01  0.45671260520E+03  0.48830101653E+03  0.17137952518E+03 0.  0.
         24    2    5    5    0    0 -0.66105618851E+02 -0.64041737867E+01  0.17970995547E+03  0.20758145434E+03  0.79896344137E+02 0.  0.
          5    1    5    5  501    0  0.44355564106E+02  0.91377553368E+01  0.27700264973E+03  0.28071956219E+03  0.47000000000E+01 0. -1.
        -11    1    6    6    0    0  0.14606497684E+02 -0.13483674166E+02  0.58503961866E+02  0.61788937502E+02  0.00000000000E+00 0.  1.
         12    1    6    6    0    0 -0.80712116535E+02  0.70795003793E+01  0.12120599360E+03  0.14579251684E+03  0.00000000000E+00 0. -1.
         -5    1    3    3    0  503 -0.71794086519E-01  0.58973403444E+02  0.20228176733E+02  0.62523088552E+02  0.47000000000E+01 0.  1.
         13    1    4    4    0    0  0.27902997589E+02 -0.50792256176E+02  0.27116064406E+02  0.63982118679E+02  0.00000000000E+00 0. -1.
        -14    1    4    4    0    0 -0.60811487570E+01 -0.10914728818E+02  0.99454535940E+02  0.10023630278E+03  0.00000000000E+00 0.  1.
</event>
<event>
12    1  0.8053217E-002  0.2792386E+03  0.7818608E-02  0.1096255E+00
         21   -1    0    0  501  502  0.00000000000E+00  0.00000000000E+00  0.19727296374E+03  0.19727296374E+03  0.00000000000E+00 0. -1.
         21   -1    0    0  502  503 -0.00000000000E+00 -0.00000000000E+00 -0.48737015929E+03  0.48737015929E+03  0.00000000000E+00 0. -1.
         -6    2    1    2    0  503 -0.16713978079E+03 -0.14303398451E+03 -0.29533512056E+03  0.40644440466E+03  0.17198777164E+03 0.  0.
        -24    2    3    3    0    0 -0.86872074177E+02 -0.15136884402E+03 -0.16680539715E+03  0.25460780035E+03  0.80881439583E+02 0.  0.
          6    2    1    2  501    0  0.16713978079E+03  0.14303398451E+03  0.52379250122E+01  0.27819871836E+03  0.17021358345E+03 0.  0.
         24    2    5    5    0    0  0.10860421187E+03  0.13307267261E+03 -0.51868629514E+02  0.19568272516E+03  0.78090736753E+02 0.  0.
          5    1    5    5  501    0  0.58535568927E+02  0.99613118995E+01  0.57106554526E+02  0.82515993203E+02  0.47000000000E+01 0. -1.
        -13    1    6    6    0    0  0.26954078906E+02  0.55645674181E+02 -0.55520582480E+02  0.83099329141E+02  0.00000000000E+00 0.  1.
         14    1    6    6    0    0  0.81650132960E+02  0.77426998432E+02  0.36519529660E+01  0.11258339602E+03  0.00000000000E+00 0. -1.
         -5    1    3    3    0  503 -0.80267706615E+02  0.83348595085E+01 -0.12852972341E+03  0.15183660431E+03  0.47000000000E+01 0.  1.
         13    1    4    4    0    0 -0.10228915766E+03 -0.12731357961E+03 -0.14802889849E+03  0.22041863378E+03  0.00000000000E+00 0. -1.
        -14    1    4    4    0    0  0.15417083485E+02 -0.24055264410E+02 -0.18776498663E+02  0.34189166574E+02  0.00000000000E+00 0.  1.
</event>
<event>
12    1  0.8053217E-002  0.2172415E+03  0.7818608E-02  0.1135981E+00
         21   -1    0    0  501  502  0.00000000000E+00  0.00000000000E+00  0.42371905409E+03  0.42371905409E+03  0.00000000000E+00 0.  1.
         21   -1    0    0  502  503 -0.00000000000E+00 -0.00000000000E+00 -0.13704060567E+03  0.13704060567E+03  0.00000000000E+00 0. -1.
         -6    2    1    2    0  503 -0.13113038820E+03  0.13466855338E+02  0.21889929210E+02  0.21834152213E+03  0.17267691330E+03 0.  0.
        -24    2    3    3    0    0 -0.11775725701E+03 -0.43855321671E+02 -0.13110179310E+02  0.14969918672E+03  0.80298872253E+02 0.  0.
          6    2    1    2  501    0  0.13113038820E+03 -0.13466855338E+02  0.26478851922E+03  0.34241813763E+03  0.17251285797E+03 0.  0.
         24    2    5    5    0    0  0.13489434333E+03 -0.20205638448E+02  0.28160035624E+03  0.32333132490E+03  0.81483945308E+02 0.  0.
          5    1    5    5  501    0 -0.37639551343E+01  0.67387831092E+01 -0.16811837020E+02  0.19086812726E+02  0.47000000000E+01 0. -1.
        -11    1    6    6    0    0 -0.23045049983E+01 -0.17775815696E+01  0.72511895518E+02  0.72570279944E+02  0.00000000000E+00 0.  1.
         12    1    6    6    0    0  0.13719884833E+03 -0.18428056878E+02  0.20908846072E+03  0.25076104496E+03  0.00000000000E+00 0. -1.
         -5    1    3    3    0  503 -0.13373131185E+02  0.57322177009E+02  0.35000108521E+02  0.68642335415E+02  0.47000000000E+01 0.  1.
         11    1    4    4    0    0 -0.45706833837E+02 -0.90729457999E+01 -0.43853762113E+02  0.63988947924E+02  0.00000000000E+00 0. -1.
        -12    1    4    4    0    0 -0.72050423173E+02 -0.34782375871E+02  0.30743582803E+02  0.85710238794E+02  0.00000000000E+00 0.  1.
</event>
<event>
12    1  0.8053217E-002  0.2452785E+03  0.7818608E-02  0.1116897E+00
         21   -1    0    0  503  502  0.00000000000E+00  0.00000000000E+00  0.13150131318E+04  0.13150131318E+04  0.00000000000E+00 0. -1.
         21   -1    0    0  501  503 -0.00000000000E+00 -0.00000000000E+00 -0.45734916811E+02  0.45734916811E+02  0.00000000000E+00 0. -1.
          6    2    1    2  501    0 -0.10974622921E+02  0.16981725858E+03  0.54991925035E+03  0.60072249255E+03  0.17174978162E+03 0.  0.
         24    2    3    3    0    0  0.37274539072E+02  0.46947121437E+02  0.33131296474E+03  0.34530939511E+03  0.76660774005E+02 0.  0.
         -6    2    1    2    0  502  0.10974622921E+02 -0.16981725858E+03  0.71935896463E+03  0.76002555606E+03  0.17664422494E+03 0.  0.
        -24    2    5    5    0    0 -0.58732513218E+01 -0.18976369102E+03  0.69193396809E+03  0.72186888601E+03  0.79229532905E+02 0.  0.
          5    1    3    3  501    0 -0.48249161993E+02  0.12287013715E+03  0.21860628562E+03  0.25541309744E+03  0.47000000000E+01 0. -1.
        -11    1    4    4    0    0  0.33519972047E+02 -0.47477344336E+01  0.58272752666E+02  0.67393198555E+02  0.00000000000E+00 0.  1.
         12    1    4    4    0    0  0.37545670251E+01  0.51694855870E+02  0.27304021207E+03  0.27791619655E+03  0.00000000000E+00 0. -1.
         -5    1    5    5    0  502  0.16847874243E+02  0.19946432441E+02  0.27424996545E+02  0.38156670048E+02  0.47000000000E+01 0.  1.
         11    1    6    6    0    0  0.30194162020E+02 -0.85560830524E+02  0.23732085274E+03  0.25407386778E+03  0.00000000000E+00 0. -1.
        -12    1    6    6    0    0 -0.36067413342E+02 -0.10420286050E+03  0.45461311534E+03  0.46779501823E+03  0.00000000000E+00 0.  1.
</event>
<event>
12    1  0.8053217E-002  0.1904570E+03  0.7818608E-02  0.1158504E+00
         21   -1    0    0  501  502  0.00000000000E+00  0.00000000000E+00  0.41583890455E+03  0.41583890455E+03  0.00000000000E+00 0. -1.
         21   -1    0    0  502  503 -0.00000000000E+00 -0.00000000000E+00 -0.11155598531E+03  0.11155598531E+03  0.00000000000E+00 0. -1.
         -6    2    1    2    0  503 -0.72135102803E+02 -0.28388026134E+02  0.27328162243E+02  0.19240767584E+03  0.17396704340E+03 0.  0.
        -24    2    3    3    0    0 -0.48207836498E+02 -0.79211706480E+02  0.49309647177E+02  0.13190283111E+03  0.79802416041E+02 0.  0.
          6    2    1    2  501    0  0.72135102803E+02  0.28388026134E+02  0.27695475699E+03  0.33498721402E+03  0.17176478990E+03 0.  0.
         24    2    5    5    0    0  0.10324454225E+03  0.18878986252E+02  0.27124456362E+03  0.30162682778E+03  0.79932961380E+02 0.  0.
          5    1    5    5  501    0 -0.31109439442E+02  0.95090398824E+01  0.57101933716E+01  0.33360386242E+02  0.47000000000E+01 0. -1.
        -13    1    6    6    0    0  0.26820946580E+02 -0.24879620866E+02  0.40130665242E+02  0.54303121481E+02  0.00000000000E+00 0.  1.
         14    1    6    6    0    0  0.76423595666E+02  0.43758607118E+02  0.23111389838E+03  0.24732370630E+03  0.00000000000E+00 0. -1.
         -5    1    3    3    0  503 -0.23927266305E+02  0.50823680346E+02 -0.21981484933E+02  0.60504844737E+02  0.47000000000E+01 0.  1.
         11    1    4    4    0    0 -0.13534819415E+02 -0.84965746880E+02  0.43035817924E+02  0.96200057712E+02  0.00000000000E+00 0. -1.
        -12    1    4    4    0    0 -0.34673017083E+02  0.57540403993E+01  0.62738292527E+01  0.35702773395E+02  0.00000000000E+00 0.  1.
</event>
<event>
12    1  0.8053217E-002  0.2172529E+03  0.7818608E-02  0.1136005E+00
         21   -1    0    0  501  502  0.00000000000E+00  0.00000000000E+00  0.20384340974E+03  0.20384340974E+03  0.00000000000E+00 0. -1.
         21   -1    0    0  502  503 -0.00000000000E+00 -0.00000000000E+00 -0.32441996111E+03  0.32441996111E+03  0.00000000000E+00 0.  1.
         -6    2    1    2    0  503  0.17546692503E+02 -0.13076464304E+03 -0.20188797299E+03  0.29657644131E+03  0.17260229899E+03 0.  0.
        -24    2    3    3    0    0  0.18138725491E+02 -0.16378106607E+03 -0.16094814923E+03  0.24376930294E+03  0.79786686551E+02 0.  0.
          6    2    1    2  501    0 -0.17546692503E+02  0.13076464304E+03  0.81311421615E+02  0.23168692955E+03  0.17222081103E+03 0.  0.
         24    2    5    5    0    0 -0.13590443786E+02 -0.86742398475E+00  0.57451040579E+01  0.79782316973E+02  0.78401270999E+02 0.  0.
          5    1    5    5  501    0 -0.39562487172E+01  0.13163206702E+03  0.75566317557E+02  0.15190461257E+03  0.47000000000E+01 0. -1.
        -11    1    6    6    0    0 -0.38410048543E+02 -0.34717104931E+01 -0.20407609301E+02  0.43633188289E+02  0.00000000000E+00 0.  1.
         12    1    6    6    0    0  0.24819604758E+02  0.26042865084E+01  0.26152713359E+02  0.36149128684E+02  0.00000000000E+00 0. -1.
         -5    1    3    3    0  503 -0.59203298862E+00  0.33016423035E+02 -0.40939823759E+02  0.52807138367E+02  0.47000000000E+01 0.  1.
         11    1    4    4    0    0 -0.24597980430E+02 -0.42040393988E+02 -0.72488702166E+02  0.87333082561E+02  0.00000000000E+00 0. -1.
        -12    1    4    4    0    0  0.42736705922E+02 -0.12174067208E+03 -0.88459447060E+02  0.15643622038E+03  0.00000000000E+00 0.  1.
</event>
<event>
12    1  0.8053217E-002  0.2069244E+03  0.7818608E-02  0.1144143E+00
         21   -1    0    0  501  502  0.00000000000E+00  0.00000000000E+00  0.27977188276E+03  0.27977188276E+03  0.00000000000E+00 0.  1.
         21   -1    0    0  502  503 -0.00000000000E+00 -0.00000000000E+00 -0.16793477843E+03  0.16793477843E+03  0.00000000000E+00 0.  1.
         -6    2    1    2    0  503 -0.14445788024E+02 -0.11340663640E+03 -0.11623133158E+02  0.20725059115E+03  0.17247598191E+03 0.  0.
        -24    2    3    3    0    0  0.97611349854E+01 -0.13606240480E+03  0.22434875240E+02  0.15948766725E+03  0.79528200174E+02 0.  0.
          6    2    1    2  501    0  0.14445788024E+02  0.11340663640E+03  0.12346023749E+03  0.24045607004E+03  0.17177585804E+03 0.  0.
         24    2    5    5    0    0  0.47974125906E+02  0.13206499260E+03  0.10551840846E+03  0.19783819906E+03  0.90901812184E+02 0.  0.
          5    1    5    5  501    0 -0.33528337882E+02 -0.18658356198E+02  0.17941829028E+02  0.42617870970E+02  0.47000000000E+01 0. -1.
        -11    1    6    6    0    0  0.41408296173E+02  0.12010461689E+03  0.12220898321E+03  0.17628046280E+03  0.00000000000E+00 0.  1.
         12    1    6    6    0    0  0.65658297336E+01  0.11960375712E+02 -0.16690574748E+02  0.21557736260E+02  0.00000000000E+00 0. -1.
         -5    1    3    3    0  503 -0.24206923010E+02  0.22655768398E+02 -0.34058008397E+02  0.47762923898E+02  0.47000000000E+01 0.  1.
         11    1    4    4    0    0  0.10021942500E+02 -0.51931025847E+02  0.48139220037E+02  0.71516818181E+02  0.00000000000E+00 0. -1.
        -12    1    4    4    0    0 -0.26080751497E+00 -0.84131378953E+02 -0.25704344797E+02  0.87970849073E+02  0.00000000000E+00 0.  1.
</event>
<event>
12    1  0.8053217E-002  0.1990897E+03  0.7818608E-02  0.1150748E+00
         21   -1    0    0  503  502  0.00000000000E+00  0.00000000000E+00  0.11903790212E+03  0.11903790212E+03  0.00000000000E+00 0. -1.
         21   -1    0    0  501  503 -0.00000000000E+00 -0.00000000000E+00 -0.33109958867E+03  0.33109958867E+03  0.00000000000E+00 0. -1.
          6    2    1    2  501    0  0.17439629824E+02  0.98120446404E+02 -0.10662208577E+03  0.22584277663E+03  0.17235117607E+03 0.  0.
         24    2    3    3    0    0  0.77739948937E+02  0.54623085839E+02 -0.73126362720E+02  0.14415922673E+03  0.80045215723E+02 0.  0.
         -6    2    1    2    0  502 -0.17439629824E+02 -0.98120446404E+02 -0.10543960078E+03  0.22429471417E+03  0.17105217537E+03 0.  0.
        -24    2    5    5    0    0  0.28188668954E+02 -0.16727539539E+02 -0.98753248066E+02  0.13062751473E+03  0.78974248745E+02 0.  0.
          5    1    3    3  501    0 -0.60300319113E+02  0.43497360565E+02 -0.33495723052E+02  0.81683549898E+02  0.47000000000E+01 0. -1.
        -11    1    4    4    0    0  0.10446421237E+02  0.72158205146E+01 -0.59357262044E+02  0.60699920426E+02  0.00000000000E+00 0.  1.
         12    1    4    4    0    0  0.67293527700E+02  0.47407265324E+02 -0.13769100677E+02  0.83459306307E+02  0.00000000000E+00 0. -1.
         -5    1    5    5    0  502 -0.45628298778E+02 -0.81392906865E+02 -0.66863527147E+01  0.93667199435E+02  0.47000000000E+01 0.  1.
         13    1    6    6    0    0  0.94288253088E+01 -0.30126365102E+02 -0.25159132221E+01  0.31667498170E+02  0.00000000000E+00 0. -1.
        -14    1    6    6    0    0  0.18759843645E+02  0.13398825563E+02 -0.96237334844E+02  0.98960016562E+02  0.00000000000E+00 0.  1.
</event>
<event>
12    1  0.8053217E-002  0.1840833E+03  0.7818608E-02  0.1164102E+00
         21   -1    0    0  501  502  0.00000000000E+00  0.00000000000E+00  0.14507448248E+03  0.14507448248E+03  0.00000000000E+00 0. -1.
         21   -1    0    0  502  503 -0.00000000000E+00 -0.00000000000E+00 -0.23719438691E+03  0.23719438691E+03  0.00000000000E+00 0. -1.
         -6    2    1    2    0  503  0.30508696202E+02 -0.61361991012E+02 -0.19387489543E+02  0.18510144406E+03  0.17085255444E+03 0.  0.
        -24    2    3    3    0    0 -0.12075835592E+02 -0.98406540805E+02 -0.15350086466E+02  0.12832000659E+03  0.80004536492E+02 0.  0.
          6    2    1    2  501    0 -0.30508696202E+02  0.61361991012E+02 -0.72732414883E+02  0.19716742533E+03  0.16996739379E+03 0.  0.
         24    2    5    5    0    0 -0.58964959758E+02  0.68942924810E-01 -0.61077244197E+01  0.10215407859E+03  0.83194232027E+02 0.  0.
          5    1    5    5  501    0  0.28456263556E+02  0.61293048088E+02 -0.66624690463E+02  0.95013346740E+02  0.47000000000E+01 0. -1.
        -11    1    6    6    0    0 -0.58981442048E+02 -0.85511757998E+01 -0.36954579491E+02  0.70125416640E+02  0.00000000000E+00 0.  1.
         12    1    6    6    0    0  0.16482290247E-01  0.86201187247E+01  0.30846855071E+02  0.32028661949E+02  0.00000000000E+00 0. -1.
         -5    1    3    3    0  503  0.42584531793E+02  0.37044549793E+02 -0.40374030772E+01  0.56781437469E+02  0.47000000000E+01 0.  1.
         11    1    4    4    0    0 -0.13387596221E+01 -0.70622445235E+02  0.27781973030E+02  0.75902306116E+02  0.00000000000E+00 0. -1.
        -12    1    4    4    0    0 -0.10737075970E+02 -0.27784095570E+02 -0.43132059496E+02  0.52417700478E+02  0.00000000000E+00 0.  1.
</event>
<event>
12    1  0.8053217E-002  0.1924823E+03  0.7818608E-02  0.1156568E+00
         21   -1    0    0  503  502  0.00000000000E+00  0.00000000000E+00  0.12426441684E+04  0.12426441684E+04  0.00000000000E+00 0.  1.
         21   -1    0    0  501  503 -0.00000000000E+00 -0.00000000000E+00 -0.30624767830E+02  0.30624767830E+02  0.00000000000E+00 0.  1.
          6    2    1    2  501    0  0.45460730780E+02  0.71327918134E+02  0.48661841012E+03  0.52276507835E+03  0.17126441582E+03 0.  0.
         24    2    3    3    0    0 -0.18398581117E+02  0.42377100183E+02  0.40735080436E+03  0.41683300153E+03  0.75370730055E+02 0.  0.
         -6    2    1    2    0  502 -0.45460730780E+02 -0.71327918134E+02  0.72540099042E+03  0.75050385785E+03  0.17290197742E+03 0.  0.
        -24    2    5    5    0    0 -0.44409729693E+02 -0.66681593713E+02  0.24363238968E+03  0.26868878171E+03  0.80114050485E+02 0.  0.
          5    1    3    3  501    0  0.63859311896E+02  0.28950817951E+02  0.79267605766E+02  0.10593207682E+03  0.47000000000E+01 0. -1.
        -13    1    4    4    0    0 -0.70623171078E+01  0.54978927761E+02  0.16853638014E+03  0.17741778448E+03  0.00000000000E+00 0.  1.
         14    1    4    4    0    0 -0.11336264009E+02 -0.12601827578E+02  0.23881442422E+03  0.23941521705E+03  0.00000000000E+00 0. -1.
         -5    1    5    5    0  502 -0.10510010861E+01 -0.46463244211E+01  0.48176860074E+03  0.48181507613E+03  0.47000000000E+01 0.  1.
         13    1    6    6    0    0 -0.64464500542E+02 -0.34700542094E+02  0.18495672078E+03  0.19891904890E+03  0.00000000000E+00 0. -1.
        -14    1    6    6    0    0  0.20054770849E+02 -0.31981051619E+02  0.58675668901E+02  0.69769732818E+02  0.00000000000E+00 0.  1.
</event>
<event>
12    1  0.8053217E-002  0.2227180E+03  0.7818608E-02  0.1131932E+00
         21   -1    0    0  501  502  0.00000000000E+00  0.00000000000E+00  0.25171867670E+02  0.25171867670E+02  0.00000000000E+00 0.  1.
         21   -1    0    0  502  503 -0.00000000000E+00 -0.00000000000E+00 -0.22626827957E+04  0.22626827957E+04  0.00000000000E+00 0.  1.
         -6    2    1    2    0  503  0.12388410888E+03 -0.69067337533E+02 -0.15324750861E+04  0.15485745701E+04  0.17171412386E+03 0.  0.
        -24    2    3    3    0    0  0.14311746858E+03 -0.87521121091E+02 -0.14219511985E+04  0.14347849222E+04  0.92303876649E+02 0.  0.
          6    2    1    2  501    0 -0.12388410888E+03  0.69067337533E+02 -0.70503584196E+03  0.73928009322E+03  0.17129491599E+03 0.  0.
         24    2    5    5    0    0 -0.46410176610E+02  0.89441987845E+02 -0.30440821373E+03  0.33069482299E+03  0.80876026608E+02 0.  0.
          5    1    5    5  501    0 -0.77473932266E+02 -0.20374650311E+02 -0.40062762822E+03  0.40858527023E+03  0.47000000000E+01 0. -1.
        -13    1    6    6    0    0 -0.27174542801E+02  0.79763396052E+02 -0.29569167476E+03  0.30746417946E+03  0.00000000000E+00 0.  1.
         14    1    6    6    0    0 -0.19235633808E+02  0.96785917929E+01 -0.87165389693E+01  0.23230643528E+02  0.00000000000E+00 0. -1.
         -5    1    3    3    0  503 -0.19233359702E+02  0.18453783557E+02 -0.11052388753E+03  0.11378964790E+03  0.47000000000E+01 0.  1.
         13    1    4    4    0    0  0.50675471410E+02  0.15373513059E+02 -0.36519505377E+03  0.36901460080E+03  0.00000000000E+00 0. -1.
        -14    1    4    4    0    0  0.92441997168E+02 -0.10289463415E+03 -0.10567561448E+04  0.10657703214E+04  0.00000000000E+00 0.  1.
</event>
<event>
12    1  0.8053217E-002  0.1972270E+03  0.7818608E-02  0.1152350E+00
         21   -1    0    0  503  502  0.00000000000E+00  0.00000000000E+00  0.24354595584E+03  0.24354595584E+03  0.00000000000E+00 0. -1.
         21   -1    0    0  501  503 -0.00000000000E+00 -0.00000000000E+00 -0.23848079510E+03  0.23848079510E+03  0.00000000000E+00 0. -1.
          6    2    1    2  501    0  0.93286696505E+02 -0.10023624817E+02 -0.13679485947E+03  0.24002361070E+03  0.17348089036E+03 0.  0.
         24    2    3    3    0    0  0.13555153191E+02 -0.27463476475E+02 -0.61751419655E+01  0.85929911855E+02  0.80048939124E+02 0.  0.
         -6    2    1    2    0  502 -0.93286696505E+02  0.10023624817E+02  0.14186002020E+03  0.24200314024E+03  0.17215799068E+03 0.  0.
        -24    2    5    5    0    0 -0.36379220696E+01 -0.24043322379E+02  0.21236630988E+02  0.87829369205E+02  0.81680400165E+02 0.  0.
          5    1    3    3  501    0  0.79731543313E+02  0.17439851658E+02 -0.13061971750E+03  0.15409369885E+03  0.47000000000E+01 0. -1.
        -13    1    4    4    0    0  0.63305759447E+01 -0.38678615528E+02 -0.36025019183E+02  0.53234514162E+02  0.00000000000E+00 0.  1.
         14    1    4    4    0    0  0.72245772466E+01  0.11215139053E+02  0.29849877217E+02  0.32695397692E+02  0.00000000000E+00 0. -1.
         -5    1    5    5    0  502 -0.89648774435E+02  0.34066947196E+02  0.12062338921E+03  0.15417377103E+03  0.47000000000E+01 0.  1.
         13    1    6    6    0    0  0.64376641573E+01  0.25872099643E+02  0.25287969050E+02  0.36746298296E+02  0.00000000000E+00 0. -1.
        -14    1    6    6    0    0 -0.10075586227E+02 -0.49915422022E+02 -0.40513380623E+01  0.51083070909E+02  0.00000000000E+00 0.  1.
</event>
<event>
12    1  0.8053217E-002  0.1845122E+03  0.7818608E-02  0.1163627E+00
         21   -1    0    0  503  502  0.00000000000E+00  0.00000000000E+00  0.21455669167E+04  0.21455669167E+04  0.00000000000E+00 0. -1.
         21   -1    0    0  501  503 -0.00000000000E+00 -0.00000000000E+00 -0.21320718511E+02  0.21320718511E+02  0.00000000000E+00 0. -1.
          6    2    1    2  501    0 -0.10297056194E+02 -0.65404212197E+02  0.51086466926E+03  0.54298963388E+03  0.17167204742E+03 0.  0.
         24    2    3    3    0    0  0.51574685020E+02 -0.64327025878E+02  0.26307266005E+03  0.28754444892E+03  0.81710900414E+02 0.  0.
         -6    2    1    2    0  502  0.10297056194E+02  0.65404212197E+02  0.16133815290E+04  0.16238980014E+04  0.17222375123E+03 0.  0.
        -24    2    5    5    0    0 -0.11349385591E+02 -0.29936027305E+02  0.62204158770E+03  0.62773772367E+03  0.78063683006E+02 0.  0.
          5    1    3    3  501    0 -0.61871741214E+02 -0.10771863187E+01  0.24779200921E+03  0.25544518496E+03  0.47000000000E+01 0. -1.
        -11    1    4    4    0    0 -0.16421344213E+02 -0.16580993875E+02  0.20238650956E+02  0.30890012887E+02  0.00000000000E+00 0.  1.
         12    1    4    4    0    0  0.67996029233E+02 -0.47746032003E+02  0.24283400909E+03  0.25665443603E+03  0.00000000000E+00 0. -1.
         -5    1    5    5    0  502  0.21646441785E+02  0.95340239501E+02  0.99133994126E+03  0.99616027769E+03  0.47000000000E+01 0.  1.
         11    1    6    6    0    0 -0.23724523835E+02  0.20901718420E+02  0.26587281739E+03  0.26774631630E+03  0.00000000000E+00 0. -1.
        -12    1    6    6    0    0  0.12375138243E+02 -0.50837745725E+02  0.35616877030E+03  0.35999140736E+03  0.00000000000E+00 0.  1.
</event>
<event>
12    1  0.8053217E-002  0.2053893E+03  0.7818608E-02  0.1146066E+00
         21   -1    0    0  503  502  0.00000000000E+00  0.00000000000E+00  0.14053061939E+03  0.14053061939E+03  0.00000000000E+00 0.  1.
         21   -1    0    0  501  503 -0.00000000000E+00 -0.00000000000E+00 -0.31923171507E+03  0.31923171507E+03  0.00000000000E+00 0.  1.
          6    2    1    2  501    0  0.90997302761E+02 -0.59421802973E+02 -0.26226058128E+02  0.20705691881E+03  0.17427937836E+03 0.  0.
         24    2    3    3    0    0 -0.78785465917E+01 -0.24592337608E+02  0.26817819633E+02  0.89476018103E+02  0.81362815833E+02 0.  0.
         -6    2    1    2    0  502 -0.90997302761E+02  0.59421802973E+02 -0.15247503755E+03  0.25270541564E+03  0.16970542195E+03 0.  0.
        -24    2    5    5    0    0 -0.12797649080E+03  0.57401576644E+02 -0.13972528537E+03  0.21325686886E+03  0.79261677652E+02 0.  0.
          5    1    3    3  501    0  0.98875849353E+02 -0.34829465365E+02 -0.53043877761E+02  0.11758090071E+03  0.47000000000E+01 0. -1.
        -11    1    4    4    0    0  0.78999025136E+01  0.28544096862E+02  0.57044336662E+01  0.30161473585E+02  0.00000000000E+00 0.  1.
         12    1    4    4    0    0 -0.15778449105E+02 -0.53136434470E+02  0.21113385967E+02  0.59314544517E+02  0.00000000000E+00 0. -1.
         -5    1    5    5    0  502  0.36979188042E+02  0.20202263294E+01 -0.12749752182E+02  0.39448546784E+02  0.47000000000E+01 0.  1.
         13    1    6    6    0    0 -0.40092284050E+02  0.59776292778E+02 -0.50001493610E+02  0.87639864113E+02  0.00000000000E+00 0. -1.
        -14    1    6    6    0    0 -0.87884206754E+02 -0.23747161340E+01 -0.89723791759E+02  0.12561700475E+03  0.00000000000E+00 0.  1.
</event>
<event>
12    1  0.8053217E-002  0.2130123E+03  0.7818608E-02  0.1139402E+00
         21   -1    0    0  501  502  0.00000000000E+00  0.00000000000E+00  0.18031962167E+03  0.18031962167E+03  0.00000000000E+00 0.  1.
         21   -1    0    0  502  503 -0.00000000000E+00 -0.00000000000E+00 -0.25247283221E+03  0.25247283221E+03  0.00000000000E+00 0.  1.
         -6    2    1    2    0  503 -0.36333902147E+02  0.11771668871E+03 -0.55492985976E+02  0.21912964831E+03  0.17251365173E+03 0.  0.
        -24    2    3    3    0    0 -0.59106320035E+02  0.28603210106E+02 -0.70290078262E+02  0.12585136024E+03  0.81155215954E+02 0.  0.
          6    2    1    2  501    0  0.36333902147E+02 -0.11771668871E+03 -0.16660224566E+02  0.21366280556E+03  0.17377243783E+03 0.  0.
         24    2    5    5    0    0  0.91038383563E+02 -0.73275510778E+02 -0.30169602646E+01  0.14171958320E+03  0.80112735885E+02 0.  0.
          5    1    5    5  501    0 -0.54704481416E+02 -0.44441177932E+02 -0.13643264302E+02  0.71943222362E+02  0.47000000000E+01 0. -1.
        -11    1    6    6    0    0  0.60016504543E+02 -0.80712097835E+02 -0.24168793625E+02  0.10344348283E+03  0.00000000000E+00 0.  1.
         12    1    6    6    0    0  0.31021879019E+02  0.74365870567E+01  0.21151833360E+02  0.38276100369E+02  0.00000000000E+00 0. -1.
         -5    1    3    3    0  503  0.22772417888E+02  0.89113478604E+02  0.14797092286E+02  0.93278288071E+02  0.47000000000E+01 0.  1.
         13    1    4    4    0    0 -0.23172664568E+01 -0.25637512177E+02 -0.14788640837E+02  0.29687634669E+02  0.00000000000E+00 0. -1.
        -14    1    4    4    0    0 -0.56789053578E+02  0.54240722283E+02 -0.55501437426E+02  0.96163725574E+02  0.00000000000E+00 0.  1.
</event>
<event>
12    1  0.8053217E-002  0.1828099E+03  0.7818608E-02  0.1165288E+00
         21   -1    0    0  501  502  0.00000000000E+00  0.00000000000E+00  0.29554363089E+02  0.29554363089E+02  0.00000000000E+00 0. -1.
         21   -1    0    0  502  503 -0.00000000000E+00 -0.00000000000E+00 -0.13292785923E+04  0.13292785923E+04  0.00000000000E+00 0. -1.
         -6    2    1    2    0  503 -0.28655470750E+02 -0.52192105412E+02 -0.91655298178E+03  0.93460624416E+03  0.17284186799E+03 0.  0.
        -24    2    3    3    0    0 -0.61068880479E+02 -0.18422725127E+01 -0.76625721721E+03  0.77275247790E+03  0.79142068724E+02 0.  0.
          6    2    1    2  501    0  0.28655470750E+02  0.52192105412E+02 -0.38317124747E+03  0.42422671127E+03  0.17205506618E+03 0.  0.
         24    2    5    5    0    0 -0.40053961543E+02 -0.30390862242E+01 -0.14936684864E+03  0.17431061030E+03  0.80375229450E+02 0.  0.
          5    1    5    5  501    0  0.68709432294E+02  0.55231191636E+02 -0.23380439882E+03  0.24991610097E+03  0.47000000000E+01 0. -1.
        -13    1    6    6    0    0  0.81147225891E+01 -0.14695064452E+02  0.15727321077E+00  0.16787447001E+02  0.00000000000E+00 0.  1.
         14    1    6    6    0    0 -0.48168684132E+02  0.11655978228E+02 -0.14952412185E+03  0.15752316330E+03  0.00000000000E+00 0. -1.
         -5    1    3    3    0  503  0.32413409729E+02 -0.50349832899E+02 -0.15029576458E+03  0.16185376626E+03  0.47000000000E+01 0.  1.
         11    1    4    4    0    0  0.28380870137E+01 -0.21566024917E+02 -0.38935886131E+03  0.38996598704E+03  0.00000000000E+00 0. -1.
        -12    1    4    4    0    0 -0.63906967493E+02  0.19723752405E+02 -0.37689835590E+03  0.38278649086E+03  0.00000000000E+00 0.  1.
</event>
<event>
12    1  0.8053217E-002  0.2613526E+03  0.7818608E-02  0.1106692E+00
         21   -1    0    0  503  502  0.00000000000E+00  0.00000000000E+00  0.38750379634E+03  0.38750379634E+03  0.00000000000E+00 0.  1.
         21   -1    0    0  501  503 -0.00000000000E+00 -0.00000000000E+00 -0.24191301415E+03  0.24191301415E+03  0.00000000000E+00 0. -1.
          6    2    1    2  501    0  0.15627058980E+02 -0.19286728110E+03 -0.93379613893E+02  0.27528117843E+03  0.17209875600E+03 0.  0.
         24    2    3    3    0    0  0.11367739941E+02 -0.89368504849E+01 -0.30086036427E+02  0.80661775354E+02  0.73430644880E+02 0.  0.
         -6    2    1    2    0  502 -0.15627058980E+02  0.19286728110E+03  0.23897039609E+03  0.35413563205E+03  0.17567926056E+03 0.  0.
        -24    2    5    5    0    0 -0.16319198707E+02  0.15947090053E+02  0.41878717142E+02  0.89242346053E+02  0.75430388121E+02 0.  0.
          5    1    3    3  501    0  0.42593190391E+01 -0.18393043062E+03 -0.63293577466E+02  0.19461940308E+03  0.47000000000E+01 0. -1.
        -11    1    4    4    0    0 -0.32396378854E+01  0.16996273156E+02  0.17451632113E+02  0.24574946963E+02  0.00000000000E+00 0.  1.
         12    1    4    4    0    0  0.14607377826E+02 -0.25933123641E+02 -0.47537668540E+02  0.56086828391E+02  0.00000000000E+00 0. -1.
         -5    1    5    5    0  502  0.69213972744E+00  0.17692019105E+03  0.19709167895E+03  0.26489328600E+03  0.47000000000E+01 0.  1.
         11    1    6    6    0    0  0.58112666084E+01  0.18217254734E+02 -0.17445491619E+02  0.25884056241E+02  0.00000000000E+00 0. -1.
        -12    1    6    6    0    0 -0.22130465316E+02 -0.22701646810E+01  0.59324208761E+02  0.63358289812E+02  0.00000000000E+00 0.  1.
</event>
<event>
12    1  0.8053217E-002  0.1744997E+03  0.7818608E-02  0.1173552E+00
         21   -1    0    0  503  502  0.00000000000E+00  0.00000000000E+00  0.12655552767E+03  0.12655552767E+03  0.00000000000E+00 0. -1.
         21   -1    0    0  501  503 -0.00000000000E+00 -0.00000000000E+00 -0.32065144034E+03  0.32065144034E+03  0.00000000000E+00 0. -1.
          6    2    1    2  501    0 -0.13370396737E+02 -0.24041545102E+02 -0.20970446856E+03  0.27201059737E+03  0.17104688698E+03 0.  0.
         24    2    3    3    0    0 -0.21887051395E+02 -0.76494661569E+02 -0.17379681497E+03  0.20770420251E+03  0.81272545038E+02 0.  0.
         -6    2    1    2    0  502  0.13370396737E+02  0.24041545102E+02  0.15608555892E+02  0.17519637064E+03  0.17231766557E+03 0.  0.
        -24    2    5    5    0    0  0.23672655477E+02  0.53958378614E+02  0.63627067749E+02  0.11749870220E+03  0.79282028400E+02 0.  0.
          5    1    3    3  501    0  0.85166546574E+01  0.52453116468E+02 -0.35907653586E+02  0.64306394859E+02  0.47000000000E+01 0. -1.
        -11    1    4    4    0    0 -0.52123821207E+02 -0.59033037048E+02 -0.12366272914E+03  0.14660921792E+03  0.00000000000E+00 0.  1.
         12    1    4    4    0    0  0.30236769812E+02 -0.17461624522E+02 -0.50134085829E+02  0.61094984586E+02  0.00000000000E+00 0. -1.
         -5    1    5    5    0  502 -0.10302258740E+02 -0.29916833512E+02 -0.48018511858E+02  0.57697668442E+02  0.47000000000E+01 0.  1.
         11    1    6    6    0    0 -0.86878389802E+01  0.32259064149E+02 -0.94191993736E+01  0.34710907259E+02  0.00000000000E+00 0. -1.
        -12    1    6    6    0    0  0.32360494458E+02  0.21699314465E+02  0.73046267123E+02  0.82787794936E+02  0.00000000000E+00 0.  1.
</event>
<event>
12    1  0.8053217E-002  0.3587836E+03  0.7818608E-02  0.1059081E+00
         21   -1    0    0  501  502  0.00000000000E+00  0.00000000000E+00  0.67071375381E+02  0.67071375381E+02  0.00000000000E+00 0. -1.
         21   -1    0    0  502  503 -0.00000000000E+00 -0.00000000000E+00 -0.19642728266E+04  0.19642728266E+04  0.00000000000E+00 0. -1.
         -6    2    1    2    0  503  0.96204275309E+02  0.29979361900E+03 -0.11038636571E+04  0.11607069526E+04  0.17202958947E+03 0.  0.
        -24    2    3    3    0    0  0.52399013659E+02  0.27450218885E+03 -0.77433182399E+03  0.82728248371E+03  0.81911085319E+02 0.  0.
          6    2    1    2  501    0 -0.96204275309E+02 -0.29979361900E+03 -0.79333779410E+03  0.87063724941E+03  0.17173493511E+03 0.  0.
         24    2    5    5    0    0 -0.81988202476E+02 -0.22131994155E+03 -0.72082070780E+03  0.76274363244E+03  0.80565340904E+02 0.  0.
          5    1    5    5  501    0 -0.14216072833E+02 -0.78473677445E+02 -0.72517086298E+02  0.10789361697E+03  0.47000000000E+01 0. -1.
        -11    1    6    6    0    0  0.31413044322E+01  0.48981872881E+01 -0.69522398284E+01  0.90660725166E+01  0.00000000000E+00 0.  1.
         12    1    6    6    0    0 -0.85129506908E+02 -0.22621812884E+03 -0.71386846797E+03  0.75367755992E+03  0.00000000000E+00 0. -1.
         -5    1    3    3    0  503  0.43805261650E+02  0.25291430148E+02 -0.32953183312E+03  0.33342446885E+03  0.47000000000E+01 0.  1.
         11    1    4    4    0    0  0.29055340540E+02  0.74080543531E+02 -0.32709816630E+03  0.33663830760E+03  0.00000000000E+00 0. -1.
        -12    1    4    4    0    0  0.23343673118E+02  0.20042164532E+03 -0.44723365769E+03  0.49064417611E+03  0.00000000000E+00 0.  1.
</event>
<event>
12    1  0.8053217E-002  0.2236239E+03  0.7818608E-02  0.1131687E+00
         21   -1    0    0  501  502  0.00000000000E+00  0.00000000000E+00  0.21617214220E+03  0.21617214220E+03  0.00000000000E+00 0. -1.
         21   -1    0    0  502  503 -0.00000000000E+00 -0.00000000000E+00 -0.39299480782E+03  0.39299480782E+03  0.00000000000E+00 0. -1.
         -6    2    1    2    0  503 -0.99758730470E+02  0.98224336862E+02 -0.28567532612E+03  0.36279200195E+03  0.17437838189E+03 0.  0.
        -24    2    3    3    0    0 -0.12995813263E+03  0.42509269242E+02 -0.22963528212E+03  0.27806450239E+03  0.76755133311E+02 0.  0.
          6    2    1    2  501    0  0.99758730470E+02 -0.98224336862E+02  0.10885266050E+03  0.24637494807E+03  0.17103183528E+03 0.  0.
         24    2    5    5    0    0  0.46670509668E+02 -0.12653385867E+03  0.99007982455E+02  0.18522925404E+03  0.79487999716E+02 0.  0.
          5    1    5    5  501    0  0.53088220801E+02  0.28309521806E+02  0.98446780462E+01  0.61145694031E+02  0.47000000000E+01 0. -1.
        -11    1    6    6    0    0  0.39770976695E+02 -0.31031958589E+02  0.44224743150E+01  0.50638634660E+02  0.00000000000E+00 0.  1.
         12    1    6    6    0    0  0.68995329733E+01 -0.95501900078E+02  0.94585508140E+02  0.13459061938E+03  0.00000000000E+00 0. -1.
         -5    1    3    3    0  503  0.30199402156E+02  0.55715067620E+02 -0.56040043998E+02  0.84727499561E+02  0.47000000000E+01 0.  1.
         13    1    4    4    0    0 -0.91580339309E+02  0.60298152644E+02 -0.13160377226E+03  0.17129617227E+03  0.00000000000E+00 0. -1.
        -14    1    4    4    0    0 -0.38377793317E+02 -0.17788883403E+02 -0.98031509856E+02  0.10676833012E+03  0.00000000000E+00 0.  1.
</event>
<event>
12    1  0.8053217E-002  0.1807287E+03  0.7818608E-02  0.1167867E+00
         21   -1    0    0  503  502  0.00000000000E+00  0.00000000000E+00  0.52258526161E+03  0.52258526161E+03  0.00000000000E+00 0.  1.
         21   -1    0    0  501  503 -0.00000000000E+00 -0.00000000000E+00 -0.68416356006E+02  0.68416356006E+02  0.00000000000E+00 0.  1.
          6    2    1    2  501    0  0.35208783263E+02 -0.20200330637E+02  0.13435737075E+03  0.22519939297E+03  0.17611119142E+03 0.  0.
         24    2    3    3    0    0  0.38562615608E+02  0.11199375299E+02  0.16086579987E+03  0.18370268781E+03  0.79097222531E+02 0.  0.
         -6    2    1    2    0  502 -0.35208783263E+02  0.20200330637E+02  0.31981153485E+03  0.36580222465E+03  0.17287029228E+03 0.  0.
        -24    2    5    5    0    0 -0.58881606266E+02 -0.43807350590E+02  0.21328866714E+03  0.23920602743E+03  0.79632534207E+02 0.  0.
          5    1    3    3  501    0 -0.33538323458E+01 -0.31399705936E+02 -0.26508429121E+02  0.41496705155E+02  0.47000000000E+01 0. -1.
        -13    1    4    4    0    0  0.11216911727E+02 -0.32940076485E+02  0.46291098234E+02  0.57911428261E+02  0.00000000000E+00 0.  1.
         14    1    4    4    0    0  0.27345703881E+02  0.44139451784E+02  0.11457470164E+03  0.12579125955E+03  0.00000000000E+00 0. -1.
         -5    1    5    5    0  502  0.23672823003E+02  0.64007681227E+02  0.10652286771E+03  0.12659619722E+03  0.47000000000E+01 0.  1.
         11    1    6    6    0    0 -0.64172673518E+02 -0.90174064597E+01  0.89399939113E+02  0.11041646054E+03  0.00000000000E+00 0. -1.
        -12    1    6    6    0    0  0.52910672522E+01 -0.34789944130E+02  0.12388872803E+03  0.12878956688E+03  0.00000000000E+00 0.  1.
</event>
<event>
12    1  0.8053217E-002  0.2349896E+03  0.7818608E-02  0.1123301E+00
         21   -1    0    0  501  502  0.00000000000E+00  0.00000000000E+00  0.82104726182E+02  0.82104726182E+02  0.00000000000E+00 0. -1.
         21   -1    0    0  502  503 -0.00000000000E+00 -0.00000000000E+00 -0.70187620596E+03  0.70187620596E+03  0.00000000000E+00 0. -1.
         -6    2    1    2    0  503  0.11226046429E+03 -0.11307590964E+03 -0.39324799003E+03  0.45810926449E+03  0.17271810376E+03 0.  0.
        -24    2    3    3    0    0  0.11326027196E+02  0.18044416530E+01 -0.12278086166E+03  0.14736851526E+03  0.80689555693E+02 0.  0.
          6    2    1    2  501    0 -0.11226046429E+03  0.11307590964E+03 -0.22652348975E+03  0.32587166765E+03  0.17172908660E+03 0.  0.
         24    2    5    5    0    0 -0.93437196555E+02  0.21864877008E+02 -0.92984319716E+02  0.16299573998E+03  0.93343157172E+02 0.  0.
          5    1    5    5  501    0 -0.18823267734E+02  0.91211032636E+02 -0.13353917004E+03  0.16287592768E+03  0.47000000000E+01 0. -1.
        -13    1    6    6    0    0 -0.10778404035E+02 -0.90538757846E+00  0.19057485946E+02  0.21913043851E+02  0.00000000000E+00 0.  1.
         14    1    6    6    0    0 -0.82658792520E+02  0.22770264586E+02 -0.11204180566E+03  0.14108269613E+03  0.00000000000E+00 0. -1.
         -5    1    3    3    0  503  0.10093443709E+03 -0.11488035130E+03 -0.27046712837E+03  0.31074074923E+03  0.47000000000E+01 0.  1.
         11    1    4    4    0    0 -0.30728078480E+02 -0.10206209163E+02 -0.27315833888E+02  0.42361967536E+02  0.00000000000E+00 0. -1.
        -12    1    4    4    0    0  0.42054105676E+02  0.12010650816E+02 -0.95465027767E+02  0.10500654772E+03  0.00000000000E+00 0.  1.
</event>
<event>
12    1  0.8053217E-002  0.1793735E+03  0.7818608E-02  0.1168658E+00
         21   -1    0    0  503  502  0.00000000000E+00  0.00000000000E+00  0.54261119773E+02  0.54261119773E+02  0.00000000000E+00 0.  1.
         21   -1    0    0  501  503 -0.00000000000E+00 -0.00000000000E+00 -0.59994776703E+03  0.59994776703E+03  0.00000000000E+00 0.  1.
          6    2    1    2  501    0 -0.41093970282E+02 -0.29560535244E+02 -0.23067129541E+03  0.29220555261E+03  0.17208224433E+03 0.  0.
         24    2    3    3    0    0 -0.82471376783E+02 -0.58128165342E+02 -0.15463976091E+03  0.20093078338E+03  0.79242112941E+02 0.  0.
         -6    2    1    2    0  502  0.41093970282E+02  0.29560535244E+02 -0.31501535185E+03  0.36200333420E+03  0.17102398203E+03 0.  0.
        -24    2    5    5    0    0  0.31732136332E+01  0.57848165555E+02 -0.98653968014E+02  0.14048017011E+03  0.81520508126E+02 0.  0.
          5    1    3    3  501    0  0.41377406501E+02  0.28567630099E+02 -0.76031534501E+02  0.91274769224E+02  0.47000000000E+01 0. -1.
        -13    1    4    4    0    0 -0.26677746701E+02  0.13528914049E+02 -0.72697089871E+02  0.78610435440E+02  0.00000000000E+00 0.  1.
         14    1    4    4    0    0 -0.55793630082E+02 -0.71657079391E+02 -0.81942671037E+02  0.12232034794E+03  0.00000000000E+00 0. -1.
         -5    1    5    5    0  502  0.37920756648E+02 -0.28287630311E+02 -0.21636138384E+03  0.22152316409E+03  0.47000000000E+01 0.  1.
         13    1    6    6    0    0 -0.21086284208E+02 -0.68694610900E+01 -0.53521542342E+02  0.57934241793E+02  0.00000000000E+00 0. -1.
        -14    1    6    6    0    0  0.24259497841E+02  0.64717626645E+02 -0.45132425671E+02  0.82545928313E+02  0.00000000000E+00 0.  1.
</event>
<event>
12    1  0.8053217E-002  0.2177883E+03  0.7818608E-02  0.1137752E+00
         21   -1    0    0  501  502  0.00000000000E+00  0.00000000000E+00  0.14256891891E+03  0.14256891891E+03  0.00000000000E+00 0.  1.
         21   -1    0    0  502  503 -0.00000000000E+00 -0.00000000000E+00 -0.40852661191E+03  0.40852661191E+03  0.00000000000E+00 0. -1.
         -6    2    1    2    0  503  0.10684945289E+02 -0.13226935222E+03 -0.43174214973E+01  0.21783107685E+03  0.17269159887E+03 0.  0.
        -24    2    3    3    0    0  0.27742419182E+02 -0.28197604868E+00 -0.94278360298E+01  0.84565060094E+02  0.79326187126E+02 0.  0.
          6    2    1    2  501    0 -0.10684945289E+02  0.13226935222E+03 -0.26164027151E+03  0.33326445397E+03  0.15811456294E+03 0.  0.
         24    2    5    5    0    0 -0.17002198076E+02  0.14102961409E+03 -0.15550895321E+03  0.22648151247E+03  0.83261120422E+02 0.  0.
          5    1    5    5  501    0  0.63172527878E+01 -0.87602618726E+01 -0.10613131830E+03  0.10678294150E+03  0.47000000000E+01 0. -1.
        -13    1    6    6    0    0 -0.16530838151E+01 -0.38675369718E+01  0.70307887642E+01  0.81928333911E+01  0.00000000000E+00 0.  1.
         14    1    6    6    0    0 -0.15349114261E+02  0.14489715106E+03 -0.16253974197E+03  0.21828867908E+03  0.00000000000E+00 0. -1.
         -5    1    3    3    0  503 -0.17057473893E+02 -0.13198737617E+03  0.51104145324E+01  0.13326601675E+03  0.47000000000E+01 0.  1.
         11    1    4    4    0    0 -0.21176362515E+02 -0.86572970918E+01  0.16844243435E+02  0.28409781048E+02  0.00000000000E+00 0. -1.
        -12    1    4    4    0    0  0.48918781697E+02  0.83753210431E+01 -0.26272079465E+02  0.56155279046E+02  0.00000000000E+00 0.  1.
</event>
<event>
12    1  0.8053217E-002  0.1722472E+03  0.7818608E-02  0.1176269E+00
         21   -1    0    0  501  502  0.00000000000E+00  0.00000000000E+00  0.18359041020E+03  0.18359041020E+03  0.00000000000E+00 0. -1.
         21   -1    0    0  502  503 -0.00000000000E+00 -0.00000000000E+00 -0.20245716924E+03  0.20245716924E+03  0.00000000000E+00 0. -1.
         -6    2    1    2    0  503  0.47663857145E+01  0.54857860332E+01 -0.98885354617E+02  0.19612110998E+03  0.16921100479E+03 0.  0.
        -24    2    3    3    0    0 -0.58510989998E+02  0.23277911649E+01 -0.84948817215E+02  0.13108022835E+03  0.80850294722E+02 0.  0.
          6    2    1    2  501    0 -0.47663857145E+01 -0.54857860332E+01  0.80018595576E+02  0.18992646945E+03  0.17209379965E+03 0.  0.
         24    2    5    5    0    0 -0.25823162588E+02 -0.20675431997E+01 -0.20731831124E+02  0.86835195735E+02  0.80246071154E+02 0.  0.
          5    1    5    5  501    0  0.21056776873E+02 -0.34182428335E+01  0.10075042670E+03  0.10309127372E+03  0.47000000000E+01 0. -1.
        -11    1    6    6    0    0 -0.49426635612E+02  0.10306264144E+02  0.37740777199E+01  0.50630574272E+02  0.00000000000E+00 0.  1.
         12    1    6    6    0    0  0.23603473024E+02 -0.12373807343E+02 -0.24505908844E+02  0.36204621463E+02  0.00000000000E+00 0. -1.
         -5    1    3    3    0  503  0.63277375713E+02  0.31579948683E+01 -0.13936537402E+02  0.65040881632E+02  0.47000000000E+01 0.  1.
         13    1    4    4    0    0 -0.57941038193E+02 -0.30270614142E+00 -0.13387505373E+02  0.59468317935E+02  0.00000000000E+00 0. -1.
        -14    1    4    4    0    0 -0.56995180483E+00  0.26304973063E+01 -0.71561311842E+02  0.71611910418E+02  0.00000000000E+00 0.  1.
</event>
<event>
12    1  0.8053217E-002  0.1827013E+03  0.7818608E-02  0.1165346E+00
         21   -1    0    0  503  502  0.00000000000E+00  0.00000000000E+00  0.93041302508E+02  0.93041302508E+02  0.00000000000E+00 0. -1.
         21   -1    0    0  501  503 -0.00000000000E+00 -0.00000000000E+00 -0.67695696945E+03  0.67695696945E+03  0.00000000000E+00 0. -1.
          6    2    1    2  501    0 -0.35362386295E+02  0.50259136113E+02 -0.55659730186E+03  0.58581595786E+03  0.17205609818E+03 0.  0.
         24    2    3    3    0    0  0.38505522979E+02  0.40223508334E+01 -0.21186494591E+03  0.23020831513E+03  0.81303495878E+02 0.  0.
         -6    2    1    2    0  502  0.35362386295E+02 -0.50259136113E+02 -0.27318365080E+02  0.18418231409E+03  0.17146531027E+03 0.  0.
        -24    2    5    5    0    0  0.39789918021E+02 -0.76719314863E+02  0.27650682137E+02  0.12283551101E+03  0.82794394093E+02 0.  0.
          5    1    3    3  501    0 -0.73867909274E+02  0.46236785280E+02 -0.34473235595E+03  0.35560764274E+03  0.47000000000E+01 0. -1.
        -13    1    4    4    0    0  0.33178128698E+02  0.39597578039E+02 -0.14998480499E+03  0.15863227332E+03  0.00000000000E+00 0.  1.
         14    1    4    4    0    0  0.53273942809E+01 -0.35575227206E+02 -0.61880140917E+02  0.71576041805E+02  0.00000000000E+00 0. -1.
         -5    1    5    5    0  502 -0.44275317265E+01  0.26460178750E+02 -0.54969047217E+02  0.61346803083E+02  0.47000000000E+01 0.  1.
         13    1    6    6    0    0  0.53487504723E+02 -0.62857935583E+02 -0.72603286103E+01  0.82853760318E+02  0.00000000000E+00 0. -1.
        -14    1    6    6    0    0 -0.13697586702E+02 -0.13861379280E+02  0.34911010747E+02  0.39981750692E+02  0.00000000000E+00 0.  1.
</event>
<event>
12    1  0.8053217E-002  0.1932241E+03  0.7818608E-02  0.1156010E+00
         21   -1    0    0  501  502  0.00000000000E+00  0.00000000000E+00  0.10299494325E+04  0.10299494325E+04  0.00000000000E+00 0.  1.
         21   -1    0    0  502  503 -0.00000000000E+00 -0.00000000000E+00 -0.46807032720E+02  0.46807032720E+02  0.00000000000E+00 0.  1.
         -6    2    1    2    0  503 -0.12450191841E+02 -0.84182353311E+02  0.74968050924E+03  0.77370532801E+03  0.17133999173E+03 0.  0.
        -24    2    3    3    0    0  0.18714863787E+02 -0.75709090526E+02  0.25805251834E+03  0.28099524255E+03  0.79278695749E+02 0.  0.
          6    2    1    2  501    0  0.12450191841E+02  0.84182353311E+02  0.23346189054E+03  0.30305113721E+03  0.17347582410E+03 0.  0.
         24    2    5    5    0    0 -0.44122322211E+02  0.98462163580E+02  0.16381523927E+03  0.21207252236E+03  0.80608592276E+02 0.  0.
          5    1    5    5  501    0  0.56572514052E+02 -0.14279810269E+02  0.69646651269E+02  0.90978614852E+02  0.47000000000E+01 0. -1.
        -11    1    6    6    0    0  0.34655469245E+01 -0.52234357148E+01 -0.52085921722E+01  0.81500753720E+01  0.00000000000E+00 0.  1.
         12    1    6    6    0    0 -0.47587869135E+02  0.10368559930E+03  0.16902383144E+03  0.20392244699E+03  0.00000000000E+00 0. -1.
         -5    1    3    3    0  503 -0.31165055628E+02 -0.84732627858E+01  0.49162799091E+03  0.49271008546E+03  0.47000000000E+01 0.  1.
         11    1    4    4    0    0  0.44152711225E+02 -0.69252027315E+02  0.21945930756E+03  0.23432390588E+03  0.00000000000E+00 0. -1.
        -12    1    4    4    0    0 -0.25437847438E+02 -0.64570632108E+01  0.38593210779E+02  0.46671336662E+02  0.00000000000E+00 0.  1.
</event>
<event>
12    1  0.8053217E-002  0.2036541E+03  0.7818608E-02  0.1146815E+00
         21   -1    0    0  503  502  0.00000000000E+00  0.00000000000E+00  0.30464590597E+03  0.30464590597E+03  0.00000000000E+00 0.  1.
         21   -1    0    0  501  503 -0.00000000000E+00 -0.00000000000E+00 -0.16776685541E+03  0.16776685541E+03  0.00000000000E+00 0.  1.
          6    2    1    2  501    0  0.10701917775E+03 -0.12699619688E+02 -0.34840105299E+02  0.20602495237E+03  0.17209899278E+03 0.  0.
         24    2    3    3    0    0  0.12172494589E+03 -0.60462283335E+01 -0.73537856556E+02  0.16383332778E+03  0.81117344719E+02 0.  0.
         -6    2    1    2    0  502 -0.10701917775E+03  0.12699619688E+02  0.17171915586E+03  0.26638780901E+03  0.17280223250E+03 0.  0.
        -24    2    5    5    0    0  0.19173049553E+01 -0.31492110384E+02  0.74792291140E+02  0.11395102417E+03  0.79971995221E+02 0.  0.
          5    1    3    3  501    0 -0.14705768146E+02 -0.66533913548E+01  0.38697751256E+02  0.42191624591E+02  0.47000000000E+01 0. -1.
        -11    1    4    4    0    0  0.14082088209E+02 -0.32604593474E+02 -0.18867631815E+02  0.40216318258E+02  0.00000000000E+00 0.  1.
         12    1    4    4    0    0  0.10764285769E+03  0.26558365141E+02 -0.54670224741E+02  0.12361700952E+03  0.00000000000E+00 0. -1.
         -5    1    5    5    0  502 -0.10893648270E+03  0.44191730072E+02  0.96926864716E+02  0.15243678485E+03  0.47000000000E+01 0.  1.
         11    1    6    6    0    0 -0.14211509783E+02 -0.53866365744E+02  0.62587037517E+02  0.83789555638E+02  0.00000000000E+00 0. -1.
        -12    1    6    6    0    0  0.16128814738E+02  0.22374255360E+02  0.12205253622E+02  0.30161468528E+02  0.00000000000E+00 0.  1.
</event>
<event>
12    1  0.8053217E-002  0.3896622E+03  0.7818608E-02  0.1047610E+00
         21   -1    0    0  501  502  0.00000000000E+00  0.00000000000E+00  0.74495475446E+03  0.74495475446E+03  0.00000000000E+00 0.  1.
         21   -1    0    0  502  503 -0.00000000000E+00 -0.00000000000E+00 -0.49690370709E+03  0.49690370709E+03  0.00000000000E+00 0. -1.
         -6    2    1    2    0  503 -0.21778359919E+03  0.27267773572E+03 -0.35388509721E+03  0.52480631954E+03  0.16853535940E+03 0.  0.
        -24    2    3    3    0    0 -0.15283602261E+03  0.99139749725E+02 -0.14695380598E+03  0.24700014687E+03  0.78905713834E+02 0.  0.
          6    2    1    2  501    0  0.21778359919E+03 -0.27267773572E+03  0.60193614458E+03  0.71705214200E+03  0.17336034312E+03 0.  0.
         24    2    5    5    0    0  0.13384064428E+03 -0.91485872065E+02  0.36149385721E+03  0.40446376300E+03  0.81425695747E+02 0.  0.
          5    1    5    5  501    0  0.83942954908E+02 -0.18119186366E+03  0.24044228736E+03  0.31258837900E+03  0.47000000000E+01 0. -1.
        -11    1    6    6    0    0  0.26475172086E+02  0.13926131915E+02  0.45156561933E+02  0.54166290003E+02  0.00000000000E+00 0.  1.
         12    1    6    6    0    0  0.10736547220E+03 -0.10541200398E+03  0.31633729528E+03  0.35029747300E+03  0.00000000000E+00 0. -1.
         -5    1    3    3    0  503 -0.64947576576E+02  0.17353798600E+03 -0.20693129123E+03  0.27780617268E+03  0.47000000000E+01 0.  1.
         13    1    4    4    0    0 -0.35189055527E+02  0.26211314702E+02 -0.84357613898E+02  0.95086853297E+02  0.00000000000E+00 0. -1.
        -14    1    4    4    0    0 -0.11764696709E+03  0.72928435023E+02 -0.62596192081E+02  0.15191329357E+03  0.00000000000E+00 0.  1.
</event>
<event>
12    1  0.8053217E-002  0.2071261E+03  0.7818608E-02  0.1145150E+00
         21   -1    0    0  503  502  0.00000000000E+00  0.00000000000E+00  0.18334236517E+03  0.18334236517E+03  0.00000000000E+00 0. -1.
         21   -1    0    0  501  503 -0.00000000000E+00 -0.00000000000E+00 -0.42729075620E+03  0.42729075620E+03  0.00000000000E+00 0.  1.
          6    2    1    2  501    0 -0.11060025039E+03  0.18829050092E+02 -0.33202006475E+03  0.39132919417E+03  0.17410992592E+03 0.  0.
         24    2    3    3    0    0 -0.32067778397E+02 -0.36217301839E+02 -0.84101663570E+02  0.12546630910E+03  0.79552935456E+02 0.  0.
         -6    2    1    2    0  502  0.11060025039E+03 -0.18829050092E+02  0.88071673720E+02  0.21930392720E+03  0.16658524623E+03 0.  0.
        -24    2    5    5    0    0  0.23960668024E+01  0.42584161644E+01  0.72805756675E+02  0.10751701085E+03  0.78964258833E+02 0.  0.
          5    1    3    3  501    0 -0.78532471992E+02  0.55046351931E+02 -0.24791840118E+03  0.26586288508E+03  0.47000000000E+01 0. -1.
        -11    1    4    4    0    0 -0.51218968215E+02  0.39554752990E+00 -0.39626348161E+02  0.64759452063E+02  0.00000000000E+00 0.  1.
         12    1    4    4    0    0  0.19151189818E+02 -0.36612849369E+02 -0.44475315409E+02  0.60706857035E+02  0.00000000000E+00 0. -1.
         -5    1    5    5    0  502  0.10820418359E+03 -0.23087466257E+02  0.15265917045E+02  0.11178691635E+03  0.47000000000E+01 0.  1.
         13    1    6    6    0    0  0.37902294707E+02 -0.11426178626E+02  0.29559042417E+02  0.49405247603E+02  0.00000000000E+00 0. -1.
        -14    1    6    6    0    0 -0.35506227905E+02  0.15684594791E+02  0.43246714258E+02  0.58111763249E+02  0.00000000000E+00 0.  1.
</event>
<event>
12    1  0.8053217E-002  0.1747113E+03  0.7818608E-02  0.1173035E+00
         21   -1    0    0  501  502  0.00000000000E+00  0.00000000000E+00  0.19181357037E+03  0.19181357037E+03  0.00000000000E+00 0.  1.
         21   -1    0    0  502  503 -0.00000000000E+00 -0.00000000000E+00 -0.16872796858E+03  0.16872796858E+03  0.00000000000E+00 0.  1.
         -6    2    1    2    0  503  0.42957792019E+01 -0.30753106994E+02  0.54636498821E+02  0.18305509717E+03  0.17192967832E+03 0.  0.
        -24    2    3    3    0    0 -0.16254199869E+02  0.85323827464E+01  0.92954593792E+02  0.12426719241E+03  0.80403843395E+02 0.  0.
          6    2    1    2  501    0 -0.42957792019E+01  0.30753106994E+02 -0.31550897032E+02  0.17748644178E+03  0.17187719629E+03 0.  0.
         24    2    5    5    0    0 -0.37395276097E+02  0.17661371426E+02  0.38683889893E+02  0.98606878333E+02  0.80725103916E+02 0.  0.
          5    1    5    5  501    0  0.33099496896E+02  0.13091735569E+02 -0.70234786925E+02  0.78879563446E+02  0.47000000000E+01 0. -1.
        -13    1    6    6    0    0 -0.90624711504E+01  0.33822418342E+02 -0.13117254102E+02  0.37391800184E+02  0.00000000000E+00 0.  1.
         14    1    6    6    0    0 -0.28332804947E+02 -0.16161046916E+02  0.51801143995E+02  0.61215078149E+02  0.00000000000E+00 0. -1.
         -5    1    3    3    0  503  0.20549979071E+02 -0.39285489741E+02 -0.38318094971E+02  0.58787904761E+02  0.47000000000E+01 0.  1.
         11    1    4    4    0    0  0.17983687143E+02 -0.60025622589E+01 -0.48999017301E+01  0.19581950718E+02  0.00000000000E+00 0. -1.
        -12    1    4    4    0    0 -0.34237887013E+02  0.14534945005E+02  0.97854495522E+02  0.10468524169E+03  0.00000000000E+00 0.  1.
</event>
<event>
12    1  0.8053217E-002  0.1793993E+03  0.7818608E-02  0.1168544E+00
         21   -1    0    0  503  502  0.00000000000E+00  0.00000000000E+00  0.27202830208E+02  0.27202830208E+02  0.00000000000E+00 0.  1.
         21   -1    0    0  501  503 -0.00000000000E+00 -0.00000000000E+00 -0.14187631746E+04  0.14187631746E+04  0.00000000000E+00 0. -1.
          6    2    1    2  501    0  0.43148716947E+02 -0.28542281640E+02 -0.99413750638E+03  0.10101947849E+04  0.17177790404E+03 0.  0.
         24    2    3    3    0    0  0.41631895543E+02 -0.60313328339E+02 -0.37085867178E+03  0.38608718539E+03  0.78461761306E+02 0.  0.
         -6    2    1    2    0  502 -0.43148716947E+02  0.28542281640E+02 -0.39742283803E+03  0.43577121989E+03  0.17109988392E+03 0.  0.
        -24    2    5    5    0    0  0.34785432081E+02 -0.11041297838E+02 -0.26979509958E+03  0.28100843053E+03  0.69601765241E+02 0.  0.
          5    1    3    3  501    0  0.15168214038E+01  0.31771046698E+02 -0.62327883460E+03  0.62410759955E+03  0.47000000000E+01 0. -1.
        -11    1    4    4    0    0  0.40499274726E+02 -0.77284573141E+02 -0.26839886280E+03  0.28222516906E+03  0.00000000000E+00 0.  1.
         12    1    4    4    0    0  0.11326208172E+01  0.16971244803E+02 -0.10245980898E+03  0.10386201633E+03  0.00000000000E+00 0. -1.
         -5    1    5    5    0  502 -0.77934149028E+02  0.39583579479E+02 -0.12762773845E+03  0.15476278936E+03  0.47000000000E+01 0.  1.
         13    1    6    6    0    0  0.57943960274E+01  0.73091093393E+01 -0.22187824757E+03  0.22207421023E+03  0.00000000000E+00 0. -1.
        -14    1    6    6    0    0  0.28991036054E+02 -0.18350407177E+02 -0.47916852013E+02  0.58934220296E+02  0.00000000000E+00 0.  1.
</event>
<event>
12    1  0.8053217E-002  0.1786335E+03  0.7818608E-02  0.1169402E+00
         21   -1    0    0  501  502  0.00000000000E+00  0.00000000000E+00  0.63422447067E+02  0.63422447067E+02  0.00000000000E+00 0. -1.
         21   -1    0    0  502  503 -0.00000000000E+00 -0.00000000000E+00 -0.50035974885E+03  0.50035974885E+03  0.00000000000E+00 0. -1.
         -6    2    1    2    0  503 -0.30572760994E+02 -0.31760287059E+02 -0.21070028043E+03  0.27552344115E+03  0.17197426814E+03 0.  0.
        -24    2    3    3    0    0  0.33833149253E+02  0.12897061747E+02 -0.16098204520E+03  0.18259124548E+03  0.78187773093E+02 0.  0.
          6    2    1    2  501    0  0.30572760994E+02  0.31760287059E+02 -0.22623702135E+03  0.28825875476E+03  0.17310837738E+03 0.  0.
         24    2    5    5    0    0  0.88690953976E+00 -0.24000251829E+01 -0.32111982927E+02  0.88872703966E+02  0.82828928118E+02 0.  0.
          5    1    5    5  501    0  0.29685851454E+02  0.34160312241E+02 -0.19412503843E+03  0.19938605080E+03  0.47000000000E+01 0. -1.
        -13    1    6    6    0    0 -0.28929032441E+02  0.26651135302E+02 -0.25092362395E+02  0.46656174098E+02  0.00000000000E+00 0.  1.
         14    1    6    6    0    0  0.29815941981E+02 -0.29051160485E+02 -0.70196205321E+01  0.42216529868E+02  0.00000000000E+00 0. -1.
         -5    1    3    3    0  503 -0.64405910247E+02 -0.44657348805E+02 -0.49718235228E+02  0.92932195666E+02  0.47000000000E+01 0.  1.
         13    1    4    4    0    0  0.45597109195E+02 -0.83178853278E+01 -0.46825045632E+02  0.65885267562E+02  0.00000000000E+00 0. -1.
        -14    1    4    4    0    0 -0.11763959942E+02  0.21214947075E+02 -0.11415699957E+03  0.11670597792E+03  0.00000000000E+00 0.  1.
</event>
<event>
12    1  0.8053217E-002  0.2700163E+03  0.7818608E-02  0.1101386E+00
         21   -1    0    0  501  502  0.00000000000E+00  0.00000000000E+00  0.94265810976E+03  0.94265810976E+03  0.00000000000E+00 0. -1.
         21   -1    0    0  502  503 -0.00000000000E+00 -0.00000000000E+00 -0.93832662205E+02  0.93832662205E+02  0.00000000000E+00 0.  1.
         -6    2    1    2    0  503  0.18317287303E+03  0.94426062421E+02  0.20617111407E+03  0.33972833886E+03  0.17447129639E+03 0.  0.
        -24    2    3    3    0    0  0.10918600048E+03  0.45647884128E+02  0.20732036746E+03  0.25097712044E+03  0.77475597401E+02 0.  0.
          6    2    1    2  501    0 -0.18317287303E+03 -0.94426062421E+02  0.64265433348E+03  0.69676243311E+03  0.17321868598E+03 0.  0.
         24    2    5    5    0    0 -0.10024785185E+03 -0.42696941127E+02  0.18538384200E+03  0.22913987858E+03  0.79153360623E+02 0.  0.
          5    1    5    5  501    0 -0.82925021186E+02 -0.51729121294E+02  0.45727049148E+03  0.46762255453E+03  0.47000000000E+01 0. -1.
        -11    1    6    6    0    0 -0.22849098412E+02 -0.97009485646E+01 -0.79046845036E+00  0.24835751281E+02  0.00000000000E+00 0.  1.
         12    1    6    6    0    0 -0.77398753433E+02 -0.32995992562E+02  0.18617431045E+03  0.20430412730E+03  0.00000000000E+00 0. -1.
         -5    1    3    3    0  503  0.73986872547E+02  0.48778178293E+02 -0.11492533883E+01  0.88751218415E+02  0.47000000000E+01 0.  1.
         11    1    4    4    0    0  0.68924590775E+01 -0.14717376063E+02  0.57686894844E+02  0.59932336739E+02  0.00000000000E+00 0. -1.
        -12    1    4    4    0    0  0.10229354141E+03  0.60365260191E+02  0.14963347262E+03  0.19104478370E+03  0.00000000000E+00 0.  1.
</event>
<event>
12    1  0.8053217E-002  0.1847758E+03  0.7818608E-02  0.1163861E+00
         21   -1    0    0  501  502  0.00000000000E+00  0.00000000000E+00  0.42141005417E+03  0.42141005417E+03  0.00000000000E+00 0. -1.
         21   -1    0    0  502  503 -0.00000000000E+00 -0.00000000000E+00 -0.26812875943E+03  0.26812875943E+03  0.00000000000E+00 0. -1.
         -6    2    1    2    0  503  0.65853660591E+02  0.15019903674E+02 -0.21238197678E+03  0.27984168657E+03  0.16924232142E+03 0.  0.
        -24    2    3    3    0    0  0.45389259247E+02 -0.56868463230E+02 -0.12723747556E+03  0.16644677881E+03  0.78872986647E+02 0.  0.
          6    2    1    2  501    0 -0.65853660591E+02 -0.15019903674E+02  0.36566327152E+03  0.40969712703E+03  0.17198780666E+03 0.  0.
         24    2    5    5    0    0 -0.18353451344E+01 -0.16097217058E+02  0.67086978264E+02  0.10429673703E+03  0.78196277492E+02 0.  0.
          5    1    5    5  501    0 -0.64018315457E+02  0.10773133837E+01  0.29857629325E+03  0.30540039000E+03  0.47000000000E+01 0. -1.
        -13    1    6    6    0    0 -0.10480431230E+02  0.21458079862E+01 -0.15747615734E+02  0.19037629369E+02  0.00000000000E+00 0.  1.
         14    1    6    6    0    0  0.86450860951E+01 -0.18243025044E+02  0.82834593998E+02  0.85259107661E+02  0.00000000000E+00 0. -1.
         -5    1    3    3    0  503  0.20464401344E+02  0.71888366905E+02 -0.85144501223E+02  0.11339490777E+03  0.47000000000E+01 0.  1.
         11    1    4    4    0    0  0.31748434725E+02 -0.64875794046E+02 -0.13153064060E+03  0.15005712638E+03  0.00000000000E+00 0. -1.
        -12    1    4    4    0    0  0.13640824522E+02  0.80073308158E+01  0.42931650439E+01  0.16389652423E+02  0.00000000000E+00 0.  1.
</event>
<event>
12    1  0.8053217E-002  0.1887713E+03  0.7818608E-02  0.1161176E+00
         21   -1    0    0  503  502  0.00000000000E+00  0.00000000000E+00  0.42599102992E+03  0.42599102992E+03  0.00000000000E+00 0.  1.
         21   -1    0    0  501  503 -0.00000000000E+00 -0.00000000000E+00 -0.80676225522E+02  0.80676225522E+02  0.00000000000E+00 0.  1.
          6    2    1    2  501    0  0.50105716497E+02  0.27752924501E+02  0.16910731536E+03  0.25344012456E+03  0.17987163474E+03 0.  0.
         24    2    3    3    0    0  0.64167693658E+02 -0.22157694696E+02  0.17153185251E+03  0.20131740888E+03  0.80604381694E+02 0.  0.
         -6    2    1    2    0  502 -0.50105716497E+02 -0.27752924501E+02  0.17620748903E+03  0.25322713088E+03  0.17260965494E+03 0.  0.
        -24    2    5    5    0    0  0.62438902727E+00  0.10960301694E+02  0.17002536883E+03  0.18894209297E+03  0.81669886579E+02 0.  0.
          5    1    3    3  501    0 -0.14061977161E+02  0.49910619197E+02 -0.24245371447E+01  0.52122715687E+02  0.47000000000E+01 0. -1.
        -13    1    4    4    0    0  0.29752403446E+02  0.26720276286E+01  0.60472915487E+01  0.30478106528E+02  0.00000000000E+00 0.  1.
         14    1    4    4    0    0  0.34415290212E+02 -0.24829722324E+02  0.16548456096E+03  0.17083930235E+03  0.00000000000E+00 0. -1.
         -5    1    5    5    0  502 -0.50730105524E+02 -0.38713226195E+02  0.61821202018E+01  0.64285037910E+02  0.47000000000E+01 0.  1.
         13    1    6    6    0    0 -0.17935028984E+02  0.42069259016E+02  0.85006970058E+02  0.96528093203E+02  0.00000000000E+00 0. -1.
        -14    1    6    6    0    0  0.18559418011E+02 -0.31108957323E+02  0.85018398775E+02  0.92413999766E+02  0.00000000000E+00 0.  1.
</event>
<event>
12    1  0.8053217E-002  0.2069974E+03  0.7818608E-02  0.1144333E+00
         21   -1    0    0  503  502  0.00000000000E+00  0.00000000000E+00  0.33606620334E+03  0.33606620334E+03  0.00000000000E+00 0. -1.
         21   -1    0    0  501  503 -0.00000000000E+00 -0.00000000000E+00 -0.15852212232E+03  0.15852212232E+03  0.00000000000E+00 0.  1.
          6    2    1    2  501    0  0.52741984351E+02 -0.10322671059E+03  0.20042510060E+03  0.28812872495E+03  0.17149481188E+03 0.  0.
         24    2    3    3    0    0 -0.27737190713E+02 -0.22149250736E+02  0.11701053020E+03  0.14659946060E+03  0.80870245528E+02 0.  0.
         -6    2    1    2    0  502 -0.52741984351E+02  0.10322671059E+03 -0.22881019571E+02  0.20645960070E+03  0.16930609845E+03 0.  0.
        -24    2    5    5    0    0 -0.98816271820E+02  0.61737857634E+02 -0.31408247662E+01  0.14122211013E+03  0.79734565703E+02 0.  0.
          5    1    3    3  501    0  0.80479175064E+02 -0.81077459856E+02  0.83414570392E+02  0.14152926436E+03  0.47000000000E+01 0. -1.
        -11    1    4    4    0    0 -0.21929562664E+02 -0.49460518153E+02  0.10056251590E+03  0.11419311792E+03  0.00000000000E+00 0.  1.
         12    1    4    4    0    0 -0.58076280492E+01  0.27311267418E+02  0.16448014303E+02  0.32406342682E+02  0.00000000000E+00 0. -1.
         -5    1    5    5    0  502  0.46074287469E+02  0.41488852957E+02 -0.19740194804E+02  0.65237490574E+02  0.47000000000E+01 0.  1.
         11    1    6    6    0    0 -0.70869608075E+02 -0.26334297148E+01  0.97834343501E+00  0.70925266701E+02  0.00000000000E+00 0. -1.
        -12    1    6    6    0    0 -0.27946663745E+02  0.64371287349E+02 -0.41191682012E+01  0.70296843429E+02  0.00000000000E+00 0.  1.
</event>
<event>
12    1  0.8053217E-002  0.2736118E+03  0.7818608E-02  0.1099343E+00
         21   -1    0    0  501  502  0.00000000000E+00  0.00000000000E+00  0.13952060874E+03  0.13952060874E+03  0.00000000000E+00 0. -1.
         21   -1    0    0  502  503 -0.00000000000E+00 -0.00000000000E+00 -0.10264159539E+04  0.10264159539E+04  0.00000000000E+00 0.  1.
         -6    2    1    2    0  503 -0.64347971716E+02  0.20240643607E+03 -0.84648136956E+03  0.88935617353E+03  0.17121526669E+03 0.  0.
        -24    2    3    3    0    0  0.28885182859E+02  0.63074868827E+02 -0.38370087727E+03  0.39712291501E+03  0.75282491614E+02 0.  0.
          6    2    1    2  501    0  0.64347971716E+02 -0.20240643607E+03 -0.40413975577E+02  0.27658038910E+03  0.17249462422E+03 0.  0.
         24    2    5    5    0    0 -0.11728782204E+02 -0.17586114528E+03 -0.26354413212E+02  0.19465306616E+03  0.78297856398E+02 0.  0.
          5    1    5    5  501    0  0.76076753920E+02 -0.26545290789E+02 -0.14059562365E+02  0.81927322939E+02  0.47000000000E+01 0. -1.
        -13    1    6    6    0    0  0.57249001168E+01 -0.60537260169E+02  0.26828950522E+02  0.66462974175E+02  0.00000000000E+00 0.  1.
         14    1    6    6    0    0 -0.17453682320E+02 -0.11532388511E+03 -0.53183363734E+02  0.12819009198E+03  0.00000000000E+00 0. -1.
         -5    1    3    3    0  503 -0.93233154575E+02  0.13933156725E+03 -0.46278049230E+03  0.49223325852E+03  0.47000000000E+01 0.  1.
         13    1    4    4    0    0  0.17351826102E+02  0.31864693554E+02 -0.34131144548E+03  0.34323453699E+03  0.00000000000E+00 0. -1.
        -14    1    4    4    0    0  0.11533356757E+02  0.31210175273E+02 -0.42389431783E+02  0.53888378019E+02  0.00000000000E+00 0.  1.
</event>
<event>
12    1  0.8053217E-002  0.1809691E+03  0.7818608E-02  0.1168522E+00
         21   -1    0    0  501  502  0.00000000000E+00  0.00000000000E+00  0.56082601374E+03  0.56082601374E+03  0.00000000000E+00 0.  1.
         21   -1    0    0  502  503 -0.00000000000E+00 -0.00000000000E+00 -0.56434665859E+02  0.56434665859E+02  0.00000000000E+00 0.  1.
         -6    2    1    2    0  503 -0.33609602336E+02 -0.97741190233E+01  0.23884694030E+03  0.29966259573E+03  0.17755188430E+03 0.  0.
        -24    2    3    3    0    0 -0.31577399064E+02 -0.37744239624E+02  0.84718463573E+02  0.14293309999E+03  0.10407157752E+03 0.  0.
          6    2    1    2  501    0  0.33609602336E+02  0.97741190233E+01  0.26554440759E+03  0.31759808387E+03  0.17067387529E+03 0.  0.
         24    2    5    5    0    0  0.49897028424E+02 -0.42075813027E+02  0.99692837576E+02  0.14300561847E+03  0.79068688881E+02 0.  0.
          5    1    5    5  501    0 -0.16287426088E+02  0.51849932050E+02  0.16585157001E+03  0.17459246541E+03  0.47000000000E+01 0. -1.
        -11    1    6    6    0    0  0.53161806067E+02 -0.18515401240E+02  0.10453801796E+03  0.11873160871E+03  0.00000000000E+00 0.  1.
         12    1    6    6    0    0 -0.32647776436E+01 -0.23560411787E+02 -0.48451803865E+01  0.24274009755E+02  0.00000000000E+00 0. -1.
         -5    1    3    3    0  503 -0.20322032719E+01  0.27970120600E+02  0.15412847672E+03  0.15672949574E+03  0.47000000000E+01 0.  1.
         11    1    4    4    0    0  0.32889648043E+02 -0.38111420274E+02  0.42386257224E+02  0.65808845190E+02  0.00000000000E+00 0. -1.
        -12    1    4    4    0    0 -0.64467047107E+02  0.36718065073E+00  0.42332206349E+02  0.77124254802E+02  0.00000000000E+00 0.  1.
</event>
<event>
12    1  0.8053217E-002  0.1830633E+03  0.7818608E-02  0.1165204E+00
         21   -1    0    0  501  502  0.00000000000E+00  0.00000000000E+00  0.64499818386E+02  0.64499818386E+02  0.00000000000E+00 0. -1.
         21   -1    0    0  502  503 -0.00000000000E+00 -0.00000000000E+00 -0.55771971928E+03  0.55771971928E+03  0.00000000000E+00 0. -1.
         -6    2    1    2    0  503  0.55454941767E+02  0.37068094660E+02 -0.33122706895E+03  0.37777352748E+03  0.16897388157E+03 0.  0.
        -24    2    3    3    0    0 -0.17847378025E+02  0.36605689180E+02 -0.92280772930E+02  0.12779179558E+03  0.78463345462E+02 0.  0.
          6    2    1    2  501    0 -0.55454941767E+02 -0.37068094660E+02 -0.16199283195E+03  0.24444601019E+03  0.17047838598E+03 0.  0.
         24    2    5    5    0    0 -0.90581152831E+02  0.97250805516E+01 -0.13181390046E+03  0.17844366283E+03  0.78534794908E+02 0.  0.
          5    1    5    5  501    0  0.35126211065E+02 -0.46793175212E+02 -0.30178931486E+02  0.66002347351E+02  0.47000000000E+01 0. -1.
        -11    1    6    6    0    0 -0.26746986403E+02 -0.28205136788E+02 -0.76647507470E+02  0.85940510961E+02  0.00000000000E+00 0.  1.
         12    1    6    6    0    0 -0.63834166428E+02  0.37930217339E+02 -0.55166392991E+02  0.92503151874E+02  0.00000000000E+00 0. -1.
         -5    1    3    3    0  503  0.73302319792E+02  0.46240548023E+00 -0.23894629602E+03  0.24998173190E+03  0.47000000000E+01 0.  1.
         11    1    4    4    0    0 -0.19715826109E+01  0.46978645095E+02 -0.97394154693E+02  0.10815036570E+03  0.00000000000E+00 0. -1.
        -12    1    4    4    0    0 -0.15875795414E+02 -0.10372955915E+02  0.51133817630E+01  0.19641429874E+02  0.00000000000E+00 0.  1.
</event>
<event>
12    1  0.8053217E-002  0.2091173E+03  0.7818608E-02  0.1142270E+00
         21   -1    0    0  501  502  0.00000000000E+00  0.00000000000E+00  0.26757856745E+03  0.26757856745E+03  0.00000000000E+00 0.  1.
         21   -1    0    0  502  503 -0.00000000000E+00 -0.00000000000E+00 -0.24984539653E+03  0.24984539653E+03  0.00000000000E+00 0.  1.
         -6    2    1    2    0  503  0.32157098639E+02  0.11498424588E+03 -0.14329753091E+03  0.25350393479E+03  0.17168170199E+03 0.  0.
        -24    2    3    3    0    0  0.69436182157E+02  0.87295115639E+02 -0.42513480498E+02  0.14243669021E+03  0.77710965043E+02 0.  0.
          6    2    1    2  501    0 -0.32157098639E+02 -0.11498424588E+03  0.16103070182E+03  0.26392002918E+03  0.17166082570E+03 0.  0.
         24    2    5    5    0    0  0.20803139643E+02 -0.58431162014E+01  0.94989723251E+02  0.12571701229E+03  0.79465760117E+02 0.  0.
          5    1    5    5  501    0 -0.52960238282E+02 -0.10914112968E+03  0.66040978573E+02  0.13820301689E+03  0.47000000000E+01 0. -1.
        -11    1    6    6    0    0 -0.56572814182E+01  0.26310675954E+01  0.97610238048E+02  0.97809436772E+02  0.00000000000E+00 0.  1.
         12    1    6    6    0    0  0.26460421061E+02 -0.84741837968E+01 -0.26205147971E+01  0.27907575523E+02  0.00000000000E+00 0. -1.
         -5    1    3    3    0  503 -0.37279083518E+02  0.27689130240E+02 -0.10078405041E+03  0.11106724458E+03  0.47000000000E+01 0.  1.
         11    1    4    4    0    0 -0.23267973550E+01  0.47261741075E+02  0.48883943872E+01  0.47570816212E+02  0.00000000000E+00 0. -1.
        -12    1    4    4    0    0  0.71762979512E+02  0.40033374564E+02 -0.47401874885E+02  0.94865874001E+02  0.00000000000E+00 0.  1.
</event>
<event>
12    1  0.8053217E-002  0.1807777E+03  0.7818608E-02  0.1167558E+00
         21   -1    0    0  501  502  0.00000000000E+00  0.00000000000E+00  0.35634800150E+03  0.35634800150E+03  0.00000000000E+00 0.  1.
         21   -1    0    0  502  503 -0.00000000000E+00 -0.00000000000E+00 -0.11228595613E+03  0.11228595613E+03  0.00000000000E+00 0.  1.
         -6    2    1    2    0  503  0.46065658382E+01  0.51625513484E+02  0.18610055467E+02  0.17965438632E+03  0.17100570244E+03 0.  0.
        -24    2    3    3    0    0  0.55216516589E+02 -0.82085887657E+01  0.98844647793E+01  0.10066253332E+03  0.83180516572E+02 0.  0.
          6    2    1    2  501    0 -0.46065658382E+01 -0.51625513484E+02  0.22545198991E+03  0.28897957131E+03  0.17318827555E+03 0.  0.
         24    2    5    5    0    0 -0.50486626988E+02 -0.14278660972E+02  0.20408808257E+03  0.22590601155E+03  0.81417448640E+02 0.  0.
          5    1    5    5  501    0  0.45880061150E+02 -0.37346852512E+02  0.21363907335E+02  0.63073559756E+02  0.47000000000E+01 0. -1.
        -11    1    6    6    0    0 -0.71866344623E+02 -0.80895716374E+01  0.13268433680E+03  0.15111368532E+03  0.00000000000E+00 0.  1.
         12    1    6    6    0    0  0.21379717634E+02 -0.61890893348E+01  0.71403745769E+02  0.74792326229E+02  0.00000000000E+00 0. -1.
         -5    1    3    3    0  503 -0.50609950751E+02  0.59834102250E+02  0.87255906874E+01  0.78991852997E+02  0.47000000000E+01 0.  1.
         11    1    4    4    0    0  0.18652339944E+02 -0.28431049177E+02  0.37466380986E+02  0.50596087269E+02  0.00000000000E+00 0. -1.
        -12    1    4    4    0    0  0.36564176644E+02  0.20222460412E+02 -0.27581916207E+02  0.50066446054E+02  0.00000000000E+00 0.  1.
</event>
<event>
12    1  0.8053217E-002  0.2447709E+03  0.7818608E-02  0.1118651E+00
         21   -1    0    0  503  502  0.00000000000E+00  0.00000000000E+00  0.53779898128E+03  0.53779898128E+03  0.00000000000E+00 0.  1.
         21   -1    0    0  501  503 -0.00000000000E+00 -0.00000000000E+00 -0.11016796224E+03  0.11016796224E+03  0.00000000000E+00 0.  1.
          6    2    1    2  501    0  0.82210866539E+02  0.13469355391E+03  0.28179891431E+03  0.37326051242E+03  0.18711440881E+03 0.  0.
         24    2    3    3    0    0  0.61597428711E+02  0.68000302334E+02  0.41495886826E+02  0.12297959297E+03  0.70595944084E+02 0.  0.
         -6    2    1    2    0  502 -0.82210866539E+02 -0.13469355391E+03  0.14583210473E+03  0.27470643110E+03  0.17115969291E+03 0.  0.
        -24    2    5    5    0    0 -0.22832769718E+02  0.11368602682E+02  0.64977638937E+02  0.97451116343E+02  0.68000338343E+02 0.  0.
          5    1    3    3  501    0  0.20613437828E+02  0.66693251579E+02  0.24030302748E+03  0.25028091945E+03  0.47000000000E+01 0. -1.
        -11    1    4    4    0    0  0.30218395017E+02 -0.98130115736E+01  0.13618415249E+02  0.34567438832E+02  0.00000000000E+00 0.  1.
         12    1    4    4    0    0  0.31379033694E+02  0.77813313908E+02  0.27877471577E+02  0.88412154133E+02  0.00000000000E+00 0. -1.
         -5    1    5    5    0  502 -0.59378096820E+02 -0.14606215660E+03  0.80854465789E+02  0.17725531476E+03  0.47000000000E+01 0.  1.
         13    1    6    6    0    0  0.37325438142E+01 -0.12875319863E+02 -0.83395820472E+01  0.15787791917E+02  0.00000000000E+00 0. -1.
        -14    1    6    6    0    0 -0.26565313532E+02  0.24243922545E+02  0.73317220985E+02  0.81663324426E+02  0.00000000000E+00 0.  1.
</event>
<event>
12    1  0.8053217E-002  0.1811492E+03  0.7818608E-02  0.1166920E+00
         21   -1    0    0  501  502  0.00000000000E+00  0.00000000000E+00  0.92827496172E+03  0.92827496172E+03  0.00000000000E+00 0. -1.
         21   -1    0    0  502  503 -0.00000000000E+00 -0.00000000000E+00 -0.39353209976E+02  0.39353209976E+02  0.00000000000E+00 0. -1.
         -6    2    1    2    0  503 -0.21208412463E+01  0.53540411685E+02  0.28566829051E+03  0.33776327740E+03  0.17206564360E+03 0.  0.
        -24    2    3    3    0    0 -0.12968746339E+02  0.91439907448E+02  0.26782515262E+03  0.29423723469E+03  0.79471962657E+02 0.  0.
          6    2    1    2  501    0  0.21208412463E+01 -0.53540411685E+02  0.60325346123E+03  0.62986489429E+03  0.17304326893E+03 0.  0.
         24    2    5    5    0    0 -0.18831730757E+02 -0.47097807937E+02  0.15366746314E+03  0.17972027631E+03  0.78184722894E+02 0.  0.
          5    1    5    5  501    0  0.20952572004E+02 -0.64426037481E+01  0.44958599809E+03  0.45014461798E+03  0.47000000000E+01 0. -1.
        -11    1    6    6    0    0 -0.23502353169E+02 -0.23137867424E+02  0.15168491128E+03  0.15522897225E+03  0.00000000000E+00 0.  1.
         12    1    6    6    0    0  0.46706224119E+01 -0.23959940513E+02  0.19825518589E+01  0.24491304068E+02  0.00000000000E+00 0. -1.
         -5    1    3    3    0  503  0.10847905093E+02 -0.37899495764E+02  0.17843137889E+02  0.43526042708E+02  0.47000000000E+01 0.  1.
         13    1    4    4    0    0 -0.25482092620E+02  0.46027365189E+02  0.54410659307E+02  0.75686030657E+02  0.00000000000E+00 0. -1.
        -14    1    4    4    0    0  0.12513346280E+02  0.45412542260E+02  0.21341449331E+03  0.21855120403E+03  0.00000000000E+00 0.  1.
</event>
<event>
12    1  0.8053217E-002  0.1821355E+03  0.7818608E-02  0.1166213E+00
         21   -1    0    0  503  502  0.00000000000E+00  0.00000000000E+00  0.49536116894E+03  0.49536116894E+03  0.00000000000E+00 0.  1.
         21   -1    0    0  501  503 -0.00000000000E+00 -0.00000000000E+00 -0.68171733535E+02  0.68171733535E+02  0.00000000000E+00 0.  1.
          6    2    1    2  501    0 -0.51819284618E+02  0.15346343788E+02  0.16535105310E+03  0.24457730262E+03  0.17191956745E+03 0.  0.
         24    2    3    3    0    0 -0.43618860403E+02  0.50351844156E+01  0.11779663013E+02  0.90370205452E+02  0.78102852111E+02 0.  0.
         -6    2    1    2    0  502  0.51819284618E+02 -0.15346343788E+02  0.26183838230E+03  0.31895559985E+03  0.17393271027E+03 0.  0.
        -24    2    5    5    0    0  0.77379173142E+02 -0.62450372710E+02  0.16731806789E+03  0.21019771609E+03  0.79373537911E+02 0.  0.
          5    1    3    3  501    0 -0.82004242152E+01  0.10311159373E+02  0.15357139008E+03  0.15420709717E+03  0.47000000000E+01 0. -1.
        -11    1    4    4    0    0 -0.33313887669E+02 -0.44008504394E+01  0.43933745835E+02  0.55311451068E+02  0.00000000000E+00 0.  1.
         12    1    4    4    0    0 -0.10304972734E+02  0.94360348549E+01 -0.32154082822E+02  0.35058754384E+02  0.00000000000E+00 0. -1.
         -5    1    5    5    0  502 -0.25559888524E+02  0.47104028921E+02  0.94520314417E+02  0.10875788376E+03  0.47000000000E+01 0.  1.
         13    1    6    6    0    0 -0.53120233250E+01 -0.33105708279E+02  0.78436063427E+02  0.85301943462E+02  0.00000000000E+00 0. -1.
        -14    1    6    6    0    0  0.82691196467E+02 -0.29344664431E+02  0.88882004461E+02  0.12489577263E+03  0.00000000000E+00 0.  1.
</event>
<event>
12    1  0.8053217E-002  0.3128071E+03  0.7818608E-02  0.1079199E+00
         21   -1    0    0  503  502  0.00000000000E+00  0.00000000000E+00  0.18544518188E+03  0.18544518188E+03  0.00000000000E+00 0. -1.
         21   -1    0    0  501  503 -0.00000000000E+00 -0.00000000000E+00 -0.53008981149E+03  0.53008981149E+03  0.00000000000E+00 0.  1.
          6    2    1    2  501    0  0.16774898764E+03  0.19912756713E+03 -0.13661301530E+03  0.33986835035E+03  0.17045782110E+03 0.  0.
         24    2    3    3    0    0  0.11485463098E+03  0.15592973268E+03 -0.16394484428E+03  0.26615956700E+03  0.80357546930E+02 0.  0.
         -6    2    1    2    0  502 -0.16774898764E+03 -0.19912756713E+03 -0.20803161431E+03  0.37566664302E+03  0.17336886481E+03 0.  0.
        -24    2    5    5    0    0 -0.41940603418E+02 -0.66271896328E+02 -0.20983115725E+02  0.11396526812E+03  0.79980077106E+02 0.  0.
          5    1    3    3  501    0  0.52894356666E+02  0.43197834445E+02  0.27331828979E+02  0.73708783352E+02  0.47000000000E+01 0. -1.
        -13    1    4    4    0    0  0.24062134248E+02  0.98957524507E+02 -0.69458842889E+02  0.12327249822E+03  0.00000000000E+00 0.  1.
         14    1    4    4    0    0  0.90792496729E+02  0.56972208175E+02 -0.94486001387E+02  0.14288706878E+03  0.00000000000E+00 0. -1.
         -5    1    5    5    0  502 -0.12580838423E+03 -0.13285567080E+03 -0.18704849858E+03  0.26170137491E+03  0.47000000000E+01 0.  1.
         13    1    6    6    0    0 -0.58494869400E+02 -0.72660947895E+02 -0.11916253012E+02  0.94038610054E+02  0.00000000000E+00 0. -1.
        -14    1    6    6    0    0  0.16554265983E+02  0.63890515666E+01 -0.90668627130E+01  0.19926658064E+02  0.00000000000E+00 0.  1.
</event>
<event>
12    1  0.8053217E-002  0.2517218E+03  0.7818608E-02  0.1112673E+00
         21   -1    0    0  503  502  0.00000000000E+00  0.00000000000E+00  0.58194335040E+03  0.58194335040E+03  0.00000000000E+00 0. -1.
         21   -1    0    0  501  503 -0.00000000000E+00 -0.00000000000E+00 -0.14459174455E+03  0.14459174455E+03  0.00000000000E+00 0. -1.
          6    2    1    2  501    0 -0.12352952860E+03 -0.13322013537E+03  0.35984391815E+02  0.25428085980E+03  0.17423182919E+03 0.  0.
         24    2    3    3    0    0 -0.96937881420E+02 -0.98680301268E+01  0.12187771499E+02  0.12578484155E+03  0.78606321105E+02 0.  0.
         -6    2    1    2    0  502  0.12352952860E+03  0.13322013537E+03  0.40136721403E+03  0.47225423515E+03  0.17006255676E+03 0.  0.
        -24    2    5    5    0    0  0.34668872743E+02  0.13106826964E+02  0.21704679226E+03  0.23493687190E+03  0.81928652495E+02 0.  0.
          5    1    3    3  501    0 -0.26591647181E+02 -0.12335210524E+03  0.23796620316E+02  0.12849601825E+03  0.47000000000E+01 0. -1.
        -11    1    4    4    0    0 -0.77897327950E+01  0.15154202633E+01  0.32660269250E+02  0.33610558208E+02  0.00000000000E+00 0.  1.
         12    1    4    4    0    0 -0.89148148625E+02 -0.11383450390E+02 -0.20472497750E+02  0.92174283345E+02  0.00000000000E+00 0. -1.
         -5    1    5    5    0  502  0.88860655858E+02  0.12011330841E+03  0.18432042177E+03  0.23731736324E+03  0.47000000000E+01 0.  1.
         13    1    6    6    0    0  0.60954857670E+02  0.16766771950E+02  0.14623594018E+03  0.15931594244E+03  0.00000000000E+00 0. -1.
        -14    1    6    6    0    0 -0.26285984926E+02 -0.36599449854E+01  0.70810852081E+02  0.75620929466E+02  0.00000000000E+00 0.  1.
</event>
<event>
12    1  0.8053217E-002  0.1744335E+03  0.7818608E-02  0.1173932E+00
         21   -1    0    0  501  502  0.00000000000E+00  0.00000000000E+00  0.74883286807E+02  0.74883286807E+02  0.00000000000E+00 0.  1.
         21   -1    0    0  502  503 -0.00000000000E+00 -0.00000000000E+00 -0.86634679934E+03  0.86634679934E+03  0.00000000000E+00 0.  1.
         -6    2    1    2    0  503  0.18163982905E+02  0.21177489395E+02 -0.73948902585E+03  0.75921803085E+03  0.16967493243E+03 0.  0.
        -24    2    3    3    0    0 -0.35624377664E+02 -0.16256027000E+01 -0.22662898580E+03  0.24301973619E+03  0.80163308957E+02 0.  0.
          6    2    1    2  501    0 -0.18163982905E+02 -0.21177489395E+02 -0.51974486685E+02  0.18201205529E+03  0.17218775994E+03 0.  0.
         24    2    5    5    0    0  0.49371675770E+02 -0.69986738761E+01 -0.60571324383E+02  0.11231198628E+03  0.80365123777E+02 0.  0.
          5    1    5    5  501    0 -0.67535658675E+02 -0.14178815519E+02  0.85968376984E+01  0.69700069014E+02  0.47000000000E+01 0. -1.
        -11    1    6    6    0    0 -0.40094317882E+01 -0.90884096452E+01  0.16068181999E+02  0.18890770389E+02  0.00000000000E+00 0.  1.
         12    1    6    6    0    0  0.53381107559E+02  0.20897357691E+01 -0.76639506382E+02  0.93421215889E+02  0.00000000000E+00 0. -1.
         -5    1    3    3    0  503  0.53788360568E+02  0.22803092095E+02 -0.51286004005E+03  0.51619829467E+03  0.47000000000E+01 0.  1.
         11    1    4    4    0    0 -0.54058654345E+02  0.15111964044E+02 -0.19411088713E+03  0.20206371784E+03  0.00000000000E+00 0. -1.
        -12    1    4    4    0    0  0.18434276682E+02 -0.16737566744E+02 -0.32518098675E+02  0.40956018346E+02  0.00000000000E+00 0.  1.
</event>
<event>
12    1  0.8053217E-002  0.2342727E+03  0.7818608E-02  0.1125916E+00
         21   -1    0    0  503  502  0.00000000000E+00  0.00000000000E+00  0.81195336337E+03  0.81195336337E+03  0.00000000000E+00 0. -1.
         21   -1    0    0  501  503 -0.00000000000E+00 -0.00000000000E+00 -0.13563152769E+03  0.13563152769E+03  0.00000000000E+00 0.  1.
          6    2    1    2  501    0  0.61264180462E+01  0.13919912757E+03 -0.16973210005E+01  0.23427889510E+03  0.18833424987E+03 0.  0.
         24    2    3    3    0    0 -0.58599288757E+02  0.47090243555E+02  0.32317697676E+02  0.11658193196E+03  0.83039421941E+02 0.  0.
         -6    2    1    2    0  502 -0.61264180462E+01 -0.13919912757E+03  0.67801915669E+03  0.71330599596E+03  0.17228330427E+03 0.  0.
        -24    2    5    5    0    0  0.57440942872E+02 -0.10034379893E+03  0.52083472537E+03  0.53929570493E+03  0.78757261893E+02 0.  0.
          5    1    3    3  501    0  0.64725706803E+02  0.92108884012E+02 -0.34015018677E+02  0.11769696313E+03  0.47000000000E+01 0. -1.
        -11    1    4    4    0    0 -0.20030789875E+02  0.60463864901E+02 -0.12862137991E+01  0.63708444085E+02  0.00000000000E+00 0.  1.
         12    1    4    4    0    0 -0.38568498882E+02 -0.13373621346E+02  0.33603911475E+02  0.52873487878E+02  0.00000000000E+00 0. -1.
         -5    1    5    5    0  502 -0.63567360918E+02 -0.38855328633E+02  0.15718443131E+03  0.17401029103E+03  0.47000000000E+01 0.  1.
         13    1    6    6    0    0 -0.20017361740E+02 -0.20195124441E+02  0.10647649628E+03  0.11020790390E+03  0.00000000000E+00 0. -1.
        -14    1    6    6    0    0  0.77458304612E+02 -0.80148674493E+02  0.41435822909E+03  0.42908780103E+03  0.00000000000E+00 0.  1.
</event>
<event>
12    1  0.8053217E-002  0.1910341E+03  0.7818608E-02  0.1157883E+00
         21   -1    0    0  501  502  0.00000000000E+00  0.00000000000E+00  0.69518841710E+03  0.69518841710E+03  0.00000000000E+00 0. -1.
         21   -1    0    0  502  503 -0.00000000000E+00 -0.00000000000E+00 -0.53256039347E+02  0.53256039347E+02  0.00000000000E+00 0. -1.
         -6    2    1    2    0  503  0.71000362337E+02 -0.38695399178E+02  0.37560438563E+03  0.42068750842E+03  0.17135034248E+03 0.  0.
        -24    2    3    3    0    0  0.29001577602E+02 -0.33656603506E+02  0.72789918783E+02  0.11489676508E+03  0.77000233031E+02 0.  0.
          6    2    1    2  501    0 -0.71000362337E+02  0.38695399178E+02  0.26632799212E+03  0.32775694802E+03  0.17307695462E+03 0.  0.
         24    2    5    5    0    0  0.12451822942E+02 -0.26003907315E+02  0.12910864861E+03  0.15454752068E+03  0.79903954288E+02 0.  0.
          5    1    5    5  501    0 -0.83452185279E+02  0.64699306493E+02  0.13721934351E+03  0.17320942735E+03  0.47000000000E+01 0. -1.
        -13    1    6    6    0    0 -0.94072197655E+01 -0.46886233726E+02  0.47001197695E+02  0.67051676202E+02  0.00000000000E+00 0.  1.
         14    1    6    6    0    0  0.21859042708E+02  0.20882326411E+02  0.82107450915E+02  0.87495844474E+02  0.00000000000E+00 0. -1.
         -5    1    3    3    0  503  0.41998784734E+02 -0.50387956716E+01  0.30281446685E+03  0.30579074334E+03  0.47000000000E+01 0.  1.
         13    1    4    4    0    0  0.18700597509E+02 -0.15913279326E+02 -0.12233035697E+02  0.27433409713E+02  0.00000000000E+00 0. -1.
        -14    1    4    4    0    0  0.10300980093E+02 -0.17743324180E+02  0.85022954480E+02  0.87463355369E+02  0.00000000000E+00 0.  1.
</event>
<event>
12    1  0.8053217E-002  0.2187318E+03  0.7818608E-02  0.1135126E+00
         21   -1    0    0  501  502  0.00000000000E+00  0.00000000000E+00  0.12129249987E+04  0.12129249987E+04  0.00000000000E+00 0.  1.
         21   -1    0    0  502  503 -0.00000000000E+00 -0.00000000000E+00 -0.39164719722E+02  0.39164719722E+02  0.00000000000E+00 0.  1.
         -6    2    1    2    0  503  0.98241302455E+02 -0.89375171719E+02  0.58271939319E+03  0.62187314932E+03  0.17182854191E+03 0.  0.
        -24    2    3    3    0    0  0.83893833911E+02  0.31115080312E+00  0.42062737128E+03  0.43600922095E+03  0.78347834047E+02 0.  0.
          6    2    1    2  501    0 -0.98241302455E+02  0.89375171719E+02  0.59104088579E+03  0.63021656910E+03  0.17379390229E+03 0.  0.
         24    2    5    5    0    0 -0.65051556144E+02 -0.10635439701E+02  0.38720302669E+03  0.40070481677E+03  0.79330629474E+02 0.  0.
          5    1    5    5  501    0 -0.33189746311E+02  0.10001061142E+03  0.20383785910E+03  0.22951175233E+03  0.47000000000E+01 0. -1.
        -13    1    6    6    0    0 -0.75147508833E+02 -0.24373432473E+02  0.36026348610E+03  0.36882379494E+03  0.00000000000E+00 0.  1.
         14    1    6    6    0    0  0.10095952690E+02  0.13737992772E+02  0.26939540588E+02  0.31881021835E+02  0.00000000000E+00 0. -1.
         -5    1    3    3    0  503  0.14347468544E+02 -0.89686322522E+02  0.16209202191E+03  0.18586392837E+03  0.47000000000E+01 0.  1.
         11    1    4    4    0    0  0.41733863650E+02  0.14145738851E+02  0.70900457191E+02  0.83478692687E+02  0.00000000000E+00 0. -1.
        -12    1    4    4    0    0  0.42159970262E+02 -0.13834588048E+02  0.34972691409E+03  0.35253052827E+03  0.00000000000E+00 0.  1.
</event>
<event>
12    1  0.8053217E-002  0.3236282E+03  0.7818608E-02  0.1074000E+00
         21   -1    0    0  501  502  0.00000000000E+00  0.00000000000E+00  0.11340521084E+03  0.11340521084E+03  0.00000000000E+00 0.  1.
         21   -1    0    0  502  503 -0.00000000000E+00 -0.00000000000E+00 -0.25822661242E+04  0.25822661242E+04  0.00000000000E+00 0. -1.
         -6    2    1    2    0  503  0.63807635562E+02  0.26674125711E+03 -0.23146956932E+04  0.23371993594E+04  0.17164609198E+03 0.  0.
        -24    2    3    3    0    0 -0.32538462799E+02  0.14005699018E+03 -0.11714411791E+04  0.11829097735E+04  0.79538569615E+02 0.  0.
          6    2    1    2  501    0 -0.63807635562E+02 -0.26674125711E+03 -0.15416522019E+03  0.35847197566E+03  0.17179327581E+03 0.  0.
         24    2    5    5    0    0 -0.88873627053E+01 -0.21882384610E+02 -0.46849760862E+02  0.85505308053E+02  0.67516173176E+02 0.  0.
          5    1    5    5  501    0 -0.54920272857E+02 -0.24485887250E+03 -0.10731545933E+03  0.27296666761E+03  0.47000000000E+01 0. -1.
        -11    1    6    6    0    0 -0.10847352456E+02 -0.43361522173E+02 -0.15212617159E+02  0.47215573503E+02  0.00000000000E+00 0.  1.
         12    1    6    6    0    0  0.19599897503E+01  0.21479137562E+02 -0.31637143702E+02  0.38289734550E+02  0.00000000000E+00 0. -1.
         -5    1    3    3    0  503  0.96346098360E+02  0.12668426693E+03 -0.11432545141E+04  0.11542895859E+04  0.47000000000E+01 0.  1.
         13    1    4    4    0    0 -0.29273772492E+02  0.69495624958E+01 -0.27364539922E+03  0.27529448721E+03  0.00000000000E+00 0. -1.
        -14    1    4    4    0    0 -0.32646903063E+01  0.13310742769E+03 -0.89779577993E+03  0.90761528632E+03  0.00000000000E+00 0.  1.
</event>
<event>
12    1  0.8053217E-002  0.3789387E+03  0.7818608E-02  0.1051562E+00
         21   -1    0    0  501  502  0.00000000000E+00  0.00000000000E+00  0.16731091970E+04  0.16731091970E+04  0.00000000000E+00 0. -1.
         21   -1    0    0  502  503 -0.00000000000E+00 -0.00000000000E+00 -0.17113119484E+03  0.17113119484E+03  0.00000000000E+00 0.  1.
         -6    2    1    2    0  503 -0.33320934695E+03 -0.57721822746E+02  0.96510175652E+02  0.38858440510E+03  0.16529775608E+03 0.  0.
        -24    2    3    3    0    0 -0.26143117264E+03 -0.62441927544E+02  0.13014588427E+03  0.30903670500E+03  0.79501455961E+02 0.  0.
          6    2    1    2  501    0  0.33320934695E+03  0.57721822746E+02  0.14054678265E+04  0.14556559867E+04  0.17098029903E+03 0.  0.
         24    2    5    5    0    0  0.16464746480E+03  0.27602969795E+02  0.48531638036E+03  0.51969603713E+03  0.81739038155E+02 0.  0.
          5    1    5    5  501    0  0.16856188215E+03  0.30118852951E+02  0.92015144612E+03  0.93595994958E+03  0.47000000000E+01 0. -1.
        -11    1    6    6    0    0  0.52048523621E+02  0.21769952655E+02  0.73108861610E+02  0.92346549993E+02  0.00000000000E+00 0.  1.
         12    1    6    6    0    0  0.11259894118E+03  0.58330171399E+01  0.41220751875E+03  0.42734948714E+03  0.00000000000E+00 0. -1.
         -5    1    3    3    0  503 -0.71778174306E+02  0.47201047982E+01 -0.33635708623E+02  0.79547700096E+02  0.47000000000E+01 0.  1.
         13    1    4    4    0    0 -0.68920965263E+02 -0.19620489533E+02  0.76145661695E+02  0.10456206223E+03  0.00000000000E+00 0. -1.
        -14    1    4    4    0    0 -0.19251020738E+03 -0.42821438011E+02  0.54000222579E+02  0.20447464278E+03  0.00000000000E+00 0.  1.
</event>
<event>
12    1  0.8053217E-002  0.1725882E+03  0.7818608E-02  0.1175501E+00
         21   -1    0    0  501  502  0.00000000000E+00  0.00000000000E+00  0.67613333372E+03  0.67613333372E+03  0.00000000000E+00 0.  1.
         21   -1    0    0  502  503 -0.00000000000E+00 -0.00000000000E+00 -0.52677232402E+02  0.52677232402E+02  0.00000000000E+00 0.  1.
         -6    2    1    2    0  503  0.10009552268E+02  0.25500230314E+01  0.16060240869E+03  0.23482654704E+03  0.17100783538E+03 0.  0.
        -24    2    3    3    0    0 -0.67243079481E+00 -0.52117320957E+02  0.15090352262E+03  0.17809223950E+03  0.78919613038E+02 0.  0.
          6    2    1    2  501    0 -0.10009552268E+02 -0.25500230314E+01  0.46285369263E+03  0.49398401908E+03  0.17227877576E+03 0.  0.
         24    2    5    5    0    0 -0.57689261276E+02 -0.35984736402E+02  0.35224604446E+03  0.36889454493E+03  0.85924137034E+02 0.  0.
          5    1    5    5  501    0  0.47679709008E+02  0.33434713370E+02  0.11060764817E+03  0.12508947415E+03  0.47000000000E+01 0. -1.
        -11    1    6    6    0    0  0.20654463591E+01 -0.37170608182E+02  0.60086996429E+02  0.70684986533E+02  0.00000000000E+00 0.  1.
         12    1    6    6    0    0 -0.59754707635E+02  0.11858717805E+01  0.29215904803E+03  0.29820955840E+03  0.00000000000E+00 0. -1.
         -5    1    3    3    0  503  0.10681983063E+02  0.54667343988E+02  0.96988860614E+01  0.56734307537E+02  0.47000000000E+01 0.  1.
         11    1    4    4    0    0 -0.24275465803E+02 -0.18246020741E+02  0.11120337290E+02  0.32340028050E+02  0.00000000000E+00 0. -1.
        -12    1    4    4    0    0  0.23603035008E+02 -0.33871300215E+02  0.13978318533E+03  0.14575221145E+03  0.00000000000E+00 0.  1.
</event>
<event>
12    1  0.8053217E-002  0.1911388E+03  0.7818608E-02  0.1157650E+00
         21   -1    0    0  501  502  0.00000000000E+00  0.00000000000E+00  0.42350269822E+02  0.42350269822E+02  0.00000000000E+00 0. -1.
         21   -1    0    0  502  503 -0.00000000000E+00 -0.00000000000E+00 -0.85851558919E+03  0.85851558919E+03  0.00000000000E+00 0. -1.
         -6    2    1    2    0  503  0.35458816762E+02 -0.77152804340E+02 -0.40200157582E+03  0.44472371136E+03  0.17018821811E+03 0.  0.
        -24    2    3    3    0    0 -0.11343885422E+02 -0.10403809244E+03 -0.23764744890E+03  0.27166972937E+03  0.79846875163E+02 0.  0.
          6    2    1    2  501    0 -0.35458816762E+02  0.77152804340E+02 -0.41416374355E+03  0.45614214764E+03  0.17124301296E+03 0.  0.
         24    2    5    5    0    0 -0.19457728646E+02  0.25427691337E+02 -0.80727693116E+02  0.11830607517E+03  0.80338012775E+02 0.  0.
          5    1    5    5  501    0 -0.16001088116E+02  0.51725113003E+02 -0.33343605043E+03  0.33783607247E+03  0.47000000000E+01 0. -1.
        -13    1    6    6    0    0  0.22045295962E+02  0.69389316744E+01 -0.66951836695E+02  0.70828612041E+02  0.00000000000E+00 0.  1.
         14    1    6    6    0    0 -0.41503024608E+02  0.18488759663E+02 -0.13775856421E+02  0.47477463133E+02  0.00000000000E+00 0. -1.
         -5    1    3    3    0  503  0.46802702184E+02  0.26885288101E+02 -0.16435412692E+03  0.17305398200E+03  0.47000000000E+01 0.  1.
         13    1    4    4    0    0  0.33873299565E+02 -0.56234445103E+02 -0.12592141666E+03  0.14200674777E+03  0.00000000000E+00 0. -1.
        -14    1    4    4    0    0 -0.45217184987E+02 -0.47803647337E+02 -0.11172603223E+03  0.12966298159E+03  0.00000000000E+00 0.  1.
</event>
<event>
12    1  0.8053217E-002  0.1763464E+03  0.7818608E-02  0.1171608E+00
         21   -1    0    0  503  502  0.00000000000E+00  0.00000000000E+00  0.10008530280E+03  0.10008530280E+03  0.00000000000E+00 0.  1.
         21   -1    0    0  501  503 -0.00000000000E+00 -0.00000000000E+00 -0.38980936952E+03  0.38980936952E+03  0.00000000000E+00 0.  1.
          6    2    1    2  501    0 -0.18706552335E+02  0.33071060789E+02 -0.25657495714E+03  0.31133386278E+03  0.17220463211E+03 0.  0.
         24    2    3    3    0    0 -0.22440158297E+02  0.13246129598E+02 -0.27256158372E+03  0.28516842872E+03  0.79700659754E+02 0.  0.
         -6    2    1    2    0  502  0.18706552335E+02 -0.33071060789E+02 -0.33149109574E+02  0.17856080954E+03  0.17129351732E+03 0.  0.
        -24    2    5    5    0    0 -0.38126654060E+02 -0.37668844913E+02 -0.65422657879E+02  0.11287348285E+03  0.74751022328E+02 0.  0.
          5    1    3    3  501    0  0.37336059624E+01  0.19824931191E+02  0.15986626579E+02  0.26165434061E+02  0.47000000000E+01 0. -1.
        -13    1    4    4    0    0 -0.99076431807E+01  0.37712859404E+01  0.14561418661E+01  0.10700670081E+02  0.00000000000E+00 0.  1.
         14    1    4    4    0    0 -0.12532515117E+02  0.94748436578E+01 -0.27401772558E+03  0.27446775864E+03  0.00000000000E+00 0. -1.
         -5    1    5    5    0  502  0.56833206395E+02  0.45977841241E+01  0.32273548305E+02  0.65687326694E+02  0.47000000000E+01 0.  1.
         13    1    6    6    0    0  0.48364434624E+01 -0.83241630090E+01  0.14561648758E+02  0.17456359578E+02  0.00000000000E+00 0. -1.
        -14    1    6    6    0    0 -0.42963097523E+02 -0.29344681904E+02 -0.79984306636E+02  0.95417123269E+02  0.00000000000E+00 0.  1.
</event>
<event>
12    1  0.8053217E-002  0.1968409E+03  0.7818608E-02  0.1152509E+00
         21   -1    0    0  501  502  0.00000000000E+00  0.00000000000E+00  0.32133954531E+03  0.32133954531E+03  0.00000000000E+00 0. -1.
         21   -1    0    0  502  503 -0.00000000000E+00 -0.00000000000E+00 -0.19516327783E+03  0.19516327783E+03  0.00000000000E+00 0. -1.
         -6    2    1    2    0  503 -0.29564953643E+02  0.90042096313E+02 -0.96833000655E+02  0.21904780749E+03  0.17211521246E+03 0.  0.
        -24    2    3    3    0    0 -0.11921896163E+02 -0.22183847764E+02 -0.32182454802E+02  0.88251312585E+02  0.78219748568E+02 0.  0.
          6    2    1    2  501    0  0.29564953643E+02 -0.90042096313E+02  0.22300926813E+03  0.29745501564E+03  0.17252445353E+03 0.  0.
         24    2    5    5    0    0 -0.22486424848E+02 -0.11164695961E+03  0.13605277764E+03  0.19372634381E+03  0.77774385827E+02 0.  0.
          5    1    5    5  501    0  0.52051378491E+02  0.21604863296E+02  0.86956490493E+02  0.10372867183E+03  0.47000000000E+01 0. -1.
        -11    1    6    6    0    0 -0.10933409880E+01 -0.10235187296E+03  0.70874683807E+02  0.12450028955E+03  0.00000000000E+00 0.  1.
         12    1    6    6    0    0 -0.21393083860E+02 -0.92950866459E+01  0.65178093833E+02  0.69226054261E+02  0.00000000000E+00 0. -1.
         -5    1    3    3    0  503 -0.17643057480E+02  0.11222594408E+03 -0.64650545853E+02  0.13079649491E+03  0.47000000000E+01 0.  1.
         13    1    4    4    0    0 -0.20081608447E+02  0.26088955142E+02 -0.16619005196E+02  0.36879478195E+02  0.00000000000E+00 0. -1.
        -14    1    4    4    0    0  0.81597122843E+01 -0.48272802906E+02 -0.15563449606E+02  0.51371834390E+02  0.00000000000E+00 0.  1.
</event>
<event>
12    1  0.8053217E-002  0.2811617E+03  0.7818608E-02  0.1095442E+00
         21   -1    0    0  501  502  0.00000000000E+00  0.00000000000E+00  0.80454911213E+03  0.80454911213E+03  0.00000000000E+00 0. -1.
         21   -1    0    0  502  503 -0.00000000000E+00 -0.00000000000E+00 -0.87749208644E+03  0.87749208644E+03  0.00000000000E+00 0.  1.
         -6    2    1    2    0  503  0.14496143554E+03  0.16920466895E+03 -0.82948774312E+03  0.87494028031E+03  0.16681289021E+03 0.  0.
        -24    2    3    3    0    0  0.36651954210E+02  0.10900718082E+03 -0.57621204062E+03  0.59293788174E+03  0.79555544318E+02 0.  0.
          6    2    1    2  501    0 -0.14496143554E+03 -0.16920466895E+03  0.75654476881E+03  0.80710091827E+03  0.17148722187E+03 0.  0.
         24    2    5    5    0    0 -0.10364488754E+02 -0.58253336043E+02  0.37477445662E+03  0.38734241910E+03  0.77957568636E+02 0.  0.
          5    1    5    5  501    0 -0.13459694679E+03 -0.11095133291E+03  0.38177031219E+03  0.41975849917E+03  0.47000000000E+01 0. -1.
        -11    1    6    6    0    0  0.27847058346E+01 -0.75436548790E+02  0.30960752318E+03  0.31867733821E+03  0.00000000000E+00 0.  1.
         12    1    6    6    0    0 -0.13149194588E+02  0.17183212747E+02  0.65166933441E+02  0.68665080884E+02  0.00000000000E+00 0. -1.
         -5    1    3    3    0  503  0.10830948133E+03  0.60197488129E+02 -0.25327570250E+03  0.28200239857E+03  0.47000000000E+01 0.  1.
         13    1    4    4    0    0  0.19153813695E+02  0.56130123228E+01 -0.23815714506E+03  0.23899205056E+03  0.00000000000E+00 0. -1.
        -14    1    4    4    0    0  0.17498140514E+02  0.10339416850E+03 -0.33805489556E+03  0.35394583118E+03  0.00000000000E+00 0.  1.
</event>
<event>
12    1  0.8053217E-002  0.1737033E+03  0.7818608E-02  0.1174572E+00
         21   -1    0    0  501  502  0.00000000000E+00  0.00000000000E+00  0.35913666030E+02  0.35913666030E+02  0.00000000000E+00 0.  1.
         21   -1    0    0  502  503 -0.00000000000E+00 -0.00000000000E+00 -0.10664828694E+04  0.10664828694E+04  0.00000000000E+00 0.  1.
         -6    2    1    2    0  503  0.19939213148E+02 -0.34734556659E+01 -0.77236327193E+03  0.79120022574E+03  0.17042046905E+03 0.  0.
        -24    2    3    3    0    0 -0.53629435121E+02 -0.71565836293E+01 -0.41457388955E+03  0.42587674774E+03  0.81068868022E+02 0.  0.
          6    2    1    2  501    0 -0.19939213148E+02  0.34734556659E+01 -0.25820593145E+03  0.31119630970E+03  0.17252015250E+03 0.  0.
         24    2    5    5    0    0 -0.26317394306E+02 -0.45125717333E+02 -0.88364743339E+02  0.13436113223E+03  0.86692850810E+02 0.  0.
          5    1    5    5  501    0  0.63781811587E+01  0.48599172999E+02 -0.16984118811E+03  0.17683517746E+03  0.47000000000E+01 0. -1.
        -13    1    6    6    0    0 -0.55252213578E+02 -0.10907839913E+02 -0.46462619185E+02  0.73010705094E+02  0.00000000000E+00 0.  1.
         14    1    6    6    0    0  0.28934819272E+02 -0.34217877420E+02 -0.41902124155E+02  0.61350427139E+02  0.00000000000E+00 0. -1.
         -5    1    3    3    0  503  0.73568648269E+02  0.36831279634E+01 -0.35778938237E+03  0.36532347800E+03  0.47000000000E+01 0.  1.
         13    1    4    4    0    0 -0.45256092912E+01 -0.34146786597E+02 -0.87461226275E+02  0.93999735510E+02  0.00000000000E+00 0. -1.
        -14    1    4    4    0    0 -0.49103825830E+02  0.26990202968E+02 -0.32711266328E+03  0.33187701223E+03  0.00000000000E+00 0.  1.
</event>
<event>
12    1  0.8053217E-002  0.1883444E+03  0.7818608E-02  0.1159981E+00
         21   -1    0    0  503  502  0.00000000000E+00  0.00000000000E+00  0.10302016456E+03  0.10302016456E+03  0.00000000000E+00 0.  1.
         21   -1    0    0  501  503 -0.00000000000E+00 -0.00000000000E+00 -0.79855585522E+03  0.79855585522E+03  0.00000000000E+00 0.  1.
          6    2    1    2  501    0  0.73201945773E+02  0.23645529600E+02 -0.68783003510E+03  0.71315060033E+03  0.17191854358E+03 0.  0.
         24    2    3    3    0    0  0.71511056579E+02 -0.13268752937E+02 -0.23654880816E+03  0.26033456798E+03  0.80801346690E+02 0.  0.
         -6    2    1    2    0  502 -0.73201945773E+02 -0.23645529600E+02 -0.77056555649E+01  0.18842541946E+03  0.17183458801E+03 0.  0.
        -24    2    5    5    0    0 -0.10282126878E+03 -0.57189509267E+02  0.29151525347E+01  0.14219345614E+03  0.79797415829E+02 0.  0.
          5    1    3    3  501    0  0.16908891940E+01  0.36914282537E+02 -0.45128122694E+03  0.45281603234E+03  0.47000000000E+01 0. -1.
        -13    1    4    4    0    0  0.27595199223E+02  0.97768668168E+01 -0.19024259740E+03  0.19248201997E+03  0.00000000000E+00 0.  1.
         14    1    4    4    0    0  0.43915857356E+02 -0.23045619753E+02 -0.46306210758E+02  0.67852548013E+02  0.00000000000E+00 0. -1.
         -5    1    5    5    0  502  0.29619323004E+02  0.33543979667E+02 -0.10620808100E+02  0.46231963314E+02  0.47000000000E+01 0.  1.
         13    1    6    6    0    0 -0.24489275729E+02  0.60550214296E+01 -0.27211457837E+02  0.37105947608E+02  0.00000000000E+00 0. -1.
        -14    1    6    6    0    0 -0.78331993049E+02 -0.63244530697E+02  0.30126610372E+02  0.10508750854E+03  0.00000000000E+00 0.  1.
</event>
<event>
12    1  0.8053217E-002  0.2205740E+03  0.7818608E-02  0.1133718E+00
         21   -1    0    0  501  502  0.00000000000E+00  0.00000000000E+00  0.15365635452E+04  0.15365635452E+04  0.00000000000E+00 0. -1.
         21   -1    0    0  502  503 -0.00000000000E+00 -0.00000000000E+00 -0.11808966906E+03  0.11808966906E+03  0.00000000000E+00 0. -1.
         -6    2    1    2    0  503  0.13641621569E+03  0.18729169112E+02  0.35512468770E-01  0.21916714078E+03  0.17051119804E+03 0.  0.
        -24    2    3    3    0    0  0.31871992985E+02  0.60275933571E+02 -0.34740476790E+01  0.10651708463E+03  0.81760676401E+02 0.  0.
          6    2    1    2  501    0 -0.13641621569E+03 -0.18729169112E+02  0.14184383636E+04  0.14354860734E+04  0.17231572745E+03 0.  0.
         24    2    5    5    0    0 -0.52753365117E+02  0.44165228562E+02  0.48765621405E+03  0.49882568791E+03  0.79277984815E+02 0.  0.
          5    1    5    5  501    0 -0.83662850573E+02 -0.62894397674E+02  0.93078214960E+03  0.93666038554E+03  0.47000000000E+01 0. -1.
        -13    1    6    6    0    0 -0.41636424629E+01 -0.22200980474E+02  0.95249306155E+02  0.97891009677E+02  0.00000000000E+00 0.  1.
         14    1    6    6    0    0 -0.48589722654E+02  0.66366209036E+02  0.39240690789E+03  0.40093467823E+03  0.00000000000E+00 0. -1.
         -5    1    3    3    0  503  0.10454422271E+03 -0.41546764459E+02  0.35095601478E+01  0.11265005615E+03  0.47000000000E+01 0.  1.
         13    1    4    4    0    0  0.55298966000E+02  0.61867388883E+02 -0.28013963239E+01  0.83026485348E+02  0.00000000000E+00 0. -1.
        -14    1    4    4    0    0 -0.23426973015E+02 -0.15914553115E+01 -0.67265135519E+00  0.23490599280E+02  0.00000000000E+00 0.  1.
</event>
<event>
12    1  0.8053217E-002  0.2056919E+03  0.7818608E-02  0.1145269E+00
         21   -1    0    0  501  502  0.00000000000E+00  0.00000000000E+00  0.97505428406E+02  0.97505428406E+02  0.00000000000E+00 0.  1.
         21   -1    0    0  502  503 -0.00000000000E+00 -0.00000000000E+00 -0.76444899731E+03  0.76444899731E+03  0.00000000000E+00 0.  1.
         -6    2    1    2    0  503 -0.37411555470E+02  0.10369967553E+03 -0.61849608951E+03  0.65180256811E+03  0.17365462237E+03 0.  0.
        -24    2    3    3    0    0 -0.30373851479E+02  0.13360239228E+03 -0.39037186014E+03  0.42157125883E+03  0.80993623258E+02 0.  0.
          6    2    1    2  501    0  0.37411555470E+02 -0.10369967553E+03 -0.48447479396E+02  0.21015185761E+03  0.17223065293E+03 0.  0.
         24    2    5    5    0    0  0.83597083228E+02 -0.54266636980E+02 -0.50520291044E+00  0.12710199217E+03  0.78875350844E+02 0.  0.
          5    1    5    5  501    0 -0.46185527758E+02 -0.49433038545E+02 -0.47942276486E+02  0.83049865435E+02  0.47000000000E+01 0. -1.
        -13    1    6    6    0    0  0.86387590552E+02 -0.40582062948E+02 -0.25214126074E+02  0.98719156136E+02  0.00000000000E+00 0.  1.
         14    1    6    6    0    0 -0.27905073241E+01 -0.13684574032E+02  0.24708923163E+02  0.28382836036E+02  0.00000000000E+00 0. -1.
         -5    1    3    3    0  503 -0.70377039909E+01 -0.29902716752E+02 -0.22812422937E+03  0.23023130928E+03  0.47000000000E+01 0.  1.
         11    1    4    4    0    0 -0.40897460805E+02  0.22295040810E+02 -0.13456841305E+03  0.14240199765E+03  0.00000000000E+00 0. -1.
        -12    1    4    4    0    0  0.10523609326E+02  0.11130735147E+03 -0.25580344709E+03  0.27916926118E+03  0.00000000000E+00 0.  1.
</event>
<event>
12    1  0.8053217E-002  0.2006492E+03  0.7818608E-02  0.1149248E+00
         21   -1    0    0  501  502  0.00000000000E+00  0.00000000000E+00  0.40229471501E+02  0.40229471501E+02  0.00000000000E+00 0. -1.
         21   -1    0    0  502  503 -0.00000000000E+00 -0.00000000000E+00 -0.10946601666E+04  0.10946601666E+04  0.00000000000E+00 0. -1.
         -6    2    1    2    0  503 -0.85197558619E+02  0.59497958996E+02 -0.69489488020E+03  0.72328348842E+03  0.17164346470E+03 0.  0.
        -24    2    3    3    0    0 -0.75693783172E+01  0.66017021922E+02 -0.23697304114E+03  0.25875885695E+03  0.79902322553E+02 0.  0.
          6    2    1    2  501    0  0.85197558619E+02 -0.59497958996E+02 -0.35953581492E+03  0.41160614970E+03  0.17133297739E+03 0.  0.
         24    2    5    5    0    0  0.35976737969E+02 -0.10173682156E+03 -0.22167706679E+03  0.25917933076E+03  0.79928074026E+02 0.  0.
          5    1    5    5  501    0  0.49220820650E+02  0.42238862562E+02 -0.13785874813E+03  0.15242681894E+03  0.47000000000E+01 0. -1.
        -11    1    6    6    0    0  0.16611366583E+02  0.63756871721E+01 -0.92868143039E+01  0.20070670307E+02  0.00000000000E+00 0.  1.
         12    1    6    6    0    0  0.19365371386E+02 -0.10811250873E+03 -0.21239025249E+03  0.23910866046E+03  0.00000000000E+00 0. -1.
         -5    1    3    3    0  503 -0.77628180302E+02 -0.65190629260E+01 -0.45792183905E+03  0.46452463147E+03  0.47000000000E+01 0.  1.
         11    1    4    4    0    0 -0.35367361162E+01  0.73528490747E+02 -0.23892884791E+03  0.25001188335E+03  0.00000000000E+00 0. -1.
        -12    1    4    4    0    0 -0.40326422010E+01 -0.75114688245E+01  0.19558067654E+01  0.87469735981E+01  0.00000000000E+00 0.  1.
</event>
<event>
12    1  0.8053217E-002  0.1878311E+03  0.7818608E-02  0.1160639E+00
         21   -1    0    0  501  502  0.00000000000E+00  0.00000000000E+00  0.29742349078E+02  0.29742349078E+02  0.00000000000E+00 0.  1.
         21   -1    0    0  502  503 -0.00000000000E+00 -0.00000000000E+00 -0.11828147007E+04  0.11828147007E+04  0.00000000000E+00 0.  1.
         -6    2    1    2    0  503  0.27883483599E+02  0.69559087958E+02 -0.60183713384E+03  0.63019908866E+03  0.17125127824E+03 0.  0.
        -24    2    3    3    0    0 -0.28981124718E+02  0.90694982369E+02 -0.43753902425E+03  0.45499558262E+03  0.80716151099E+02 0.  0.
          6    2    1    2  501    0 -0.27883483599E+02 -0.69559087958E+02 -0.55123521773E+03  0.58235796107E+03  0.17223406800E+03 0.  0.
         24    2    5    5    0    0  0.27523013829E+01 -0.71569566504E+02 -0.18284561042E+03  0.21266134745E+03  0.81624465928E+02 0.  0.
          5    1    5    5  501    0 -0.30635784982E+02  0.20104785457E+01 -0.36838960732E+03  0.36969661363E+03  0.47000000000E+01 0. -1.
        -11    1    6    6    0    0  0.12045240370E+02 -0.54836714189E+02 -0.18506405870E+03  0.19339301658E+03  0.00000000000E+00 0.  1.
         12    1    6    6    0    0 -0.92929389875E+01 -0.16732852315E+02  0.22184482875E+01  0.19268330868E+02  0.00000000000E+00 0. -1.
         -5    1    3    3    0  503  0.56864608318E+02 -0.21135894411E+02 -0.16429810959E+03  0.17520350604E+03  0.47000000000E+01 0.  1.
         13    1    4    4    0    0 -0.27823413262E+02  0.18427654795E+01 -0.48565777853E+02  0.56001543627E+02  0.00000000000E+00 0. -1.
        -14    1    4    4    0    0 -0.11577114567E+01  0.88852216889E+02 -0.38897324639E+03  0.39899403899E+03  0.00000000000E+00 0.  1.
</event>
<event>
12    1  0.8053217E-002  0.2166106E+03  0.7818608E-02  0.1136520E+00
         21   -1    0    0  503  502  0.00000000000E+00  0.00000000000E+00  0.32356880901E+02  0.32356880901E+02  0.00000000000E+00 0. -1.
         21   -1    0    0  501  503 -0.00000000000E+00 -0.00000000000E+00 -0.14712132156E+04  0.14712132156E+04  0.00000000000E+00 0. -1.
          6    2    1    2  501    0  0.13098806970E+03 -0.11614082979E+02 -0.81493688776E+03  0.84311902615E+03  0.17156573054E+03 0.  0.
         24    2    3    3    0    0  0.16886498067E+02 -0.21711636717E+02 -0.51678218484E+03  0.52368288838E+03  0.80146066816E+02 0.  0.
         -6    2    1    2    0  502 -0.13098806970E+03  0.11614082979E+02 -0.62391944698E+03  0.66045107039E+03  0.17212605478E+03 0.  0.
        -24    2    5    5    0    0 -0.20706404939E+02 -0.10667199328E+02 -0.13051621347E+03  0.15436081958E+03  0.79058435964E+02 0.  0.
          5    1    3    3  501    0  0.11410157163E+03  0.10097553738E+02 -0.29815470292E+03  0.31943613777E+03  0.47000000000E+01 0. -1.
        -13    1    4    4    0    0  0.45694667640E+01 -0.42295048353E+02 -0.14458504099E+03  0.15071358671E+03  0.00000000000E+00 0.  1.
         14    1    4    4    0    0  0.12317031303E+02  0.20583411636E+02 -0.37219714385E+03  0.37296930167E+03  0.00000000000E+00 0. -1.
         -5    1    5    5    0  502 -0.11028166476E+03  0.22281282307E+02 -0.49340323351E+03  0.50609025081E+03  0.47000000000E+01 0.  1.
         13    1    6    6    0    0 -0.95807717460E+01 -0.12578007681E+02 -0.13921469174E+03  0.14010969939E+03  0.00000000000E+00 0. -1.
        -14    1    6    6    0    0 -0.11125633193E+02  0.19108083525E+01  0.86984782771E+01  0.14251120196E+02  0.00000000000E+00 0.  1.
</event>
<event>
12    1  0.8053217E-002  0.2310932E+03  0.7818608E-02  0.1125952E+00
         21   -1    0    0  501  502  0.00000000000E+00  0.00000000000E+00  0.15316057484E+03  0.15316057484E+03  0.00000000000E+00 0.  1.
         21   -1    0    0  502  503 -0.00000000000E+00 -0.00000000000E+00 -0.77206825278E+03  0.77206825278E+03  0.00000000000E+00 0. -1.
         -6    2    1    2    0  503 -0.14353455157E+03 -0.54376584787E+02 -0.65244565942E+03  0.69216285331E+03  0.17275733429E+03 0.  0.
        -24    2    3    3    0    0 -0.24023055072E+02 -0.65374200608E+02 -0.23218706466E+03  0.25507782518E+03  0.79391250311E+02 0.  0.
          6    2    1    2  501    0  0.14353455157E+03  0.54376584787E+02  0.33537981475E+02  0.23306597431E+03  0.17215101426E+03 0.  0.
         24    2    5    5    0    0  0.11112604035E+03  0.98617958435E+02  0.50081354047E+02  0.17559090217E+03  0.79053933046E+02 0.  0.
          5    1    5    5  501    0  0.32408511214E+02 -0.44241373648E+02 -0.16543372572E+02  0.57475072139E+02  0.47000000000E+01 0. -1.
        -11    1    6    6    0    0  0.58579723972E+02  0.20861958816E+02  0.52990756384E+02  0.81699606171E+02  0.00000000000E+00 0.  1.
         12    1    6    6    0    0  0.52546316380E+02  0.77755999618E+02 -0.29094023369E+01  0.93891295995E+02  0.00000000000E+00 0. -1.
         -5    1    3    3    0  503 -0.11951149649E+03  0.10997615821E+02 -0.42025859476E+03  0.43708502813E+03  0.47000000000E+01 0.  1.
         11    1    4    4    0    0 -0.77069497401E+01  0.14069491526E+02 -0.89727497646E+02  0.91150268787E+02  0.00000000000E+00 0. -1.
        -12    1    4    4    0    0 -0.16316105332E+02 -0.79443692134E+02 -0.14245956701E+03  0.16392755640E+03  0.00000000000E+00 0.  1.
</event>
<event>
12    1  0.8053217E-002  0.1813488E+03  0.7818608E-02  0.1166536E+00
         21   -1    0    0  503  502  0.00000000000E+00  0.00000000000E+00  0.63351678069E+02  0.63351678069E+02  0.00000000000E+00 0.  1.
         21   -1    0    0  501  503 -0.00000000000E+00 -0.00000000000E+00 -0.83007867782E+03  0.83007867782E+03  0.00000000000E+00 0.  1.
          6    2    1    2  501    0 -0.57316281102E+02 -0.78830627370E+01 -0.65703442503E+03  0.68160224401E+03  0.17187229157E+03 0.  0.
         24    2    3    3    0    0 -0.15737614012E+02  0.54968583626E+02 -0.34392751224E+03  0.35951973309E+03  0.87744442109E+02 0.  0.
         -6    2    1    2    0  502  0.57316281102E+02  0.78830627370E+01 -0.10969257472E+03  0.21182811188E+03  0.17173057175E+03 0.  0.
        -24    2    5    5    0    0 -0.32542963249E+02  0.21964319518E+02 -0.71626752009E+02  0.11311609414E+03  0.78252050198E+02 0.  0.
          5    1    3    3  501    0 -0.41578667090E+02 -0.62851646363E+02 -0.31310691279E+03  0.32208251093E+03  0.47000000000E+01 0. -1.
        -11    1    4    4    0    0 -0.28780728942E+02  0.56652233404E+02 -0.12524920452E+03  0.14044632121E+03  0.00000000000E+00 0.  1.
         12    1    4    4    0    0  0.13043114931E+02 -0.16836497777E+01 -0.21867830772E+03  0.21907341188E+03  0.00000000000E+00 0. -1.
         -5    1    5    5    0  502  0.89859244351E+02 -0.14081256781E+02 -0.38065822709E+02  0.98712017740E+02  0.47000000000E+01 0.  1.
         13    1    6    6    0    0 -0.19054284177E+02 -0.14515142941E+02 -0.70224677502E+02  0.74197442344E+02  0.00000000000E+00 0. -1.
        -14    1    6    6    0    0 -0.13488679072E+02  0.36479462459E+02 -0.14020745077E+01  0.38918651792E+02  0.00000000000E+00 0.  1.
</event>
<event>
12    1  0.8053217E-002  0.2339753E+03  0.7818608E-02  0.1123916E+00
         21   -1    0    0  503  502  0.00000000000E+00  0.00000000000E+00  0.29321951647E+03  0.29321951647E+03  0.00000000000E+00 0.  1.
         21   -1    0    0  501  503 -0.00000000000E+00 -0.00000000000E+00 -0.20804766423E+03  0.20804766423E+03  0.00000000000E+00 0. -1.
          6    2    1    2  501    0 -0.86440003093E+02 -0.13273842293E+03 -0.38053338512E+02  0.23704960028E+03  0.17220073566E+03 0.  0.
         24    2    3    3    0    0 -0.92952112999E+02 -0.30946153016E+02  0.37045882075E+01  0.12673238388E+03  0.80309485440E+02 0.  0.
         -6    2    1    2    0  502  0.86440003093E+02  0.13273842293E+03  0.12322519075E+03  0.26421758043E+03  0.17185784566E+03 0.  0.
        -24    2    5    5    0    0  0.89771322320E+02  0.40467753873E+02  0.24011078150E+02  0.12860598728E+03  0.79160840549E+02 0.  0.
          5    1    3    3  501    0  0.65121099060E+01 -0.10179226992E+03 -0.41757926720E+02  0.11031721640E+03  0.47000000000E+01 0. -1.
        -13    1    4    4    0    0 -0.12799786209E+02  0.36651179852E+01  0.32240302574E+02  0.34881294800E+02  0.00000000000E+00 0.  1.
         14    1    4    4    0    0 -0.80152326790E+02 -0.34611271002E+02 -0.28535714366E+02  0.91851089077E+02  0.00000000000E+00 0. -1.
         -5    1    5    5    0  502 -0.33313192268E+01  0.92270669059E+02  0.99214112601E+02  0.13561159315E+03  0.47000000000E+01 0.  1.
         11    1    6    6    0    0  0.49391367290E+02  0.60829844703E+02  0.21753469150E+01  0.78386920488E+02  0.00000000000E+00 0. -1.
        -12    1    6    6    0    0  0.40379955029E+02 -0.20362090830E+02  0.21835731235E+02  0.50219066794E+02  0.00000000000E+00 0.  1.
</event>
<event>
12    1  0.8053217E-002  0.1962200E+03  0.7818608E-02  0.1152981E+00
         21   -1    0    0  503  502  0.00000000000E+00  0.00000000000E+00  0.19828010714E+04  0.19828010714E+04  0.00000000000E+00 0. -1.
         21   -1    0    0  501  503 -0.00000000000E+00 -0.00000000000E+00 -0.25642852517E+02  0.25642852517E+02  0.00000000000E+00 0. -1.
          6    2    1    2  501    0  0.65571957811E+02  0.65858058644E+02  0.48346489875E+03  0.52174479312E+03  0.17274940025E+03 0.  0.
         24    2    3    3    0    0  0.24757440042E+02 -0.34462536939E+02  0.16149946332E+03  0.18201861166E+03  0.72443778533E+02 0.  0.
         -6    2    1    2    0  502 -0.65571957811E+02 -0.65858058644E+02  0.14736933202E+04  0.14866991308E+04  0.17281590831E+03 0.  0.
        -24    2    5    5    0    0 -0.80537356275E+02 -0.97403158419E+02  0.92313904695E+03  0.93501883008E+03  0.78108076311E+02 0.  0.
          5    1    3    3  501    0  0.40814517769E+02  0.10032059558E+03  0.32196543543E+03  0.33972618146E+03  0.47000000000E+01 0. -1.
        -13    1    4    4    0    0  0.54220578608E+01 -0.34944143351E+02  0.15855965447E+03  0.16245508884E+03  0.00000000000E+00 0.  1.
         14    1    4    4    0    0  0.19335382181E+02  0.48160641234E+00  0.29398088493E+01  0.19563522814E+02  0.00000000000E+00 0. -1.
         -5    1    5    5    0  502  0.14965398464E+02  0.31545099775E+02  0.55055427324E+03  0.55168030077E+03  0.47000000000E+01 0.  1.
         11    1    6    6    0    0 -0.47782201115E+02 -0.10435111567E+03  0.73923943355E+03  0.74809573866E+03  0.00000000000E+00 0. -1.
        -12    1    6    6    0    0 -0.32755155160E+02  0.69479572529E+01  0.18389961339E+03  0.18692309142E+03  0.00000000000E+00 0.  1.
</event>
<event>
12    1  0.8053217E-002  0.2930111E+03  0.7818608E-02  0.1088904E+00
         21   -1    0    0  501  502  0.00000000000E+00  0.00000000000E+00  0.49997695876E+03  0.49997695876E+03  0.00000000000E+00 0.  1.
         21   -1    0    0  502  503 -0.00000000000E+00 -0.00000000000E+00 -0.35559456332E+03  0.35559456332E+03  0.00000000000E+00 0.  1.
         -6    2    1    2    0  503 -0.54975451898E+02 -0.22954323284E+03 -0.23581535300E+03  0.37611751030E+03  0.17361769721E+03 0.  0.
        -24    2    3    3    0    0 -0.48579601400E+02 -0.15455297966E+03 -0.24006968801E+03  0.30058848049E+03  0.80457307378E+02 0.  0.
          6    2    1    2  501    0  0.54975451898E+02  0.22954323284E+03  0.38019774845E+03  0.47945401178E+03  0.17208551779E+03 0.  0.
         24    2    5    5    0    0 -0.68217438006E+01  0.15601830730E+03  0.15285744697E+03  0.23261294804E+03  0.79719107506E+02 0.  0.
          5    1    5    5  501    0  0.61797195699E+02  0.73524925548E+02  0.22734030148E+03  0.24684106374E+03  0.47000000000E+01 0. -1.
        -13    1    6    6    0    0 -0.27220515329E+02  0.84941201733E+02  0.12507007524E+03  0.15361799350E+03  0.00000000000E+00 0.  1.
         14    1    6    6    0    0  0.20398771529E+02  0.71077105564E+02  0.27787371732E+02  0.78994954541E+02  0.00000000000E+00 0. -1.
         -5    1    3    3    0  503 -0.63958504988E+01 -0.74990253189E+02  0.42543350063E+01  0.75529029805E+02  0.47000000000E+01 0.  1.
         13    1    4    4    0    0 -0.20005217466E+01  0.42380052113E+01  0.36901622839E+01  0.59649034453E+01  0.00000000000E+00 0. -1.
        -14    1    4    4    0    0 -0.46579079653E+02 -0.15879098487E+03 -0.24375985029E+03  0.29462357705E+03  0.00000000000E+00 0.  1.
</event>
<event>
12    1  0.8053217E-002  0.3473552E+03  0.7818608E-02  0.1063919E+00
         21   -1    0    0  503  502  0.00000000000E+00  0.00000000000E+00  0.41940575081E+03  0.41940575081E+03  0.00000000000E+00 0. -1.
         21   -1    0    0  501  503 -0.00000000000E+00 -0.00000000000E+00 -0.83204642776E+03  0.83204642776E+03  0.00000000000E+00 0.  1.
          6    2    1    2  501    0 -0.26411793529E+03  0.14462846442E+03 -0.71343983846E+03  0.79350614804E+03  0.17314712645E+03 0.  0.
         24    2    3    3    0    0 -0.26574401565E+03  0.16449760957E+03 -0.69360108255E+03  0.76499135709E+03  0.80311700924E+02 0.  0.
         -6    2    1    2    0  502  0.26411793529E+03 -0.14462846442E+03  0.30079916151E+03  0.45794603054E+03  0.16899335744E+03 0.  0.
        -24    2    5    5    0    0  0.27221417545E+03 -0.12467691309E+03  0.30553339276E+03  0.43540459202E+03  0.81127151350E+02 0.  0.
          5    1    3    3  501    0  0.16260803590E+01 -0.19869145149E+02 -0.19838755917E+02  0.28514790945E+02  0.47000000000E+01 0. -1.
        -13    1    4    4    0    0 -0.14499981057E+03  0.66800404941E+02 -0.43452465424E+03  0.46292430732E+03  0.00000000000E+00 0.  1.
         14    1    4    4    0    0 -0.12074420508E+03  0.97697204626E+02 -0.25907642831E+03  0.30206704977E+03  0.00000000000E+00 0. -1.
         -5    1    5    5    0  502 -0.80962401586E+01 -0.19951551326E+02 -0.47342312484E+01  0.22541438520E+02  0.47000000000E+01 0.  1.
         13    1    6    6    0    0  0.73043520893E+02 -0.54573064391E+02  0.14014096268E+03  0.16719170052E+03  0.00000000000E+00 0. -1.
        -14    1    6    6    0    0  0.19917065456E+03 -0.70103848701E+02  0.16539243008E+03  0.26821289150E+03  0.00000000000E+00 0.  1.
</event>
<event>
12    1  0.8053217E-002  0.2101812E+03  0.7818608E-02  0.1141678E+00
         21   -1    0    0  501  502  0.00000000000E+00  0.00000000000E+00  0.32257706459E+03  0.32257706459E+03  0.00000000000E+00 0. -1.
         21   -1    0    0  502  503 -0.00000000000E+00 -0.00000000000E+00 -0.38315533609E+03  0.38315533609E+03  0.00000000000E+00 0. -1.
         -6    2    1    2    0  503  0.11937550273E+03  0.16851491732E+02 -0.31366430982E+03  0.37757308471E+03  0.17216751035E+03 0.  0.
        -24    2    3    3    0    0  0.51453618549E+02 -0.50623271768E+02 -0.11483374450E+03  0.15684268408E+03  0.78756892819E+02 0.  0.
          6    2    1    2  501    0 -0.11937550273E+03 -0.16851491732E+02  0.25308603831E+03  0.32815931597E+03  0.17059164821E+03 0.  0.
         24    2    5    5    0    0 -0.71239061299E+02 -0.69688227819E+02  0.11863833606E+03  0.17582050832E+03  0.83104412707E+02 0.  0.
          5    1    5    5  501    0 -0.48136441431E+02  0.52836736086E+02  0.13444770225E+03  0.15233880765E+03  0.47000000000E+01 0. -1.
        -13    1    6    6    0    0  0.15366720372E+02 -0.82987883761E+01  0.11877017222E+01  0.17504759892E+02  0.00000000000E+00 0.  1.
         14    1    6    6    0    0 -0.86605781671E+02 -0.61389439442E+02  0.11745063434E+03  0.15831574843E+03  0.00000000000E+00 0. -1.
         -5    1    3    3    0  503  0.67921884182E+02  0.67474763500E+02 -0.19883056532E+03  0.22073040064E+03  0.47000000000E+01 0.  1.
         13    1    4    4    0    0 -0.31358520273E+01  0.17003557977E+02 -0.34038354247E+02  0.38178057987E+02  0.00000000000E+00 0. -1.
        -14    1    4    4    0    0  0.54589470576E+02 -0.67626829744E+02 -0.80795390250E+02  0.11866462609E+03  0.00000000000E+00 0.  1.
</event>
<event>
12    1  0.8053217E-002  0.2506535E+03  0.7818608E-02  0.1112961E+00
         21   -1    0    0  501  502  0.00000000000E+00  0.00000000000E+00  0.28942149643E+03  0.28942149643E+03  0.00000000000E+00 0.  1.
         21   -1    0    0  502  503 -0.00000000000E+00 -0.00000000000E+00 -0.60888542401E+03  0.60888542401E+03  0.00000000000E+00 0.  1.
         -6    2    1    2    0  503 -0.93898547381E+02 -0.15563985075E+03 -0.52015403937E+03  0.57720929428E+03  0.17195826349E+03 0.  0.
        -24    2    3    3    0    0 -0.14251701404E+02 -0.62939147773E+02 -0.36903527204E+03  0.38279732899E+03  0.78627703507E+02 0.  0.
          6    2    1    2  501    0  0.93898547381E+02  0.15563985075E+03  0.20069011180E+03  0.32109762616E+03  0.17258755521E+03 0.  0.
         24    2    5    5    0    0  0.58630299681E+02  0.18084634546E+03  0.16517475215E+03  0.26486020587E+03  0.82008031296E+02 0.  0.
          5    1    5    5  501    0  0.35268247701E+02 -0.25206494704E+02  0.35515359644E+02  0.56237420298E+02  0.47000000000E+01 0. -1.
        -13    1    6    6    0    0 -0.40944784218E+01  0.10350859529E+03  0.58644696370E+02  0.11903778587E+03  0.00000000000E+00 0.  1.
         14    1    6    6    0    0  0.62724778102E+02  0.77337750170E+02  0.10653005578E+03  0.14582242000E+03  0.00000000000E+00 0. -1.
         -5    1    3    3    0  503 -0.79646845977E+02 -0.92700702979E+02 -0.15111876734E+03  0.19441196529E+03  0.47000000000E+01 0.  1.
         11    1    4    4    0    0  0.21754952492E+02  0.65270653816E+01 -0.10414067467E+03  0.10658874547E+03  0.00000000000E+00 0. -1.
        -12    1    4    4    0    0 -0.36006653896E+02 -0.69466213155E+02 -0.26489459736E+03  0.27620858351E+03  0.00000000000E+00 0.  1.
</event>
<event>
12    1  0.8053217E-002  0.1802987E+03  0.7818608E-02  0.1168311E+00
         21   -1    0    0  503  502  0.00000000000E+00  0.00000000000E+00  0.56475292313E+02  0.56475292313E+02  0.00000000000E+00 0. -1.
         21   -1    0    0  501  503 -0.00000000000E+00 -0.00000000000E+00 -0.58046302102E+03  0.58046302102E+03  0.00000000000E+00 0.  1.
          6    2    1    2  501    0 -0.18305662995E+02  0.40369845485E+02 -0.31593576245E+03  0.36376233221E+03  0.17476500399E+03 0.  0.
         24    2    3    3    0    0 -0.36467826449E+02  0.13339188820E+02 -0.31931509859E+03  0.33068620043E+03  0.76703289629E+02 0.  0.
         -6    2    1    2    0  502  0.18305662995E+02 -0.40369845485E+02 -0.20805196625E+03  0.27317598112E+03  0.17139041477E+03 0.  0.
        -24    2    5    5    0    0  0.24372375729E+02 -0.62875524737E+02 -0.22225317594E+03  0.24547986300E+03  0.79476692271E+02 0.  0.
          5    1    3    3  501    0  0.18162163454E+02  0.27030656665E+02  0.33793361414E+01  0.33076131784E+02  0.47000000000E+01 0. -1.
        -13    1    4    4    0    0 -0.41903095138E+02  0.31128929992E+02 -0.29737547388E+03  0.30192226173E+03  0.00000000000E+00 0.  1.
         14    1    4    4    0    0  0.54352686895E+01 -0.17789741172E+02 -0.21939624711E+02  0.28763938693E+02  0.00000000000E+00 0. -1.
         -5    1    5    5    0  502 -0.60667127337E+01  0.22505679252E+02  0.14201209689E+02  0.27696118115E+02  0.47000000000E+01 0.  1.
         13    1    6    6    0    0 -0.63857473437E+01 -0.45876162803E+02 -0.44310607975E+02  0.64100156488E+02  0.00000000000E+00 0. -1.
        -14    1    6    6    0    0  0.30758123072E+02 -0.16999361934E+02 -0.17794256796E+03  0.18137970651E+03  0.00000000000E+00 0.  1.
</event>
<event>
12    1  0.8053217E-002  0.1854046E+03  0.7818608E-02  0.1162784E+00
         21   -1    0    0  501  502  0.00000000000E+00  0.00000000000E+00  0.31703943939E+03  0.31703943939E+03  0.00000000000E+00 0. -1.
         21   -1    0    0  502  503 -0.00000000000E+00 -0.00000000000E+00 -0.45754769854E+03  0.45754769854E+03  0.00000000000E+00 0. -1.
         -6    2    1    2    0  503  0.42213128716E+02  0.55701843872E+02 -0.40867540771E+03  0.44856799982E+03  0.17121044930E+03 0.  0.
        -24    2    3    3    0    0  0.42773165029E+02  0.70647813237E+02 -0.14497633685E+03  0.18440330571E+03  0.78522504729E+02 0.  0.
          6    2    1    2  501    0 -0.42213128716E+02 -0.55701843872E+02  0.26816714855E+03  0.32601913812E+03  0.17172715339E+03 0.  0.
         24    2    5    5    0    0  0.21723212000E+02 -0.52053772715E+02  0.23360562841E+03  0.25309621469E+03  0.79401581044E+02 0.  0.
          5    1    5    5  501    0 -0.63936340716E+02 -0.36480711570E+01  0.34561520149E+02  0.72922923435E+02  0.47000000000E+01 0. -1.
        -11    1    6    6    0    0  0.25593737203E+02  0.59966672612E+01  0.24099961142E+02  0.35662410593E+02  0.00000000000E+00 0.  1.
         12    1    6    6    0    0 -0.38705252031E+01 -0.58050439976E+02  0.20950566726E+03  0.21743380409E+03  0.00000000000E+00 0. -1.
         -5    1    3    3    0  503 -0.56003631315E+00 -0.14945969365E+02 -0.26369907086E+03  0.26416469411E+03  0.47000000000E+01 0.  1.
         13    1    4    4    0    0  0.21933283941E+02  0.58661037960E+02 -0.34824554131E+02  0.71658466976E+02  0.00000000000E+00 0. -1.
        -14    1    4    4    0    0  0.20839881088E+02  0.11986775277E+02 -0.11015178272E+03  0.11274483873E+03  0.00000000000E+00 0.  1.
</event>
<event>
12    1  0.8053217E-002  0.3373576E+03  0.7818608E-02  0.1067955E+00
         21   -1    0    0  501  502  0.00000000000E+00  0.00000000000E+00  0.15875433086E+03  0.15875433086E+03  0.00000000000E+00 0.  1.
         21   -1    0    0  502  503 -0.00000000000E+00 -0.00000000000E+00 -0.72051216694E+03  0.72051216694E+03  0.00000000000E+00 0.  1.
         -6    2    1    2    0  503  0.26086311970E+03  0.12708222106E+03 -0.24752333177E+03  0.41842315411E+03  0.17207753484E+03 0.  0.
        -24    2    3    3    0    0  0.14662893389E+03  0.89574934271E+02 -0.21690419970E+03  0.29426250407E+03  0.10009633534E+03 0.  0.
          6    2    1    2  501    0 -0.26086311970E+03 -0.12708222106E+03 -0.31423450432E+03  0.46084334370E+03  0.17156283280E+03 0.  0.
         24    2    5    5    0    0 -0.21864974807E+03 -0.67777439194E+02 -0.29451164556E+03  0.38527809339E+03  0.96439650963E+02 0.  0.
          5    1    5    5  501    0 -0.42213371626E+02 -0.59304781870E+02 -0.19722858753E+02  0.75565250308E+02  0.47000000000E+01 0. -1.
        -13    1    6    6    0    0 -0.17382023186E+03 -0.68993054210E+02 -0.16924132134E+03  0.25222240063E+03  0.00000000000E+00 0.  1.
         14    1    6    6    0    0 -0.44829516218E+02  0.12156150155E+01 -0.12527032423E+03  0.13305569276E+03  0.00000000000E+00 0. -1.
         -5    1    3    3    0  503  0.11423418581E+03  0.37507286793E+02 -0.30619132066E+02  0.12416065004E+03  0.47000000000E+01 0.  1.
         11    1    4    4    0    0  0.16790657312E+02 -0.17707125971E+02 -0.57068463668E+02  0.62066722392E+02  0.00000000000E+00 0. -1.
        -12    1    4    4    0    0  0.12983827658E+03  0.10728206024E+03 -0.15983573603E+03  0.23219578167E+03  0.00000000000E+00 0.  1.
</event>
<event>
12    1  0.8053217E-002  0.1919691E+03  0.7818608E-02  0.1158329E+00
         21   -1    0    0  501  502  0.00000000000E+00  0.00000000000E+00  0.88506032830E+02  0.88506032830E+02  0.00000000000E+00 0.  1.
         21   -1    0    0  502  503 -0.00000000000E+00 -0.00000000000E+00 -0.81107039104E+03  0.81107039104E+03  0.00000000000E+00 0.  1.
         -6    2    1    2    0  503 -0.57510588508E+02  0.33410539004E+02 -0.67769258867E+03  0.70243282650E+03  0.17239750319E+03 0.  0.
        -24    2    3    3    0    0 -0.14831203781E+02  0.35193390639E+02 -0.17502893602E+03  0.19793550626E+03  0.84171235248E+02 0.  0.
          6    2    1    2  501    0  0.57510588508E+02 -0.33410539004E+02 -0.44871769539E+02  0.19714359736E+03  0.18007884488E+03 0.  0.
         24    2    5    5    0    0 -0.21184838058E+01 -0.10933934823E+02  0.40489935358E+02  0.90515577297E+02  0.80184761418E+02 0.  0.
          5    1    5    5  501    0  0.59629072313E+02 -0.22476604181E+02 -0.85361704898E+02  0.10662802007E+03  0.47000000000E+01 0. -1.
        -11    1    6    6    0    0 -0.12070717840E+02  0.30301105433E+02  0.34834684164E+02  0.47721215831E+02  0.00000000000E+00 0.  1.
         12    1    6    6    0    0  0.99522340346E+01 -0.41235040255E+02  0.56552511945E+01  0.42794361465E+02  0.00000000000E+00 0. -1.
         -5    1    3    3    0  503 -0.42679384727E+02 -0.17828516354E+01 -0.50266365264E+03  0.50449732024E+03  0.47000000000E+01 0.  1.
         13    1    4    4    0    0 -0.11361208243E+01 -0.27332053960E+02 -0.66976036742E+02  0.72347228294E+02  0.00000000000E+00 0. -1.
        -14    1    4    4    0    0 -0.13695082956E+02  0.62525444600E+02 -0.10805289928E+03  0.12558827797E+03  0.00000000000E+00 0.  1.
</event>
<event>
12    1  0.8053217E-002  0.2640021E+03  0.7818608E-02  0.1104785E+00
         21   -1    0    0  501  502  0.00000000000E+00  0.00000000000E+00  0.11977820191E+03  0.11977820191E+03  0.00000000000E+00 0. -1.
         21   -1    0    0  502  503 -0.00000000000E+00 -0.00000000000E+00 -0.63221900690E+03  0.63221900690E+03  0.00000000000E+00 0.  1.
         -6    2    1    2    0  503 -0.85051340486E+02  0.18121803394E+03 -0.36259942021E+03  0.44843572403E+03  0.17187947145E+03 0.  0.
        -24    2    3    3    0    0 -0.87425411483E+02  0.55468938404E+02 -0.12696360890E+03  0.18129382014E+03  0.77638170613E+02 0.  0.
          6    2    1    2  501    0  0.85051340486E+02 -0.18121803394E+03 -0.14984138478E+03  0.30356148479E+03  0.17211457844E+03 0.  0.
         24    2    5    5    0    0  0.10276477774E+02 -0.16010620543E+03 -0.13348366618E+03  0.22402121603E+03  0.81412610085E+02 0.  0.
          5    1    5    5  501    0  0.74774862712E+02 -0.21111828502E+02 -0.16357718599E+02  0.79540268758E+02  0.47000000000E+01 0. -1.
        -13    1    6    6    0    0  0.35059271655E+02 -0.14810841464E+03 -0.10938984537E+03  0.18743370371E+03  0.00000000000E+00 0.  1.
         14    1    6    6    0    0 -0.24782793881E+02 -0.11997790790E+02 -0.24093820807E+02  0.36587512316E+02  0.00000000000E+00 0. -1.
         -5    1    3    3    0  503  0.23740709968E+01  0.12574909553E+03 -0.23563581132E+03  0.26714190389E+03  0.47000000000E+01 0.  1.
         13    1    4    4    0    0 -0.10984653216E+02 -0.17648375270E+02 -0.36962764724E+02  0.42407236788E+02  0.00000000000E+00 0. -1.
        -14    1    4    4    0    0 -0.76440758267E+02  0.73117313674E+02 -0.90000844171E+02  0.13888658335E+03  0.00000000000E+00 0.  1.
</event>
<event>
12    1  0.8053217E-002  0.2196183E+03  0.7818608E-02  0.1134435E+00
         21   -1    0    0  501  502  0.00000000000E+00  0.00000000000E+00  0.18081203884E+03  0.18081203884E+03  0.00000000000E+00 0.  1.
         21   -1    0    0  502  503 -0.00000000000E+00 -0.00000000000E+00 -0.36248359752E+03  0.36248359752E+03  0.00000000000E+00 0. -1.
         -6    2    1    2    0  503 -0.78650737431E+02 -0.10887120507E+03 -0.23147300402E+03  0.31810153300E+03  0.17195916934E+03 0.  0.
        -24    2    3    3    0    0 -0.11624723707E+03 -0.76161770876E+02 -0.13416776998E+03  0.20867666178E+03  0.78936197043E+02 0.  0.
          6    2    1    2  501    0  0.78650737431E+02  0.10887120507E+03  0.49801445332E+02  0.22519410336E+03  0.17376225838E+03 0.  0.
         24    2    5    5    0    0  0.10089814896E+03  0.12498296702E+03  0.67658240939E+02  0.19209589582E+03  0.80759006411E+02 0.  0.
          5    1    5    5  501    0 -0.22247411529E+02 -0.16111761948E+02 -0.17856795607E+02  0.33098207537E+02  0.47000000000E+01 0. -1.
        -13    1    6    6    0    0  0.27768400548E+02 -0.60242757359E+01  0.19721765048E+02  0.34587916730E+02  0.00000000000E+00 0.  1.
         14    1    6    6    0    0  0.73129748412E+02  0.13100724275E+03  0.47936475891E+02  0.15750797909E+03  0.00000000000E+00 0. -1.
         -5    1    3    3    0  503  0.37596499635E+02 -0.32709434192E+02 -0.97305234040E+02  0.10942487122E+03  0.47000000000E+01 0.  1.
         11    1    4    4    0    0 -0.42892898405E+02 -0.26543214011E+02 -0.10318370736E+03  0.11485303831E+03  0.00000000000E+00 0. -1.
        -12    1    4    4    0    0 -0.73354338661E+02 -0.49618556864E+02 -0.30984062614E+02  0.93823623474E+02  0.00000000000E+00 0.  1.
</event>
<event>
12    1  0.8053217E-002  0.1768405E+03  0.7818608E-02  0.1175209E+00
         21   -1    0    0  503  502  0.00000000000E+00  0.00000000000E+00  0.89315146593E+03  0.89315146593E+03  0.00000000000E+00 0.  1.
         21   -1    0    0  501  503 -0.00000000000E+00 -0.00000000000E+00 -0.69217537615E+02  0.69217537615E+02  0.00000000000E+00 0.  1.
          6    2    1    2  501    0 -0.25198912715E+02  0.36338564916E+02  0.67743385072E+02  0.18937195761E+03  0.17122235720E+03 0.  0.
         24    2    3    3    0    0 -0.54525903473E+02  0.64197297983E+01  0.91517915811E+02  0.14097229445E+03  0.92105221394E+02 0.  0.
         -6    2    1    2    0  502  0.25198912715E+02 -0.36338564916E+02  0.75619054325E+03  0.77299704594E+03  0.15409353926E+03 0.  0.
        -24    2    5    5    0    0  0.90591098972E+01  0.42431780010E+01  0.21148871622E+03  0.22652697224E+03  0.80541418103E+02 0.  0.
          5    1    3    3  501    0  0.29326990757E+02  0.29918835118E+02 -0.23774530739E+02  0.48399663155E+02  0.47000000000E+01 0. -1.
        -11    1    4    4    0    0 -0.10992404367E+02 -0.19620739103E+01 -0.18919448098E+02  0.21968800699E+02  0.00000000000E+00 0.  1.
         12    1    4    4    0    0 -0.43533499105E+02  0.83818037086E+01  0.11043736391E+03  0.11900349375E+03  0.00000000000E+00 0. -1.
         -5    1    5    5    0  502  0.16139802818E+02 -0.40581742917E+02  0.54470182702E+03  0.54647007371E+03  0.47000000000E+01 0.  1.
         13    1    6    6    0    0 -0.27878445094E+02  0.17680262460E+02  0.14969402381E+03  0.15329090041E+03  0.00000000000E+00 0. -1.
        -14    1    6    6    0    0  0.36937554992E+02 -0.13437084459E+02  0.61794692410E+02  0.73236071833E+02  0.00000000000E+00 0.  1.
</event>
<event>
12    1  0.8053217E-002  0.1896504E+03  0.7818608E-02  0.1158800E+00
         21   -1    0    0  501  502  0.00000000000E+00  0.00000000000E+00  0.48902840119E+03  0.48902840119E+03  0.00000000000E+00 0.  1.
         21   -1    0    0  502  503 -0.00000000000E+00 -0.00000000000E+00 -0.74119019492E+02  0.74119019492E+02  0.00000000000E+00 0. -1.
         -6    2    1    2    0  503 -0.77419128817E+02 -0.16348230323E+02  0.18196631982E+03  0.26282885532E+03  0.17235509711E+03 0.  0.
        -24    2    3    3    0    0 -0.77608156109E+02 -0.46270116537E+02  0.19678805651E+03  0.22910751364E+03  0.74838252552E+02 0.  0.
          6    2    1    2  501    0  0.77419128817E+02  0.16348230323E+02  0.23294306188E+03  0.30031856537E+03  0.17224338734E+03 0.  0.
         24    2    5    5    0    0  0.12857140241E+02  0.62359012951E+02  0.91318259144E+02  0.13794579290E+03  0.81462044997E+02 0.  0.
          5    1    5    5  501    0  0.64561988576E+02 -0.46010782628E+02  0.14162480274E+03  0.16237277246E+03  0.47000000000E+01 0. -1.
        -13    1    6    6    0    0  0.45545216435E+02  0.33208540180E+02  0.34062460465E+02  0.65859130680E+02  0.00000000000E+00 0.  1.
         14    1    6    6    0    0 -0.32688076195E+02  0.29150472771E+02  0.57255798678E+02  0.72086662222E+02  0.00000000000E+00 0. -1.
         -5    1    3    3    0  503  0.18902729193E+00  0.29921886214E+02 -0.14821736689E+02  0.33721341676E+02  0.47000000000E+01 0.  1.
         11    1    4    4    0    0 -0.65693988762E+02 -0.39244359620E+02  0.77120989832E+02  0.10864376187E+03  0.00000000000E+00 0. -1.
        -12    1    4    4    0    0 -0.11914167347E+02 -0.70257569173E+01  0.11966706668E+03  0.12046375177E+03  0.00000000000E+00 0.  1.
</event>
<event>
12    1  0.8053217E-002  0.2051298E+03  0.7818608E-02  0.1145889E+00
         21   -1    0    0  503  502  0.00000000000E+00  0.00000000000E+00  0.27353512808E+03  0.27353512808E+03  0.00000000000E+00 0.  1.
         21   -1    0    0  501  503 -0.00000000000E+00 -0.00000000000E+00 -0.16704660973E+03  0.16704660973E+03  0.00000000000E+00 0. -1.
          6    2    1    2  501    0  0.11732933906E+02 -0.11037448960E+03  0.11882599621E+03  0.23706084893E+03  0.17250518551E+03 0.  0.
         24    2    3    3    0    0 -0.11660788166E+02 -0.96409996295E+01  0.10430861051E+03  0.13252689884E+03  0.80337848091E+02 0.  0.
         -6    2    1    2    0  502 -0.11732933906E+02  0.11037448960E+03 -0.12337477856E+02  0.20352088887E+03  0.17014214397E+03 0.  0.
        -24    2    5    5    0    0  0.35180566668E+02  0.25963326190E+02  0.13077971549E+02  0.10355011258E+03  0.92950663781E+02 0.  0.
          5    1    3    3  501    0  0.23393722072E+02 -0.10073348997E+03  0.14517385702E+02  0.10453395009E+03  0.47000000000E+01 0. -1.
        -13    1    4    4    0    0  0.15743053216E+02 -0.38645652184E+02  0.49758926014E+02  0.64940594973E+02  0.00000000000E+00 0.  1.
         14    1    4    4    0    0 -0.27403841382E+02  0.29004652554E+02  0.54549684494E+02  0.67586303869E+02  0.00000000000E+00 0. -1.
         -5    1    5    5    0  502 -0.46913500575E+02  0.84411163411E+02 -0.25415449405E+02  0.99970776295E+02  0.47000000000E+01 0.  1.
         11    1    6    6    0    0  0.29769905132E+02 -0.16911137961E+01 -0.36129815554E+02  0.46845177867E+02  0.00000000000E+00 0. -1.
        -12    1    6    6    0    0  0.54106615362E+01  0.27654439986E+02  0.49207787103E+02  0.56704934713E+02  0.00000000000E+00 0.  1.
</event>
<event>
12    1  0.8053217E-002  0.2047231E+03  0.7818608E-02  0.1146033E+00
         21   -1    0    0  503  502  0.00000000000E+00  0.00000000000E+00  0.83836363387E+03  0.83836363387E+03  0.00000000000E+00 0.  1.
         21   -1    0    0  501  503 -0.00000000000E+00 -0.00000000000E+00 -0.19349296405E+03  0.19349296405E+03  0.00000000000E+00 0.  1.
          6    2    1    2  501    0  0.10882981732E+03  0.11204856105E+02 -0.12205779705E+03  0.23834775715E+03  0.17303776923E+03 0.  0.
         24    2    3    3    0    0  0.74457372210E+02 -0.44802157252E+02 -0.12615136398E+03  0.17233944087E+03  0.78965705694E+02 0.  0.
         -6    2    1    2    0  502 -0.10882981732E+03 -0.11204856105E+02  0.76692846687E+03  0.79350884077E+03  0.17177755714E+03 0.  0.
        -24    2    5    5    0    0 -0.10808161394E+02 -0.39373311291E+02  0.48478198033E+03  0.49345811711E+03  0.82584931411E+02 0.  0.
          5    1    3    3  501    0  0.34372445107E+02  0.56007013357E+02  0.40935669322E+01  0.66008316279E+02  0.47000000000E+01 0. -1.
        -11    1    4    4    0    0  0.84383959680E+02 -0.15551657854E+02 -0.10083283140E+03  0.13240002493E+03  0.00000000000E+00 0.  1.
         12    1    4    4    0    0 -0.99265874706E+01 -0.29250499398E+02 -0.25318532577E+02  0.39939415941E+02  0.00000000000E+00 0. -1.
         -5    1    5    5    0  502 -0.98021655923E+02  0.28168455187E+02  0.28214648654E+03  0.30005072366E+03  0.47000000000E+01 0.  1.
         13    1    6    6    0    0  0.16514485986E-01 -0.77619073750E+01  0.24021029691E+00  0.77656409789E+01  0.00000000000E+00 0. -1.
        -14    1    6    6    0    0 -0.10824675880E+02 -0.31611403916E+02  0.48454177003E+03  0.48569247613E+03  0.00000000000E+00 0.  1.
</event>
<event>
12    1  0.8053217E-002  0.2078257E+03  0.7818608E-02  0.1143870E+00
         21   -1    0    0  501  502  0.00000000000E+00  0.00000000000E+00  0.37465309966E+03  0.37465309966E+03  0.00000000000E+00 0. -1.
         21   -1    0    0  502  503 -0.00000000000E+00 -0.00000000000E+00 -0.11763188849E+03  0.11763188849E+03  0.00000000000E+00 0.  1.
         -6    2    1    2    0  503  0.30879333003E+02  0.11187062548E+03  0.84492951793E+02  0.22434473635E+03  0.17240339838E+03 0.  0.
        -24    2    3    3    0    0  0.61476483821E+02  0.13318594971E+03  0.49225820438E+02  0.17280456523E+03  0.76944012785E+02 0.  0.
          6    2    1    2  501    0 -0.30879333003E+02 -0.11187062548E+03  0.17252825938E+03  0.26794025180E+03  0.16898937303E+03 0.  0.
         24    2    5    5    0    0  0.35142206043E+02 -0.64308356570E+02  0.45226502720E+02  0.11678192324E+03  0.78879919359E+02 0.  0.
          5    1    5    5  501    0 -0.66021539046E+02 -0.47562268913E+02  0.12730175666E+03  0.15115832855E+03  0.47000000000E+01 0. -1.
        -13    1    6    6    0    0 -0.17900782141E+02 -0.19901656505E+02 -0.96786169859E+01  0.28463828971E+02  0.00000000000E+00 0.  1.
         14    1    6    6    0    0  0.53042988185E+02 -0.44406700065E+02  0.54905119706E+02  0.88318094274E+02  0.00000000000E+00 0. -1.
         -5    1    3    3    0  503 -0.30597150819E+02 -0.21315324227E+02  0.35267131355E+02  0.51540171121E+02  0.47000000000E+01 0.  1.
         11    1    4    4    0    0  0.58464088519E+01  0.47823199410E+02  0.51984510817E+02  0.70877558247E+02  0.00000000000E+00 0. -1.
        -12    1    4    4    0    0  0.55630074969E+02  0.85362750301E+02 -0.27586903783E+01  0.10192700698E+03  0.00000000000E+00 0.  1.
</event>
<event>
12    1  0.8053217E-002  0.1925695E+03  0.7818608E-02  0.1156624E+00
         21   -1    0    0  501  502  0.00000000000E+00  0.00000000000E+00  0.60553408260E+02  0.60553408260E+02  0.00000000000E+00 0.  1.
         21   -1    0    0  502  503 -0.00000000000E+00 -0.00000000000E+00 -0.60593162228E+03  0.60593162228E+03  0.00000000000E+00 0. -1.
         -6    2    1    2    0  503 -0.42348859699E+02 -0.68455475567E+02 -0.26763226146E+03  0.32851191303E+03  0.17266577999E+03 0.  0.
        -24    2    3    3    0    0  0.28235084870E+02 -0.55057317057E+02 -0.91142289061E+02  0.13790130410E+03  0.82953749991E+02 0.  0.
          6    2    1    2  501    0  0.42348859699E+02  0.68455475567E+02 -0.27774595256E+03  0.33797311750E+03  0.17493837755E+03 0.  0.
         24    2    5    5    0    0  0.70260374698E+02  0.88853199326E+02 -0.14188249882E+03  0.19770163834E+03  0.78255242941E+02 0.  0.
          5    1    5    5  501    0 -0.27911514999E+02 -0.20397723759E+02 -0.13586345375E+03  0.14027147917E+03  0.47000000000E+01 0. -1.
        -11    1    6    6    0    0  0.44444712173E+01  0.55429774151E+02 -0.28705045701E+02  0.62579492132E+02  0.00000000000E+00 0.  1.
         12    1    6    6    0    0  0.65815903480E+02  0.33423425175E+02 -0.11317745311E+03  0.13512214620E+03  0.00000000000E+00 0. -1.
         -5    1    3    3    0  503 -0.70583944569E+02 -0.13398158510E+02 -0.17648997239E+03  0.19061060893E+03  0.47000000000E+01 0.  1.
         11    1    4    4    0    0  0.28808938365E+02 -0.63170111571E+02 -0.10257976395E+03  0.12386696855E+03  0.00000000000E+00 0. -1.
        -12    1    4    4    0    0 -0.57385349568E+00  0.81127945147E+01  0.11437474884E+02  0.14034335552E+02  0.00000000000E+00 0.  1.
</event>
<event>
12    1  0.8053217E-002  0.2051070E+03  0.7818608E-02  0.1145654E+00
         21   -1    0    0  501  502  0.00000000000E+00  0.00000000000E+00  0.28323006855E+03  0.28323006855E+03  0.00000000000E+00 0.  1.
         21   -1    0    0  502  503 -0.00000000000E+00 -0.00000000000E+00 -0.16011424646E+03  0.16011424646E+03  0.00000000000E+00 0.  1.
         -6    2    1    2    0  503  0.41775021846E+02  0.10233875373E+03  0.66179197617E+00  0.20510802944E+03  0.17277295161E+03 0.  0.
        -24    2    3    3    0    0  0.47355718887E+02  0.39876781312E+02  0.61323539014E+02  0.11773194729E+03  0.79167627074E+02 0.  0.
          6    2    1    2  501    0 -0.41775021846E+02 -0.10233875373E+03  0.12245403011E+03  0.23823628557E+03  0.17188125351E+03 0.  0.
         24    2    5    5    0    0  0.67588091493E+01 -0.20387503046E+02 -0.43662256849E+00  0.82686477616E+02  0.79846923296E+02 0.  0.
          5    1    5    5  501    0 -0.48533830995E+02 -0.81951250685E+02  0.12289065268E+03  0.15554980796E+03  0.47000000000E+01 0. -1.
        -13    1    6    6    0    0 -0.22047504326E+02 -0.45715817609E+01  0.30259401801E+02  0.37717677608E+02  0.00000000000E+00 0.  1.
         14    1    6    6    0    0  0.28806313475E+02 -0.15815921285E+02 -0.30696024369E+02  0.44968800008E+02  0.00000000000E+00 0. -1.
         -5    1    3    3    0  503 -0.55806970409E+01  0.62461972419E+02 -0.60661747038E+02  0.87376082149E+02  0.47000000000E+01 0.  1.
         13    1    4    4    0    0  0.60380496352E+02  0.53144356607E+02  0.41345532428E+02  0.90441030681E+02  0.00000000000E+00 0. -1.
        -14    1    4    4    0    0 -0.13024777466E+02 -0.13267575295E+02  0.19978006587E+02  0.27290916610E+02  0.00000000000E+00 0.  1.
</event>
<event>
12    1  0.8053217E-002  0.2058234E+03  0.7818608E-02  0.1144939E+00
         21   -1    0    0  503  502  0.00000000000E+00  0.00000000000E+00  0.46688463450E+03  0.46688463450E+03  0.00000000000E+00 0.  1.
         21   -1    0    0  501  503 -0.00000000000E+00 -0.00000000000E+00 -0.10000729513E+03  0.10000729513E+03  0.00000000000E+00 0.  1.
          6    2    1    2  501    0 -0.10115293395E+03 -0.45612308227E+02  0.96958456624E+02  0.22751754772E+03  0.17335193539E+03 0.  0.
         24    2    3    3    0    0 -0.62587353654E+02  0.31481124576E+02  0.97591284829E+02  0.14118567738E+03  0.74169391133E+02 0.  0.
         -6    2    1    2    0  502  0.10115293395E+03  0.45612308227E+02  0.26991888274E+03  0.33937438191E+03  0.17322346587E+03 0.  0.
        -24    2    5    5    0    0 -0.92109370070E+01 -0.20703014901E+02  0.95152634271E+02  0.12224944622E+03  0.73331078714E+02 0.  0.
          5    1    3    3  501    0 -0.38565580301E+02 -0.77093432803E+02 -0.63282820462E+00  0.86331870343E+02  0.47000000000E+01 0. -1.
        -11    1    4    4    0    0 -0.31881025810E+02 -0.18617622716E+02  0.15058009885E+02  0.39871786316E+02  0.00000000000E+00 0.  1.
         12    1    4    4    0    0 -0.30706327844E+02  0.50098747292E+02  0.82533274944E+02  0.10131389107E+03  0.00000000000E+00 0. -1.
         -5    1    5    5    0  502  0.11036387096E+03  0.66315323129E+02  0.17476624847E+03  0.21712493569E+03  0.47000000000E+01 0.  1.
         11    1    6    6    0    0 -0.25201296876E+02  0.91190110853E+01  0.68161907174E+01  0.27653610673E+02  0.00000000000E+00 0. -1.
        -12    1    6    6    0    0  0.15990359869E+02 -0.29822025987E+02  0.88336443554E+02  0.94595835545E+02  0.00000000000E+00 0.  1.
</event>
<event>
12    1  0.8053217E-002  0.2085051E+03  0.7818608E-02  0.1143826E+00
         21   -1    0    0  503  502  0.00000000000E+00  0.00000000000E+00  0.51604895618E+02  0.51604895618E+02  0.00000000000E+00 0. -1.
         21   -1    0    0  501  503 -0.00000000000E+00 -0.00000000000E+00 -0.84106791249E+03  0.84106791249E+03  0.00000000000E+00 0.  1.
          6    2    1    2  501    0  0.88838871559E+02  0.61153550320E+02 -0.46823992823E+03  0.51256513189E+03  0.17844405908E+03 0.  0.
         24    2    3    3    0    0  0.11739106904E+03  0.30120265446E+01 -0.29248147362E+03  0.32519173694E+03  0.80090685901E+02 0.  0.
         -6    2    1    2    0  502 -0.88838871559E+02 -0.61153550320E+02 -0.32122308864E+03  0.38010767622E+03  0.17223667155E+03 0.  0.
        -24    2    5    5    0    0 -0.11009982786E+03 -0.56989964913E+02 -0.32639716507E+03  0.35734312541E+03  0.76086606683E+02 0.  0.
          5    1    3    3  501    0 -0.28552197481E+02  0.58141523776E+02 -0.17575845462E+03  0.18737339496E+03  0.47000000000E+01 0. -1.
        -13    1    4    4    0    0  0.29087081010E+02  0.99900107244E+01 -0.17699182256E+03  0.17964399196E+03  0.00000000000E+00 0.  1.
         14    1    4    4    0    0  0.88303988030E+02 -0.69779841798E+01 -0.11548965106E+03  0.14554774498E+03  0.00000000000E+00 0. -1.
         -5    1    5    5    0  502  0.21260956305E+02 -0.41635854078E+01  0.51740764326E+01  0.22764550805E+02  0.47000000000E+01 0.  1.
         11    1    6    6    0    0 -0.10053372819E+03 -0.40898604813E+02 -0.18326878408E+03  0.21299571263E+03  0.00000000000E+00 0. -1.
        -12    1    6    6    0    0 -0.95660996746E+01 -0.16091360099E+02 -0.14312838099E+03  0.14434741278E+03  0.00000000000E+00 0.  1.
</event>
<event>
12    1  0.8053217E-002  0.2345421E+03  0.7818608E-02  0.1123961E+00
         21   -1    0    0  503  502  0.00000000000E+00  0.00000000000E+00  0.58675042702E+02  0.58675042702E+02  0.00000000000E+00 0. -1.
         21   -1    0    0  501  503 -0.00000000000E+00 -0.00000000000E+00 -0.14269753939E+04  0.14269753939E+04  0.00000000000E+00 0.  1.
          6    2    1    2  501    0 -0.24064665636E+02 -0.15461419478E+03 -0.11214234186E+04  0.11451240701E+04  0.17097951583E+03 0.  0.
         24    2    3    3    0    0  0.16348148438E+02 -0.40083436864E+02 -0.71819766143E+03  0.72397849993E+03  0.80393056960E+02 0.  0.
         -6    2    1    2    0  502  0.24064665636E+02  0.15461419478E+03 -0.24687693255E+03  0.34052636643E+03  0.17471499378E+03 0.  0.
        -24    2    5    5    0    0  0.75560935300E+01  0.14760157584E+03 -0.11486310020E+03  0.20721675796E+03  0.88892818918E+02 0.  0.
          5    1    3    3  501    0 -0.40412814075E+02 -0.11453075791E+03 -0.40322575718E+03  0.42114557020E+03  0.47000000000E+01 0. -1.
        -11    1    4    4    0    0 -0.54319726937E+01 -0.60511368565E+02 -0.43783597804E+03  0.44203108004E+03  0.00000000000E+00 0.  1.
         12    1    4    4    0    0  0.21780121132E+02  0.20427931700E+02 -0.28036168339E+03  0.28194741989E+03  0.00000000000E+00 0. -1.
         -5    1    5    5    0  502  0.16508572106E+02  0.70126189418E+01 -0.13201383235E+03  0.13330960847E+03  0.47000000000E+01 0.  1.
         13    1    6    6    0    0 -0.31364372060E+02  0.34495428892E+02 -0.59006340245E+02  0.75202437715E+02  0.00000000000E+00 0. -1.
        -14    1    6    6    0    0  0.38920465590E+02  0.11310614694E+03 -0.55856759954E+02  0.13201432025E+03  0.00000000000E+00 0.  1.
</event>
<event>
12    1  0.8053217E-002  0.1921979E+03  0.7818608E-02  0.1156830E+00
         21   -1    0    0  503  502  0.00000000000E+00  0.00000000000E+00  0.26134190138E+03  0.26134190138E+03  0.00000000000E+00 0.  1.
         21   -1    0    0  501  503 -0.00000000000E+00 -0.00000000000E+00 -0.15409903418E+03  0.15409903418E+03  0.00000000000E+00 0.  1.
          6    2    1    2  501    0 -0.81000698278E+02 -0.27563932797E+02 -0.88588999488E+01  0.19089771286E+03  0.17041881690E+03 0.  0.
         24    2    3    3    0    0 -0.10926863860E+03 -0.13440781883E+02  0.32422653659E+02  0.13869812944E+03  0.77882299916E+02 0.  0.
         -6    2    1    2    0  502  0.81000698278E+02  0.27563932797E+02  0.11610176714E+03  0.22454322270E+03  0.17210216446E+03 0.  0.
        -24    2    5    5    0    0  0.61791559351E+02 -0.40698081025E+02  0.10740376710E+03  0.15294406939E+03  0.79886097464E+02 0.  0.
          5    1    3    3  501    0  0.28267940319E+02 -0.14123150913E+02 -0.41281553608E+02  0.52199583426E+02  0.47000000000E+01 0. -1.
        -13    1    4    4    0    0 -0.83933379058E+02  0.12436522938E+02  0.49954531921E+02  0.98462858390E+02  0.00000000000E+00 0.  1.
         14    1    4    4    0    0 -0.25335259539E+02 -0.25877304821E+02 -0.17531878262E+02  0.40235271046E+02  0.00000000000E+00 0. -1.
         -5    1    5    5    0  502  0.19209138927E+02  0.68262013822E+02  0.86980000367E+01  0.71599153305E+02  0.47000000000E+01 0.  1.
         11    1    6    6    0    0  0.37076555275E+02 -0.57693787759E+02  0.40554077026E+02  0.79673566887E+02  0.00000000000E+00 0. -1.
        -12    1    6    6    0    0  0.24715004076E+02  0.16995706734E+02  0.66849690079E+02  0.73270502506E+02  0.00000000000E+00 0.  1.
</event>
<event>
12    1  0.8053217E-002  0.1891573E+03  0.7818608E-02  0.1159397E+00
         21   -1    0    0  501  502  0.00000000000E+00  0.00000000000E+00  0.53750626484E+03  0.53750626484E+03  0.00000000000E+00 0. -1.
         21   -1    0    0  502  503 -0.00000000000E+00 -0.00000000000E+00 -0.87620824990E+02  0.87620824990E+02  0.00000000000E+00 0. -1.
         -6    2    1    2    0  503 -0.75597537626E+02 -0.15167435208E+01  0.37947104890E+03  0.42400325159E+03  0.17338740496E+03 0.  0.
        -24    2    3    3    0    0 -0.11195684944E+03  0.25544272447E+02  0.31270093910E+03  0.34316615798E+03  0.82427475240E+02 0.  0.
          6    2    1    2  501    0  0.75597537626E+02  0.15167435208E+01  0.70414390956E+02  0.20112383824E+03  0.17255527709E+03 0.  0.
         24    2    5    5    0    0 -0.89987412620E+01  0.44101035795E+02  0.19601976906E+02  0.93541573108E+02  0.79623549899E+02 0.  0.
          5    1    5    5  501    0  0.84596278888E+02 -0.42584292274E+02  0.50812414050E+02  0.10758226514E+03  0.47000000000E+01 0. -1.
        -11    1    6    6    0    0  0.21996351139E+02  0.53384791886E+02  0.20228856605E+02  0.61179915885E+02  0.00000000000E+00 0.  1.
         12    1    6    6    0    0 -0.30995092401E+02 -0.92837560906E+01 -0.62687969903E+00  0.32361657224E+02  0.00000000000E+00 0. -1.
         -5    1    3    3    0  503  0.36359311818E+02 -0.27061015968E+02  0.66770109796E+02  0.80837093609E+02  0.47000000000E+01 0.  1.
         13    1    4    4    0    0 -0.95778117702E+02  0.52381136990E+02  0.25762198682E+03  0.27979692535E+03  0.00000000000E+00 0. -1.
        -14    1    4    4    0    0 -0.16178731742E+02 -0.26836864544E+02  0.55078952281E+02  0.63369232627E+02  0.00000000000E+00 0.  1.
</event>
<event>
12    1  0.8053217E-002  0.1936337E+03  0.7818608E-02  0.1155578E+00
         21   -1    0    0  501  502  0.00000000000E+00  0.00000000000E+00  0.31255935557E+03  0.31255935557E+03  0.00000000000E+00 0. -1.
         21   -1    0    0  502  503 -0.00000000000E+00 -0.00000000000E+00 -0.12574874584E+03  0.12574874584E+03  0.00000000000E+00 0.  1.
         -6    2    1    2    0  503  0.81490822898E+02 -0.34006642266E+02  0.42152285928E+02  0.19660575816E+03  0.17052801236E+03 0.  0.
        -24    2    3    3    0    0  0.80069334602E+02 -0.28234386097E+02 -0.32760958963E+02  0.12131018173E+03  0.80215963854E+02 0.  0.
          6    2    1    2  501    0 -0.81490822898E+02  0.34006642266E+02  0.14465832380E+03  0.24170234325E+03  0.17232755483E+03 0.  0.
         24    2    5    5    0    0  0.25574338021E+02  0.22642232966E+02  0.62828447620E+02  0.10638672288E+03  0.78765496862E+02 0.  0.
          5    1    5    5  501    0 -0.10706516092E+03  0.11364409300E+02  0.81829876177E+02  0.13531562037E+03  0.47000000000E+01 0. -1.
        -13    1    6    6    0    0  0.34680167472E+02  0.45047837728E+02  0.58941825175E+02  0.81891150039E+02  0.00000000000E+00 0.  1.
         14    1    6    6    0    0 -0.91058294516E+01 -0.22405604762E+02  0.38866224460E+01  0.24495572841E+02  0.00000000000E+00 0. -1.
         -5    1    3    3    0  503  0.14214882961E+01 -0.57722561689E+01  0.74913244890E+02  0.75295576432E+02  0.47000000000E+01 0.  1.
         11    1    4    4    0    0  0.12457110034E+02  0.13623905449E+02  0.18949414994E+02  0.26455069811E+02  0.00000000000E+00 0. -1.
        -12    1    4    4    0    0  0.67612224568E+02 -0.41858291546E+02 -0.51710373957E+02  0.94855111918E+02  0.00000000000E+00 0.  1.
</event>
<event>
12    1  0.8053217E-002  0.1748119E+03  0.7818608E-02  0.1173004E+00
         21   -1    0    0  501  502  0.00000000000E+00  0.00000000000E+00  0.70440063275E+02  0.70440063275E+02  0.00000000000E+00 0.  1.
         21   -1    0    0  502  503 -0.00000000000E+00 -0.00000000000E+00 -0.57071560657E+03  0.57071560657E+03  0.00000000000E+00 0.  1.
         -6    2    1    2    0  503 -0.14010876311E+02 -0.25153794586E+02 -0.40742892635E+03  0.44321702916E+03  0.17208714906E+03 0.  0.
        -24    2    3    3    0    0 -0.37088205708E+02  0.40313550564E+02 -0.30294600444E+03  0.31768891524E+03  0.78417140342E+02 0.  0.
          6    2    1    2  501    0  0.14010876311E+02  0.25153794586E+02 -0.92846616945E+02  0.19793864069E+03  0.17242445639E+03 0.  0.
         24    2    5    5    0    0 -0.59559893773E+02  0.19465639015E+02 -0.42192580437E+02  0.10831199990E+03  0.77620766739E+02 0.  0.
          5    1    5    5  501    0  0.73570770084E+02  0.56881555711E+01 -0.50654036508E+02  0.89626640789E+02  0.47000000000E+01 0. -1.
        -13    1    6    6    0    0 -0.25439525868E+02  0.43883035753E+02 -0.28643943330E+01  0.50804478722E+02  0.00000000000E+00 0.  1.
         14    1    6    6    0    0 -0.34120367905E+02 -0.24417396739E+02 -0.39328186104E+02  0.57507521175E+02  0.00000000000E+00 0. -1.
         -5    1    3    3    0  503  0.23077329397E+02 -0.65467345150E+02 -0.10448292191E+03  0.12552811392E+03  0.47000000000E+01 0.  1.
         13    1    4    4    0    0  0.26833293535E+01  0.25668069853E+02 -0.23051532729E+02  0.34603803657E+02  0.00000000000E+00 0. -1.
        -14    1    4    4    0    0 -0.39771535062E+02  0.14645480712E+02 -0.27989447171E+03  0.28308511158E+03  0.00000000000E+00 0.  1.
</event>
<event>
12    1  0.8053217E-002  0.1840038E+03  0.7818608E-02  0.1164094E+00
         21   -1    0    0  503  502  0.00000000000E+00  0.00000000000E+00  0.56897582359E+02  0.56897582359E+02  0.00000000000E+00 0. -1.
         21   -1    0    0  501  503 -0.00000000000E+00 -0.00000000000E+00 -0.61996192685E+03  0.61996192685E+03  0.00000000000E+00 0. -1.
          6    2    1    2  501    0  0.67709985194E+02 -0.18136777494E+01 -0.35175056475E+03  0.39697087184E+03  0.17108325975E+03 0.  0.
         24    2    3    3    0    0 -0.29506247451E+01  0.17322397120E+02 -0.73884847857E+02  0.10958514189E+03  0.79001018670E+02 0.  0.
         -6    2    1    2    0  502 -0.67709985194E+02  0.18136777494E+01 -0.21131377975E+03  0.27988863737E+03  0.17057609533E+03 0.  0.
        -24    2    5    5    0    0 -0.48503912876E+02  0.59257382708E+01 -0.29094096735E+02  0.96553193084E+02  0.78027614930E+02 0.  0.
          5    1    3    3  501    0  0.70660609939E+02 -0.19136074870E+02 -0.27786571689E+03  0.28738572996E+03  0.47000000000E+01 0. -1.
        -11    1    4    4    0    0 -0.26581269799E+02 -0.87081540534E+01 -0.23257096081E+00  0.27972306669E+02  0.00000000000E+00 0.  1.
         12    1    4    4    0    0  0.23630645054E+02  0.26030551174E+02 -0.73652276896E+02  0.81612835216E+02  0.00000000000E+00 0. -1.
         -5    1    5    5    0  502 -0.19206072318E+02 -0.41120605214E+01 -0.18221968301E+03  0.18333544429E+03  0.47000000000E+01 0.  1.
         13    1    6    6    0    0 -0.51692757421E+02  0.34595412754E+02 -0.26431563136E+02  0.67584105255E+02  0.00000000000E+00 0. -1.
        -14    1    6    6    0    0  0.31888445449E+01 -0.28669674483E+02 -0.26625335994E+01  0.28969087829E+02  0.00000000000E+00 0.  1.
</event>
<event>
12    1  0.8053217E-002  0.2149067E+03  0.7818608E-02  0.1138254E+00
         21   -1    0    0  501  502  0.00000000000E+00  0.00000000000E+00  0.44449899736E+02  0.44449899736E+02  0.00000000000E+00 0.  1.
         21   -1    0    0  502  503 -0.00000000000E+00 -0.00000000000E+00 -0.15258157771E+04  0.15258157771E+04  0.00000000000E+00 0. -1.
         -6    2    1    2    0  503  0.11277373783E+03  0.50241996411E+02 -0.11930693161E+04  0.12122703077E+04  0.17590546220E+03 0.  0.
        -24    2    3    3    0    0  0.95331255706E+02 -0.33192164817E+02 -0.79618294535E+03  0.80630678622E+03  0.77676141228E+02 0.  0.
          6    2    1    2  501    0 -0.11277373783E+03 -0.50241996411E+02 -0.28829656119E+03  0.35799536912E+03  0.17263720042E+03 0.  0.
         24    2    5    5    0    0 -0.16466777700E+02 -0.74136382167E+02 -0.98434957523E+02  0.14371636691E+03  0.72094350167E+02 0.  0.
          5    1    5    5  501    0 -0.96306960134E+02  0.23894385756E+02 -0.18986160367E+03  0.21427900221E+03  0.47000000000E+01 0. -1.
        -11    1    6    6    0    0 -0.24733819165E+02 -0.77335538533E+02 -0.10496712894E+03  0.13270510724E+03  0.00000000000E+00 0.  1.
         12    1    6    6    0    0  0.82670414651E+01  0.31991563655E+01  0.65321714150E+01  0.11011259666E+02  0.00000000000E+00 0. -1.
         -5    1    3    3    0  503  0.17442482128E+02  0.83434161228E+02 -0.39688637079E+03  0.40596352146E+03  0.47000000000E+01 0.  1.
         13    1    4    4    0    0 -0.40120981317E+01 -0.71398368983E+01 -0.27386674147E+03  0.27398917184E+03  0.00000000000E+00 0. -1.
        -14    1    4    4    0    0  0.99343353837E+02 -0.26052327918E+02 -0.52231620388E+03  0.53231761438E+03  0.00000000000E+00 0.  1.
</event>
<event>
12    1  0.8053217E-002  0.2868240E+03  0.7818608E-02  0.1092122E+00
         21   -1    0    0  501  502  0.00000000000E+00  0.00000000000E+00  0.51368769054E+03  0.51368769054E+03  0.00000000000E+00 0. -1.
         21   -1    0    0  502  503 -0.00000000000E+00 -0.00000000000E+00 -0.16263048917E+03  0.16263048917E+03  0.00000000000E+00 0. -1.
         -6    2    1    2    0  503 -0.19038561214E+03 -0.12774790053E+03  0.13052066046E+03  0.31512485675E+03  0.17234217458E+03 0.  0.
        -24    2    3    3    0    0 -0.20107135532E+03 -0.13870107149E+03  0.14363044335E+03  0.29443395370E+03  0.79962314078E+02 0.  0.
          6    2    1    2  501    0  0.19038561214E+03  0.12774790053E+03  0.22053654092E+03  0.36119332296E+03  0.17104982688E+03 0.  0.
         24    2    5    5    0    0  0.27735539793E+02  0.78439323825E+02  0.10085913819E+03  0.15327229830E+03  0.79986523753E+02 0.  0.
          5    1    5    5  501    0  0.16265007235E+03  0.49308576701E+02  0.11967740273E+03  0.20792102466E+03  0.47000000000E+01 0. -1.
        -13    1    6    6    0    0  0.39258460037E+01  0.86099539668E+02  0.58792469117E+02  0.10433167028E+03  0.00000000000E+00 0.  1.
         14    1    6    6    0    0  0.23809693789E+02 -0.76602158438E+01  0.42066669069E+02  0.48940628027E+02  0.00000000000E+00 0. -1.
         -5    1    3    3    0  503  0.10685743176E+02  0.10953170967E+02 -0.13109782899E+02  0.20690903052E+02  0.47000000000E+01 0.  1.
         11    1    4    4    0    0 -0.12531906798E+03 -0.12877380945E+03  0.89067834246E+02  0.20055084616E+03  0.00000000000E+00 0. -1.
        -12    1    4    4    0    0 -0.75752287337E+02 -0.99272620423E+01  0.54562609109E+02  0.93883107539E+02  0.00000000000E+00 0.  1.
</event>
<event>
12    1  0.8053217E-002  0.2770827E+03  0.7818608E-02  0.1098078E+00
         21   -1    0    0  503  502  0.00000000000E+00  0.00000000000E+00  0.13418310586E+03  0.13418310586E+03  0.00000000000E+00 0.  1.
         21   -1    0    0  501  503 -0.00000000000E+00 -0.00000000000E+00 -0.60399203094E+03  0.60399203094E+03  0.00000000000E+00 0. -1.
          6    2    1    2  501    0  0.31593901760E+02 -0.21491069631E+03 -0.33155044197E+03  0.42851366069E+03  0.16282960363E+03 0.  0.
         24    2    3    3    0    0 -0.40329499983E+02 -0.14189833080E+03 -0.22427640956E+03  0.28007650475E+03  0.79883263440E+02 0.  0.
         -6    2    1    2    0  502 -0.31593901760E+02  0.21491069631E+03 -0.13825848311E+03  0.30966147611E+03  0.17201755614E+03 0.  0.
        -24    2    5    5    0    0 -0.77091529678E+02  0.11142398027E+03 -0.42196819170E+02  0.16123820360E+03  0.76542664098E+02 0.  0.
          5    1    3    3  501    0  0.71923401743E+02 -0.73012365505E+02 -0.10727403241E+03  0.14843715594E+03  0.47000000000E+01 0. -1.
        -11    1    4    4    0    0 -0.47529381065E+02 -0.63639035972E+02 -0.65645679457E+02  0.10304525314E+03  0.00000000000E+00 0.  1.
         12    1    4    4    0    0  0.71998810814E+01 -0.78259294828E+02 -0.15863073010E+03  0.17703125161E+03  0.00000000000E+00 0. -1.
         -5    1    5    5    0  502  0.45497627918E+02  0.10348671604E+03 -0.96061663944E+02  0.14842327251E+03  0.47000000000E+01 0.  1.
         11    1    6    6    0    0 -0.68725436767E+02  0.70520079118E+02 -0.60587816787E+02  0.11561639486E+03  0.00000000000E+00 0. -1.
        -12    1    6    6    0    0 -0.83660929108E+01  0.40903901148E+02  0.18390997617E+02  0.45621808744E+02  0.00000000000E+00 0.  1.
</event>
<event>
12    1  0.8053217E-002  0.1860051E+03  0.7818608E-02  0.1162952E+00
         21   -1    0    0  503  502  0.00000000000E+00  0.00000000000E+00  0.17875428828E+02  0.17875428828E+02  0.00000000000E+00 0. -1.
         21   -1    0    0  501  503 -0.00000000000E+00 -0.00000000000E+00 -0.19218749014E+04  0.19218749014E+04  0.00000000000E+00 0. -1.
          6    2    1    2  501    0  0.63037038698E+02 -0.62467098415E+01 -0.10498965178E+04  0.10656280555E+04  0.17107824235E+03 0.  0.
         24    2    3    3    0    0  0.35420625024E+02 -0.22138476632E+02 -0.10113186736E+04  0.10153731590E+04  0.80451598839E+02 0.  0.
         -6    2    1    2    0  502 -0.63037038698E+02  0.62467098415E+01 -0.85410295474E+03  0.87412227467E+03  0.17488626060E+03 0.  0.
        -24    2    5    5    0    0 -0.17573204645E+02 -0.39579922611E+02 -0.23596562588E+03  0.25260567169E+03  0.79085150169E+02 0.  0.
          5    1    3    3  501    0  0.27616413674E+02  0.15891766790E+02 -0.38577844237E+02  0.50254896497E+02  0.47000000000E+01 0. -1.
        -11    1    4    4    0    0  0.22139620346E+02  0.28654487789E+02 -0.51942799373E+03  0.52068866238E+03  0.00000000000E+00 0.  1.
         12    1    4    4    0    0  0.13281004678E+02 -0.50792964421E+02 -0.49189067984E+03  0.49468449666E+03  0.00000000000E+00 0. -1.
         -5    1    5    5    0  502 -0.45463834053E+02  0.45826632452E+02 -0.61813732886E+03  0.62151660298E+03  0.47000000000E+01 0.  1.
         13    1    6    6    0    0 -0.36675806599E+02  0.79516734156E+01 -0.12233852860E+03  0.12796507133E+03  0.00000000000E+00 0. -1.
        -14    1    6    6    0    0  0.19102601955E+02 -0.47531596026E+02 -0.11362709727E+03  0.12464060036E+03  0.00000000000E+00 0.  1.
</event>
<event>
12    1  0.8053217E-002  0.2650612E+03  0.7818608E-02  0.1104348E+00
         21   -1    0    0  503  502  0.00000000000E+00  0.00000000000E+00  0.12777311416E+03  0.12777311416E+03  0.00000000000E+00 0.  1.
         21   -1    0    0  501  503 -0.00000000000E+00 -0.00000000000E+00 -0.80271926761E+03  0.80271926761E+03  0.00000000000E+00 0. -1.
          6    2    1    2  501    0  0.20091580701E+03 -0.14155720896E+02 -0.59948539412E+03  0.65489889911E+03  0.17012432028E+03 0.  0.
         24    2    3    3    0    0  0.79202737976E+02  0.22258234854E+02 -0.14107504769E+03  0.17918660889E+03  0.73737161626E+02 0.  0.
         -6    2    1    2    0  502 -0.20091580701E+03  0.14155720896E+02 -0.75460759326E+02  0.27559348265E+03  0.17230756089E+03 0.  0.
        -24    2    5    5    0    0 -0.70492861962E+02  0.58834752890E+02 -0.60834598044E+02  0.13687659439E+03  0.81262426968E+02 0.  0.
          5    1    3    3  501    0  0.12171306904E+03 -0.36413955750E+02 -0.45841034643E+03  0.47571229022E+03  0.47000000000E+01 0. -1.
        -11    1    4    4    0    0  0.76716922829E+02  0.26896741091E+02 -0.68177771709E+02  0.10609962057E+03  0.00000000000E+00 0.  1.
         12    1    4    4    0    0  0.24858151467E+01 -0.46385062369E+01 -0.72897275980E+02  0.73086988325E+02  0.00000000000E+00 0. -1.
         -5    1    5    5    0  502 -0.13042294505E+03 -0.44679031994E+02 -0.14626161282E+02  0.13871688826E+03  0.47000000000E+01 0.  1.
         11    1    6    6    0    0 -0.44540851453E+02  0.65248791860E+02 -0.10251951642E+02  0.79664263003E+02  0.00000000000E+00 0. -1.
        -12    1    6    6    0    0 -0.25952010509E+02 -0.64140389705E+01 -0.50582646402E+02  0.57212331384E+02  0.00000000000E+00 0.  1.
</event>
<event>
12    1  0.8053217E-002  0.1889688E+03  0.7818608E-02  0.1161062E+00
         21   -1    0    0  503  502  0.00000000000E+00  0.00000000000E+00  0.30948541994E+03  0.30948541994E+03  0.00000000000E+00 0. -1.
         21   -1    0    0  501  503 -0.00000000000E+00 -0.00000000000E+00 -0.17221197903E+03  0.17221197903E+03  0.00000000000E+00 0.  1.
          6    2    1    2  501    0 -0.63591093509E+02 -0.11059575443E+02 -0.74041459428E+02  0.20295651676E+03  0.17760368408E+03 0.  0.
         24    2    3    3    0    0 -0.60829000524E+02 -0.17902325552E+02 -0.12000637031E+03  0.15616639581E+03  0.77238291660E+02 0.  0.
         -6    2    1    2    0  502  0.63591093509E+02  0.11059575443E+02  0.21131490034E+03  0.27874088222E+03  0.16993042968E+03 0.  0.
        -24    2    5    5    0    0  0.60015758532E+02 -0.26654516283E+02  0.21606993221E+03  0.24027224482E+03  0.82049872114E+02 0.  0.
          5    1    3    3  501    0 -0.27620929849E+01  0.68427501091E+01  0.45964910884E+02  0.46790120958E+02  0.47000000000E+01 0. -1.
        -13    1    4    4    0    0  0.84018596034E+01  0.10754742317E+02 -0.55947822527E+02  0.57588319759E+02  0.00000000000E+00 0.  1.
         14    1    4    4    0    0 -0.69230860127E+02 -0.28657067868E+02 -0.64058547784E+02  0.98578076046E+02  0.00000000000E+00 0. -1.
         -5    1    5    5    0  502  0.35753349768E+01  0.37714091726E+02 -0.47550318767E+01  0.38468637395E+02  0.47000000000E+01 0.  1.
         11    1    6    6    0    0  0.60239490346E+02  0.87644909438E+01  0.17869989523E+03  0.18878364615E+03  0.00000000000E+00 0. -1.
        -12    1    6    6    0    0 -0.22373181387E+00 -0.35419007227E+02  0.37370036984E+02  0.51488598670E+02  0.00000000000E+00 0.  1.
</event>
<event>
12    1  0.8053217E-002  0.2242363E+03  0.7818608E-02  0.1131383E+00
         21   -1    0    0  501  502  0.00000000000E+00  0.00000000000E+00  0.52032837467E+03  0.52032837467E+03  0.00000000000E+00 0. -1.
         21   -1    0    0  502  503 -0.00000000000E+00 -0.00000000000E+00 -0.95352317288E+02  0.95352317288E+02  0.00000000000E+00 0.  1.
         -6    2    1    2    0  503  0.10883351166E+03 -0.88289548268E+02  0.22702840893E+03  0.31909841139E+03  0.17504890772E+03 0.  0.
        -24    2    3    3    0    0  0.23063258634E+02 -0.87221946963E+02  0.68961070174E+02  0.13919552187E+03  0.80499578738E+02 0.  0.
          6    2    1    2  501    0 -0.10883351166E+03  0.88289548268E+02  0.19794764845E+03  0.29658228057E+03  0.17069856480E+03 0.  0.
         24    2    5    5    0    0 -0.11327049556E+02  0.45212727366E+02  0.15447899421E+03  0.18136623762E+03  0.82809780384E+02 0.  0.
          5    1    5    5  501    0 -0.97506462107E+02  0.43076820902E+02  0.43468654239E+02  0.11521604295E+03  0.47000000000E+01 0. -1.
        -13    1    6    6    0    0 -0.19905708789E+02  0.81451540585E+01  0.13839946209E+03  0.14006067215E+03  0.00000000000E+00 0.  1.
         14    1    6    6    0    0  0.85786592328E+01  0.37067573308E+02  0.16079532123E+02  0.41305565466E+02  0.00000000000E+00 0. -1.
         -5    1    3    3    0  503  0.85770253030E+02 -0.10676013052E+01  0.15806733875E+03  0.17990288952E+03  0.47000000000E+01 0.  1.
         13    1    4    4    0    0 -0.16837542071E+00  0.13922948201E+02  0.20195897201E+02  0.24530615578E+02  0.00000000000E+00 0. -1.
        -14    1    4    4    0    0  0.23231634055E+02 -0.10114489516E+03  0.48765172973E+02  0.11466490629E+03  0.00000000000E+00 0.  1.
</event>
<event>
12    1  0.8053217E-002  0.2062853E+03  0.7818608E-02  0.1144861E+00
         21   -1    0    0  501  502  0.00000000000E+00  0.00000000000E+00  0.79067765678E+02  0.79067765678E+02  0.00000000000E+00 0. -1.
         21   -1    0    0  502  503 -0.00000000000E+00 -0.00000000000E+00 -0.58697337954E+03  0.58697337954E+03  0.00000000000E+00 0. -1.
         -6    2    1    2    0  503  0.96393537621E+02 -0.54542248910E+02 -0.15489061235E+03  0.25796266877E+03  0.17403179502E+03 0.  0.
        -24    2    3    3    0    0  0.37194950408E+02  0.12548727873E+02 -0.14371230386E+03  0.16767027444E+03  0.76936075702E+02 0.  0.
          6    2    1    2  501    0 -0.96393537621E+02  0.54542248910E+02 -0.35301500151E+03  0.40807847644E+03  0.17216817543E+03 0.  0.
         24    2    5    5    0    0 -0.38330359579E+02  0.28015961097E+01 -0.30543202676E+03  0.31678413224E+03  0.74742210714E+02 0.  0.
          5    1    5    5  501    0 -0.58063178042E+02  0.51740652800E+02 -0.47582974747E+02  0.91294344196E+02  0.47000000000E+01 0. -1.
        -11    1    6    6    0    0 -0.50995204076E+02 -0.22451521840E+02 -0.19627499567E+03  0.20403052614E+03  0.00000000000E+00 0.  1.
         12    1    6    6    0    0  0.12664844497E+02  0.25253117950E+02 -0.10915703109E+03  0.11275360610E+03  0.00000000000E+00 0. -1.
         -5    1    3    3    0  503  0.59198587213E+02 -0.67090976783E+02 -0.11178308492E+02  0.90292394333E+02  0.47000000000E+01 0.  1.
         11    1    4    4    0    0 -0.20111468261E+02 -0.39700417497E+01 -0.69517372890E+02  0.72476875765E+02  0.00000000000E+00 0. -1.
        -12    1    4    4    0    0  0.57306418668E+02  0.16518769622E+02 -0.74194930967E+02  0.95193398677E+02  0.00000000000E+00 0.  1.
</event>
<event>
12    1  0.8053217E-002  0.2063672E+03  0.7818608E-02  0.1144508E+00
         21   -1    0    0  503  502  0.00000000000E+00  0.00000000000E+00  0.34236275005E+02  0.34236275005E+02  0.00000000000E+00 0. -1.
         21   -1    0    0  501  503 -0.00000000000E+00 -0.00000000000E+00 -0.17442710105E+04  0.17442710105E+04  0.00000000000E+00 0. -1.
          6    2    1    2  501    0 -0.10786699646E+03  0.33263819078E+02 -0.13319757263E+04  0.13478674867E+04  0.17275895220E+03 0.  0.
         24    2    3    3    0    0 -0.69959337519E+02  0.81660869029E+02 -0.71320227223E+03  0.72602993350E+03  0.83061283404E+02 0.  0.
         -6    2    1    2    0  502  0.10786699646E+03 -0.33263819078E+02 -0.37805900919E+03  0.43063979884E+03  0.17256955504E+03 0.  0.
        -24    2    5    5    0    0  0.31530934111E+02  0.35885662735E+02 -0.11503225713E+03  0.14812606900E+03  0.80168145418E+02 0.  0.
          5    1    3    3  501    0 -0.37907658943E+02 -0.48397049951E+02 -0.61877345408E+03  0.62183755317E+03  0.47000000000E+01 0. -1.
        -13    1    4    4    0    0 -0.83472606044E+02  0.56601491748E+02 -0.44316850515E+03  0.45449942660E+03  0.00000000000E+00 0.  1.
         14    1    4    4    0    0  0.13513268525E+02  0.25059377281E+02 -0.27003376708E+03  0.27153050690E+03  0.00000000000E+00 0. -1.
         -5    1    5    5    0  502  0.76336062351E+02 -0.69149481814E+02 -0.26302675206E+03  0.28251372984E+03  0.47000000000E+01 0.  1.
         11    1    6    6    0    0  0.41012920831E+02 -0.18405008607E+01 -0.96839766366E+02  0.10518263863E+03  0.00000000000E+00 0. -1.
        -12    1    6    6    0    0 -0.94819867202E+01  0.37726163596E+02 -0.18192490768E+02  0.42943430373E+02  0.00000000000E+00 0.  1.
</event>
<event>
12    1  0.8053217E-002  0.2065227E+03  0.7818608E-02  0.1145168E+00
         21   -1    0    0  501  502  0.00000000000E+00  0.00000000000E+00  0.33600233961E+03  0.33600233961E+03  0.00000000000E+00 0.  1.
         21   -1    0    0  502  503 -0.00000000000E+00 -0.00000000000E+00 -0.13089209738E+03  0.13089209738E+03  0.00000000000E+00 0.  1.
         -6    2    1    2    0  503  0.68092681843E+02  0.84323941310E+02  0.51878643333E+02  0.21293904432E+03  0.17579676494E+03 0.  0.
        -24    2    3    3    0    0  0.20966398764E+02  0.75188110953E+02  0.92403762799E+02  0.14994122482E+03  0.88606284294E+02 0.  0.
          6    2    1    2  501    0 -0.68092681843E+02 -0.84323941310E+02  0.15323159889E+03  0.25395539267E+03  0.17107389681E+03 0.  0.
         24    2    5    5    0    0 -0.21654371518E+02 -0.29374532458E+02  0.16196338655E+03  0.18133109705E+03  0.72918126774E+02 0.  0.
          5    1    5    5  501    0 -0.46438310326E+02 -0.54949408852E+02 -0.87317876575E+01  0.72624295623E+02  0.47000000000E+01 0. -1.
        -11    1    6    6    0    0 -0.48261445889E+02 -0.18942902851E+02  0.11809737285E+03  0.12897670410E+03  0.00000000000E+00 0.  1.
         12    1    6    6    0    0  0.26607074372E+02 -0.10431629607E+02  0.43866013701E+02  0.52354392947E+02  0.00000000000E+00 0. -1.
         -5    1    3    3    0  503  0.47126283080E+02  0.91358303568E+01 -0.40525119467E+02  0.62997819494E+02  0.47000000000E+01 0.  1.
         13    1    4    4    0    0 -0.12060060688E+01  0.37499781537E+02 -0.97986287651E+01  0.38777586202E+02  0.00000000000E+00 0. -1.
        -14    1    4    4    0    0  0.22172404832E+02  0.37688329417E+02  0.10220239156E+03  0.11116363862E+03  0.00000000000E+00 0.  1.
</event>
<event>
12    1  0.8053217E-002  0.1885891E+03  0.7818608E-02  0.1159865E+00
         21   -1    0    0  501  502  0.00000000000E+00  0.00000000000E+00  0.13298626677E+04  0.13298626677E+04  0.00000000000E+00 0.  1.
         21   -1    0    0  502  503 -0.00000000000E+00 -0.00000000000E+00 -0.26997274448E+02  0.26997274448E+02  0.00000000000E+00 0. -1.
         -6    2    1    2    0  503 -0.73344433285E+02  0.22635580840E+02  0.57727816892E+03  0.60730218635E+03  0.17226167835E+03 0.  0.
        -24    2    3    3    0    0 -0.34189979857E+02  0.74467014648E+02  0.42762520740E+03  0.44409168533E+03  0.87406040869E+02 0.  0.
          6    2    1    2  501    0  0.73344433285E+02 -0.22635580840E+02  0.72558722438E+03  0.74955775584E+03  0.17166314031E+03 0.  0.
         24    2    5    5    0    0  0.71369902120E+02  0.47631581356E+02  0.45809985840E+03  0.47294800581E+03  0.80385977983E+02 0.  0.
          5    1    5    5  501    0  0.19745311651E+01 -0.70267162196E+02  0.26748736598E+03  0.27660975003E+03  0.47000000000E+01 0. -1.
        -13    1    6    6    0    0  0.49791407694E+02 -0.14090734667E+02  0.22298573788E+03  0.22891127622E+03  0.00000000000E+00 0.  1.
         14    1    6    6    0    0  0.21578494425E+02  0.61722316023E+02  0.23511412052E+03  0.24403672959E+03  0.00000000000E+00 0. -1.
         -5    1    3    3    0  503 -0.39154453428E+02 -0.51831433809E+02  0.14965296152E+03  0.16321050102E+03  0.47000000000E+01 0.  1.
         13    1    4    4    0    0 -0.19016095669E+02  0.33651703673E+02  0.46412579745E+02  0.60400137526E+02  0.00000000000E+00 0. -1.
        -14    1    4    4    0    0 -0.15173884189E+02  0.40815310976E+02  0.38121262765E+03  0.38369154780E+03  0.00000000000E+00 0.  1.
</event>
<event>
12    1  0.8053217E-002  0.3622842E+03  0.7818608E-02  0.1058028E+00
         21   -1    0    0  501  502  0.00000000000E+00  0.00000000000E+00  0.54010423303E+03  0.54010423303E+03  0.00000000000E+00 0.  1.
         21   -1    0    0  502  503 -0.00000000000E+00 -0.00000000000E+00 -0.24076722197E+03  0.24076722197E+03  0.00000000000E+00 0. -1.
         -6    2    1    2    0  503 -0.28797015015E+03 -0.12839362791E+03  0.14251125457E+03  0.38930620316E+03  0.17843242719E+03 0.  0.
        -24    2    3    3    0    0 -0.14046538468E+03 -0.13869476210E+03  0.64918425518E+02  0.22225379725E+03  0.78838994744E+02 0.  0.
          6    2    1    2  501    0  0.28797015015E+03  0.12839362791E+03  0.15682575648E+03  0.39156525185E+03  0.17122294674E+03 0.  0.
         24    2    5    5    0    0  0.25031312672E+03  0.43523357464E+02  0.11587917971E+03  0.28997919784E+03  0.78160135846E+02 0.  0.
          5    1    5    5  501    0  0.37657023425E+02  0.84870270445E+02  0.40946576773E+02  0.10158605400E+03  0.47000000000E+01 0. -1.
        -13    1    6    6    0    0  0.21360655513E+03  0.51378868704E+02  0.12297823725E+03  0.25177608183E+03  0.00000000000E+00 0.  1.
         14    1    6    6    0    0  0.36706571588E+02 -0.78555112402E+01 -0.70990575434E+01  0.38203116007E+02  0.00000000000E+00 0. -1.
         -5    1    3    3    0  503 -0.14750476546E+03  0.10301134187E+02  0.77592829054E+02  0.16705240591E+03  0.47000000000E+01 0.  1.
         11    1    4    4    0    0 -0.13362708794E+03 -0.95692894076E+02  0.31459789836E+02  0.16734110967E+03  0.00000000000E+00 0. -1.
        -12    1    4    4    0    0 -0.68382967419E+01 -0.43001868020E+02  0.33458635681E+02  0.54912687579E+02  0.00000000000E+00 0.  1.
</event>
<event>
12    1  0.8053217E-002  0.2063891E+03  0.7818608E-02  0.1145604E+00
         21   -1    0    0  503  502  0.00000000000E+00  0.00000000000E+00  0.48913954631E+02  0.48913954631E+02  0.00000000000E+00 0. -1.
         21   -1    0    0  501  503 -0.00000000000E+00 -0.00000000000E+00 -0.85023857053E+03  0.85023857053E+03  0.00000000000E+00 0. -1.
          6    2    1    2  501    0 -0.59561463988E+01 -0.10312962410E+03 -0.38050171140E+03  0.43287182113E+03  0.17867642849E+03 0.  0.
         24    2    3    3    0    0 -0.57025445933E+02 -0.86450047218E+01 -0.19849606070E+03  0.22148695047E+03  0.79555927033E+02 0.  0.
         -6    2    1    2    0  502  0.59561463988E+01  0.10312962410E+03 -0.42082290450E+03  0.46628070404E+03  0.17220506077E+03 0.  0.
        -24    2    5    5    0    0 -0.36296513272E+02  0.81883512139E+01 -0.12679544202E+03  0.15439391169E+03  0.79849294791E+02 0.  0.
          5    1    3    3  501    0  0.51069299534E+02 -0.94484619379E+02 -0.18200565070E+03  0.21138487065E+03  0.47000000000E+01 0. -1.
        -13    1    4    4    0    0 -0.13754710674E+01  0.14168645613E+02 -0.16429158840E+00  0.14236201420E+02  0.00000000000E+00 0.  1.
         14    1    4    4    0    0 -0.55649974866E+02 -0.22813650335E+02 -0.19833176911E+03  0.20725074905E+03  0.00000000000E+00 0. -1.
         -5    1    5    5    0  502  0.42252659671E+02  0.94941272887E+02 -0.29402746248E+03  0.31188679235E+03  0.47000000000E+01 0.  1.
         13    1    6    6    0    0  0.17261021606E+02  0.25864103147E+02 -0.53921080166E+02  0.62244498430E+02  0.00000000000E+00 0. -1.
        -14    1    6    6    0    0 -0.53557534878E+02 -0.17675751933E+02 -0.72874361853E+02  0.92149413260E+02  0.00000000000E+00 0.  1.
</event>
<event>
12    1  0.8053217E-002  0.2241193E+03  0.7818608E-02  0.1130928E+00
         21   -1    0    0  501  502  0.00000000000E+00  0.00000000000E+00  0.83519305450E+03  0.83519305450E+03  0.00000000000E+00 0.  1.
         21   -1    0    0  502  503 -0.00000000000E+00 -0.00000000000E+00 -0.69973411659E+02  0.69973411659E+02  0.00000000000E+00 0. -1.
         -6    2    1    2    0  503 -0.13588740632E+03 -0.46110880979E+02  0.21227075019E+03  0.30868805791E+03  0.17215645550E+03 0.  0.
        -24    2    3    3    0    0 -0.16149982220E+03 -0.17216066087E+02  0.19526102440E+03  0.26623423657E+03  0.79844947055E+02 0.  0.
          6    2    1    2  501    0  0.13588740632E+03  0.46110880979E+02  0.55294889265E+03  0.59647840825E+03  0.17158791648E+03 0.  0.
         24    2    5    5    0    0  0.17407009327E+01 -0.22079874309E+02  0.19699491281E+03  0.20999342350E+03  0.69279804777E+02 0.  0.
          5    1    5    5  501    0  0.13414670538E+03  0.68190755288E+02  0.35595397984E+03  0.38648498475E+03  0.47000000000E+01 0. -1.
        -11    1    6    6    0    0  0.32066275718E+02 -0.27316961209E+01  0.13030662579E+03  0.13422192417E+03  0.00000000000E+00 0.  1.
         12    1    6    6    0    0 -0.30325574785E+02 -0.19348178188E+02  0.66688287018E+02  0.75771499330E+02  0.00000000000E+00 0. -1.
         -5    1    3    3    0  503  0.25612415882E+02 -0.28894814892E+02  0.17009725786E+02  0.42453821339E+02  0.47000000000E+01 0.  1.
         13    1    4    4    0    0  0.20027777411E+01 -0.11119701427E+01 -0.60042041405E+01  0.64263569492E+01  0.00000000000E+00 0. -1.
        -14    1    4    4    0    0 -0.16350259994E+03 -0.16104095944E+02  0.20126522854E+03  0.25980787962E+03  0.00000000000E+00 0.  1.
</event>
<event>
12    1  0.8053217E-002  0.1871325E+03  0.7818608E-02  0.1161986E+00
         21   -1    0    0  501  502  0.00000000000E+00  0.00000000000E+00  0.25021708636E+03  0.25021708636E+03  0.00000000000E+00 0. -1.
         21   -1    0    0  502  503 -0.00000000000E+00 -0.00000000000E+00 -0.56364886470E+03  0.56364886470E+03  0.00000000000E+00 0. -1.
         -6    2    1    2    0  503 -0.54128489436E+02 -0.46553154367E+02 -0.51033493687E+03  0.54222386770E+03  0.16872428800E+03 0.  0.
        -24    2    3    3    0    0 -0.83711210952E+02 -0.55424974813E+02 -0.48374870976E+03  0.50120236014E+03  0.84329691938E+02 0.  0.
          6    2    1    2  501    0  0.54128489436E+02  0.46553154367E+02  0.19690315852E+03  0.27164208336E+03  0.17297825895E+03 0.  0.
         24    2    5    5    0    0  0.11098846516E+01 -0.34090490965E+02  0.64886127519E+02  0.10804209418E+03  0.79369333829E+02 0.  0.
          5    1    5    5  501    0  0.53018604785E+02  0.80643645332E+02  0.13201703100E+03  0.16359998918E+03  0.47000000000E+01 0. -1.
        -13    1    6    6    0    0 -0.25824014941E+02 -0.46797539890E+02  0.27089918090E+02  0.59922893368E+02  0.00000000000E+00 0.  1.
         14    1    6    6    0    0  0.26933899593E+02  0.12707048925E+02  0.37796209430E+02  0.48119200813E+02  0.00000000000E+00 0. -1.
         -5    1    3    3    0  503  0.29582721516E+02  0.88718204460E+01 -0.26586227105E+02  0.41021507554E+02  0.47000000000E+01 0.  1.
         11    1    4    4    0    0 -0.80680529857E+02 -0.80669425001E+01 -0.25490634222E+03  0.26749143307E+03  0.00000000000E+00 0. -1.
        -12    1    4    4    0    0 -0.30306810956E+01 -0.47358032313E+02 -0.22884236754E+03  0.23371092707E+03  0.00000000000E+00 0.  1.
</event>
<event>
12    1  0.8053217E-002  0.2143438E+03  0.7818608E-02  0.1139625E+00
         21   -1    0    0  503  502  0.00000000000E+00  0.00000000000E+00  0.91467519183E+02  0.91467519183E+02  0.00000000000E+00 0. -1.
         21   -1    0    0  501  503 -0.00000000000E+00 -0.00000000000E+00 -0.60963619124E+03  0.60963619124E+03  0.00000000000E+00 0. -1.
          6    2    1    2  501    0 -0.29237321435E+02 -0.10991612766E+03 -0.42112490934E+03  0.47253514285E+03  0.18167800054E+03 0.  0.
         24    2    3    3    0    0 -0.59095841205E+02  0.77770400130E+00 -0.20586303679E+03  0.22859986590E+03  0.79908607174E+02 0.  0.
         -6    2    1    2    0  502  0.29237321435E+02  0.10991612766E+03 -0.97043762719E+02  0.22856856757E+03  0.17288644284E+03 0.  0.
        -24    2    5    5    0    0  0.87645392697E+01  0.14179379483E+03 -0.98125442065E+02  0.19037720069E+03  0.80203358782E+02 0.  0.
          5    1    3    3  501    0  0.29858519770E+02 -0.11069383166E+03 -0.21526187255E+03  0.24393527695E+03  0.47000000000E+01 0. -1.
        -11    1    4    4    0    0  0.13464151778E+02 -0.69409332831E+01 -0.92844464425E+02  0.94072070841E+02  0.00000000000E+00 0.  1.
         12    1    4    4    0    0 -0.72559992983E+02  0.77186372844E+01 -0.11301857237E+03  0.13452779506E+03  0.00000000000E+00 0. -1.
         -5    1    5    5    0  502  0.20472782165E+02 -0.31877667178E+02  0.10816793454E+01  0.38191366885E+02  0.47000000000E+01 0.  1.
         13    1    6    6    0    0 -0.20271050034E+02  0.10295623181E+03 -0.95387363634E+02  0.14180849861E+03  0.00000000000E+00 0. -1.
        -14    1    6    6    0    0  0.29035589303E+02  0.38837563027E+02 -0.27380784307E+01  0.48568702078E+02  0.00000000000E+00 0.  1.
</event>
<event>
12    1  0.8053217E-002  0.3537744E+03  0.7818608E-02  0.1061111E+00
         21   -1    0    0  501  502  0.00000000000E+00  0.00000000000E+00  0.92534039084E+02  0.92534039084E+02  0.00000000000E+00 0.  1.
         21   -1    0    0  502  503 -0.00000000000E+00 -0.00000000000E+00 -0.14456661695E+04  0.14456661695E+04  0.00000000000E+00 0. -1.
         -6    2    1    2    0  503  0.15905651934E+02 -0.30799113506E+03 -0.87282826493E+03  0.94167013944E+03  0.17263239094E+03 0.  0.
        -24    2    3    3    0    0  0.48295662838E+02 -0.78794939178E+02 -0.31149275975E+03  0.33446370963E+03  0.79354396207E+02 0.  0.
          6    2    1    2  501    0 -0.15905651934E+02  0.30799113506E+03 -0.48030386550E+03  0.59653006916E+03  0.17333433349E+03 0.  0.
         24    2    5    5    0    0  0.44270342984E+02  0.26316243457E+03 -0.37129651228E+03  0.46410856107E+03  0.79506768164E+02 0.  0.
          5    1    5    5  501    0 -0.60175994919E+02  0.44828700488E+02 -0.10900735321E+03  0.13242150810E+03  0.47000000000E+01 0. -1.
        -13    1    6    6    0    0  0.36633573784E+02  0.10134528378E+03 -0.94193071062E+02  0.14312658701E+03  0.00000000000E+00 0.  1.
         14    1    6    6    0    0  0.76367692005E+01  0.16181715080E+03 -0.27710344122E+03  0.32098197406E+03  0.00000000000E+00 0. -1.
         -5    1    3    3    0  503 -0.32390010904E+02 -0.22919619588E+03 -0.56133550519E+03  0.60720642981E+03  0.47000000000E+01 0.  1.
         13    1    4    4    0    0  0.49581795863E+02 -0.94046674003E+02 -0.27813807241E+03  0.29776487150E+03  0.00000000000E+00 0. -1.
        -14    1    4    4    0    0 -0.12861330245E+01  0.15251734825E+02 -0.33354687331E+02  0.36698838133E+02  0.00000000000E+00 0.  1.
</event>
<event>
12    1  0.8053217E-002  0.1806912E+03  0.7818608E-02  0.1167303E+00
         21   -1    0    0  503  502  0.00000000000E+00  0.00000000000E+00  0.27373348186E+03  0.27373348186E+03  0.00000000000E+00 0. -1.
         21   -1    0    0  501  503 -0.00000000000E+00 -0.00000000000E+00 -0.25452320534E+03  0.25452320534E+03  0.00000000000E+00 0. -1.
          6    2    1    2  501    0 -0.36622998469E+02  0.35760146557E+02 -0.18324966319E+03  0.25735143488E+03  0.17328961272E+03 0.  0.
         24    2    3    3    0    0  0.18780110800E+02  0.10262439539E+02 -0.24125540527E+02  0.86875002507E+02  0.80667305198E+02 0.  0.
         -6    2    1    2    0  502  0.36622998469E+02 -0.35760146557E+02  0.20245993971E+03  0.27090525232E+03  0.17256765760E+03 0.  0.
        -24    2    5    5    0    0 -0.96383617475E-01 -0.83521811126E+02  0.15888047459E+03  0.19640190070E+03  0.79716994222E+02 0.  0.
          5    1    3    3  501    0 -0.55403109269E+02  0.25497707018E+02 -0.15912412267E+03  0.17047643237E+03  0.47000000000E+01 0. -1.
        -11    1    4    4    0    0  0.17322015953E+02 -0.16013158875E+02 -0.46624364580E+02  0.52252319243E+02  0.00000000000E+00 0.  1.
         12    1    4    4    0    0  0.14580948475E+01  0.26275598413E+02  0.22498824053E+02  0.34622683263E+02  0.00000000000E+00 0. -1.
         -5    1    5    5    0  502  0.36719382086E+02  0.47761664569E+02  0.43579465114E+02  0.74503351622E+02  0.47000000000E+01 0.  1.
         11    1    6    6    0    0  0.23653186557E+02 -0.14660030734E+02  0.96715436509E+02  0.10063928356E+03  0.00000000000E+00 0. -1.
        -12    1    6    6    0    0 -0.23749570175E+02 -0.68861780392E+02  0.62165038084E+02  0.95762617144E+02  0.00000000000E+00 0.  1.
</event>
<event>
12    1  0.8053217E-002  0.2198334E+03  0.7818608E-02  0.1134037E+00
         21   -1    0    0  503  502  0.00000000000E+00  0.00000000000E+00  0.21127708871E+03  0.21127708871E+03  0.00000000000E+00 0.  1.
         21   -1    0    0  501  503 -0.00000000000E+00 -0.00000000000E+00 -0.32947588506E+03  0.32947588506E+03  0.00000000000E+00 0.  1.
          6    2    1    2  501    0 -0.39728563573E+02  0.13069972809E+03 -0.20874233571E+03  0.30315024842E+03  0.17223801181E+03 0.  0.
         24    2    3    3    0    0 -0.99827206248E+02  0.84722472200E+02 -0.13750140134E+03  0.19911604424E+03  0.59976622926E+02 0.  0.
         -6    2    1    2    0  502  0.39728563573E+02 -0.13069972809E+03  0.90543539362E+02  0.23760272536E+03  0.17203530129E+03 0.  0.
        -24    2    5    5    0    0 -0.24308257958E+02 -0.12658522631E+03  0.41941211662E+02  0.15696824207E+03  0.79153350267E+02 0.  0.
          5    1    3    3  501    0  0.60098642674E+02  0.45977255889E+02 -0.71240934366E+02  0.10403420418E+03  0.47000000000E+01 0. -1.
        -11    1    4    4    0    0 -0.19609996751E+02  0.55123926219E+02 -0.55127719736E+02  0.80388212430E+02  0.00000000000E+00 0.  1.
         12    1    4    4    0    0 -0.80217209497E+02  0.29598545981E+02 -0.82373681607E+02  0.11872783180E+03  0.00000000000E+00 0. -1.
         -5    1    5    5    0  502  0.64036821531E+02 -0.41145017786E+01  0.48602327701E+02  0.80634483285E+02  0.47000000000E+01 0.  1.
         11    1    6    6    0    0 -0.97776687317E+01 -0.21414357900E+02 -0.22671449252E+02  0.32682902890E+02  0.00000000000E+00 0. -1.
        -12    1    6    6    0    0 -0.14530589226E+02 -0.10517086841E+03  0.64612660914E+02  0.12428533918E+03  0.00000000000E+00 0.  1.
</event>
<event>
12    1  0.8053217E-002  0.1768208E+03  0.7818608E-02  0.1170983E+00
         21   -1    0    0  503  502  0.00000000000E+00  0.00000000000E+00  0.35409277993E+03  0.35409277993E+03  0.00000000000E+00 0. -1.
         21   -1    0    0  501  503 -0.00000000000E+00 -0.00000000000E+00 -0.99158636829E+02  0.99158636829E+02  0.00000000000E+00 0. -1.
          6    2    1    2  501    0 -0.19513208381E+02  0.33621076222E+02  0.52086948278E+02  0.18433300912E+03  0.17249482891E+03 0.  0.
         24    2    3    3    0    0 -0.41946643083E+02  0.51011920022E+02  0.89447385269E+02  0.13717802324E+03  0.80344498747E+02 0.  0.
         -6    2    1    2    0  502  0.19513208381E+02 -0.33621076222E+02  0.20284719482E+03  0.26891840764E+03  0.17221783721E+03 0.  0.
        -24    2    5    5    0    0 -0.96248253347E+01  0.20391294723E+02  0.36353159164E+02  0.91411463741E+02  0.80784041486E+02 0.  0.
          5    1    3    3  501    0  0.22433434702E+02 -0.17390843800E+02 -0.37360436991E+02  0.47154985874E+02  0.47000000000E+01 0. -1.
        -11    1    4    4    0    0  0.20781134969E+02  0.10403781423E+02  0.43883492899E+02  0.49657377976E+02  0.00000000000E+00 0.  1.
         12    1    4    4    0    0 -0.62727778052E+02  0.40608138599E+02  0.45563892370E+02  0.87520645265E+02  0.00000000000E+00 0. -1.
         -5    1    5    5    0  502  0.29138033716E+02 -0.54012370945E+02  0.16649403566E+03  0.17750694390E+03  0.47000000000E+01 0.  1.
         11    1    6    6    0    0  0.31556995734E+02  0.85768256623E+01  0.35906291660E+02  0.48566116779E+02  0.00000000000E+00 0. -1.
        -12    1    6    6    0    0 -0.41181821069E+02  0.11814469061E+02  0.44686750392E+00  0.42845346962E+02  0.00000000000E+00 0.  1.
</event>
<event>
12    1  0.8053217E-002  0.1783163E+03  0.7818608E-02  0.1170849E+00
         21   -1    0    0  501  502  0.00000000000E+00  0.00000000000E+00  0.49096549358E+02  0.49096549358E+02  0.00000000000E+00 0. -1.
         21   -1    0    0  502  503 -0.00000000000E+00 -0.00000000000E+00 -0.12140796207E+04  0.12140796207E+04  0.00000000000E+00 0. -1.
         -6    2    1    2    0  503 -0.14917331224E+02 -0.28350948941E+02 -0.10263830042E+04  0.10417575415E+04  0.17541493927E+03 0.  0.
        -24    2    3    3    0    0 -0.38188789255E+02 -0.13838176607E+02 -0.99801111568E+03  0.10020179469E+04  0.79774057091E+02 0.  0.
          6    2    1    2  501    0  0.14917331224E+02  0.28350948941E+02 -0.13860006718E+03  0.22141862858E+03  0.16967594816E+03 0.  0.
         24    2    5    5    0    0 -0.10145811224E+02  0.31306445040E+01 -0.16052175554E+03  0.17938441293E+03  0.79364949311E+02 0.  0.
          5    1    5    5  501    0  0.25063142448E+02  0.25220304437E+02  0.21921688357E+02  0.42034215654E+02  0.47000000000E+01 0. -1.
        -13    1    6    6    0    0 -0.12488160337E+02 -0.34039350988E+02 -0.43774445598E+02  0.56840422692E+02  0.00000000000E+00 0.  1.
         14    1    6    6    0    0  0.23423491134E+01  0.37169995492E+02 -0.11674730994E+03  0.12254399023E+03  0.00000000000E+00 0. -1.
         -5    1    3    3    0  503  0.23271458031E+02 -0.14512772334E+02 -0.28371888505E+02  0.39739594576E+02  0.47000000000E+01 0.  1.
         11    1    4    4    0    0 -0.15374538379E+02 -0.13372911516E+02 -0.53775725650E+02  0.57506867955E+02  0.00000000000E+00 0. -1.
        -12    1    4    4    0    0 -0.22814250877E+02 -0.46526509104E+00 -0.94423539003E+03  0.94451107897E+03  0.00000000000E+00 0.  1.
</event>
<event>
12    1  0.8053217E-002  0.3319120E+03  0.7818608E-02  0.1071512E+00
         21   -1    0    0  503  502  0.00000000000E+00  0.00000000000E+00  0.16233453345E+03  0.16233453345E+03  0.00000000000E+00 0.  1.
         21   -1    0    0  501  503 -0.00000000000E+00 -0.00000000000E+00 -0.12995941896E+04  0.12995941896E+04  0.00000000000E+00 0.  1.
          6    2    1    2  501    0 -0.11838005314E+01 -0.27185352615E+03 -0.10779817522E+04  0.11247649051E+04  0.17072109563E+03 0.  0.
         24    2    3    3    0    0 -0.29326345287E+02 -0.53609838403E+02 -0.23187353000E+03  0.25049748387E+03  0.72454166256E+02 0.  0.
         -6    2    1    2    0  502  0.11838005314E+01  0.27185352615E+03 -0.59277903875E+02  0.33716381792E+03  0.19042013855E+03 0.  0.
        -24    2    5    5    0    0  0.40903181981E+02  0.64475445843E+02 -0.61357430768E+02  0.12595370480E+03  0.79179846105E+02 0.  0.
          5    1    3    3  501    0  0.28142544756E+02 -0.21824368774E+03 -0.84610822223E+03  0.87426742121E+03  0.47000000000E+01 0. -1.
        -13    1    4    4    0    0 -0.32994718420E+02 -0.70042672570E+02 -0.17956654221E+03  0.19554736128E+03  0.00000000000E+00 0.  1.
         14    1    4    4    0    0  0.36683731325E+01  0.16432834166E+02 -0.52306987794E+02  0.54950122587E+02  0.00000000000E+00 0. -1.
         -5    1    5    5    0  502 -0.39719381449E+02  0.20737808030E+03  0.20795268924E+01  0.21121011312E+03  0.47000000000E+01 0.  1.
         11    1    6    6    0    0 -0.22721900642E+02  0.28381763215E+02 -0.26067735731E+02  0.44736295087E+02  0.00000000000E+00 0. -1.
        -12    1    6    6    0    0  0.63625082623E+02  0.36093682627E+02 -0.35289695037E+02  0.81217409711E+02  0.00000000000E+00 0.  1.
</event>
<event>
12    1  0.8053217E-002  0.2969660E+03  0.7818608E-02  0.1087312E+00
         21   -1    0    0  501  502  0.00000000000E+00  0.00000000000E+00  0.11189767072E+03  0.11189767072E+03  0.00000000000E+00 0. -1.
         21   -1    0    0  502  503 -0.00000000000E+00 -0.00000000000E+00 -0.11141274617E+04  0.11141274617E+04  0.00000000000E+00 0.  1.
         -6    2    1    2    0  503 -0.18007982332E+03  0.15173519735E+03 -0.84092612371E+03  0.89182147672E+03  0.18093227436E+03 0.  0.
        -24    2    3    3    0    0 -0.11161243377E+03  0.42734364198E+02 -0.26618545499E+03  0.30282411565E+03  0.81019672392E+02 0.  0.
          6    2    1    2  501    0  0.18007982332E+03 -0.15173519735E+03 -0.16130366727E+03  0.33420365571E+03  0.17384158746E+03 0.  0.
         24    2    5    5    0    0  0.17791238961E+02 -0.40763269271E+02 -0.66590487712E+02  0.11592624089E+03  0.83823791186E+02 0.  0.
          5    1    5    5  501    0  0.16228858436E+03 -0.11097192808E+03 -0.94713179555E+02  0.21827741481E+03  0.47000000000E+01 0. -1.
        -11    1    6    6    0    0  0.16271294740E+02 -0.59957523245E+00 -0.73379672669E+02  0.75164425655E+02  0.00000000000E+00 0.  1.
         12    1    6    6    0    0  0.15199442213E+01 -0.40163694038E+02  0.67891849573E+01  0.40761815239E+02  0.00000000000E+00 0. -1.
         -5    1    3    3    0  503 -0.68467389548E+02  0.10900083316E+03 -0.57474066872E+03  0.58899736106E+03  0.47000000000E+01 0.  1.
         13    1    4    4    0    0  0.97327176901E+01  0.15351546396E+02 -0.20205096638E+02  0.27177963510E+02  0.00000000000E+00 0. -1.
        -14    1    4    4    0    0 -0.12134515146E+03  0.27382817801E+02 -0.24598035836E+03  0.27564615214E+03  0.00000000000E+00 0.  1.
</event>
<event>
12    1  0.8053217E-002  0.1960305E+03  0.7818608E-02  0.1153181E+00
         21   -1    0    0  501  502  0.00000000000E+00  0.00000000000E+00  0.44293008177E+02  0.44293008177E+02  0.00000000000E+00 0.  1.
         21   -1    0    0  502  503 -0.00000000000E+00 -0.00000000000E+00 -0.87791873267E+03  0.87791873267E+03  0.00000000000E+00 0.  1.
         -6    2    1    2    0  503 -0.10879844498E+02  0.93819307017E+02 -0.46899066830E+03  0.50822299419E+03  0.17151656330E+03 0.  0.
        -24    2    3    3    0    0  0.40086040462E+02  0.63936602096E+02 -0.15855746330E+03  0.19218286660E+03  0.78096128700E+02 0.  0.
          6    2    1    2  501    0  0.10879844498E+02 -0.93819307017E+02 -0.36463505620E+03  0.41398874666E+03  0.17177754442E+03 0.  0.
         24    2    5    5    0    0  0.50662550437E+02 -0.97475184809E+02 -0.34231098767E+03  0.36798349512E+03  0.78529833351E+02 0.  0.
          5    1    5    5  501    0 -0.39782705939E+02  0.36558777914E+01 -0.22324068529E+02  0.46005251547E+02  0.47000000000E+01 0. -1.
        -13    1    6    6    0    0  0.94362432203E+01  0.11822158678E+02 -0.19446982117E+02  0.24637192116E+02  0.00000000000E+00 0.  1.
         14    1    6    6    0    0  0.41226307217E+02 -0.10929734349E+03 -0.32286400556E+03  0.34334630300E+03  0.00000000000E+00 0. -1.
         -5    1    3    3    0  503 -0.50965884961E+02  0.29882704921E+02 -0.31043320499E+03  0.31604012759E+03  0.47000000000E+01 0.  1.
         11    1    4    4    0    0  0.20283097336E+02  0.72567474152E+02 -0.15192801285E+03  0.16958644825E+03  0.00000000000E+00 0. -1.
        -12    1    4    4    0    0  0.19802943126E+02 -0.86308720555E+01 -0.66294504558E+01  0.22596418350E+02  0.00000000000E+00 0.  1.
</event>
<event>
12    1  0.8053217E-002  0.1813388E+03  0.7818608E-02  0.1166764E+00
         21   -1    0    0  501  502  0.00000000000E+00  0.00000000000E+00  0.38612294726E+03  0.38612294726E+03  0.00000000000E+00 0. -1.
         21   -1    0    0  502  503 -0.00000000000E+00 -0.00000000000E+00 -0.20666801178E+03  0.20666801178E+03  0.00000000000E+00 0. -1.
         -6    2    1    2    0  503 -0.22880396158E+02 -0.51274307689E+02 -0.13809753928E+03  0.22710893911E+03  0.17133292944E+03 0.  0.
        -24    2    3    3    0    0 -0.76612762935E+02 -0.52624078048E+02 -0.78450588222E+02  0.14667985301E+03  0.81985824704E+02 0.  0.
          6    2    1    2  501    0  0.22880396158E+02  0.51274307689E+02  0.31755247476E+03  0.36568201993E+03  0.17242737115E+03 0.  0.
         24    2    5    5    0    0 -0.13260524398E+02  0.94803679072E+02  0.22507094500E+03  0.25716522096E+03  0.79457167823E+02 0.  0.
          5    1    5    5  501    0  0.36140920556E+02 -0.43529371383E+02  0.92481529761E+02  0.10851679897E+03  0.47000000000E+01 0. -1.
        -13    1    6    6    0    0  0.15611147034E+02  0.94224457776E+02  0.17083938638E+03  0.19572442947E+03  0.00000000000E+00 0.  1.
         14    1    6    6    0    0 -0.28871671432E+02  0.57922129594E+00  0.54231558623E+02  0.61440791493E+02  0.00000000000E+00 0. -1.
         -5    1    3    3    0  503  0.53732366777E+02  0.13497703590E+01 -0.59646951062E+02  0.80429086098E+02  0.47000000000E+01 0.  1.
         13    1    4    4    0    0 -0.71828075223E+01 -0.48647226671E+02 -0.53822263091E+02  0.72903918899E+02  0.00000000000E+00 0. -1.
        -14    1    4    4    0    0 -0.69429955413E+02 -0.39768513775E+01 -0.24628325131E+02  0.73775934113E+02  0.00000000000E+00 0.  1.
</event>
<event>
12    1  0.8053217E-002  0.2231501E+03  0.7818608E-02  0.1132444E+00
         21   -1    0    0  503  502  0.00000000000E+00  0.00000000000E+00  0.73711706386E+02  0.73711706386E+02  0.00000000000E+00 0. -1.
         21   -1    0    0  501  503 -0.00000000000E+00 -0.00000000000E+00 -0.72988999571E+03  0.72988999571E+03  0.00000000000E+00 0.  1.
          6    2    1    2  501    0  0.10804225494E+03 -0.89942172784E+02 -0.44819902003E+03  0.49855851325E+03  0.16707934127E+03 0.  0.
         24    2    3    3    0    0  0.10608189276E+03 -0.82469754539E+02 -0.21980198395E+03  0.26998253869E+03  0.80765281313E+02 0.  0.
         -6    2    1    2    0  502 -0.10804225494E+03  0.89942172784E+02 -0.20797926929E+03  0.30504318884E+03  0.17330103089E+03 0.  0.
        -24    2    5    5    0    0 -0.95622266942E+02  0.62068321381E+02 -0.38467329577E+02  0.13274230260E+03  0.56077526704E+02 0.  0.
          5    1    3    3  501    0  0.19603621834E+01 -0.74724182458E+01 -0.22839703608E+03  0.22857597456E+03  0.47000000000E+01 0. -1.
        -13    1    4    4    0    0  0.55959619983E+02 -0.61044586567E+02 -0.19133501477E+03  0.20848743007E+03  0.00000000000E+00 0.  1.
         14    1    4    4    0    0  0.50122272776E+02 -0.21425167972E+02 -0.28466969179E+02  0.61495108627E+02  0.00000000000E+00 0. -1.
         -5    1    5    5    0  502 -0.12419988001E+02  0.27873851404E+02 -0.16951193971E+03  0.17230088624E+03  0.47000000000E+01 0.  1.
         13    1    6    6    0    0 -0.43363822555E+02  0.24529503314E+02 -0.46187982692E+02  0.67937084016E+02  0.00000000000E+00 0. -1.
        -14    1    6    6    0    0 -0.52258444387E+02  0.37538818066E+02  0.77206531147E+01  0.64805218587E+02  0.00000000000E+00 0.  1.
</event>
<event>
12    1  0.8053217E-002  0.1891234E+03  0.7818608E-02  0.1159905E+00
         21   -1    0    0  503  502  0.00000000000E+00  0.00000000000E+00  0.53163102079E+03  0.53163102079E+03  0.00000000000E+00 0.  1.
         21   -1    0    0  501  503 -0.00000000000E+00 -0.00000000000E+00 -0.20874575176E+03  0.20874575176E+03  0.00000000000E+00 0. -1.
          6    2    1    2  501    0  0.56799432357E+02 -0.51224602085E+02 -0.14399821792E+03  0.23770393575E+03  0.17296687235E+03 0.  0.
         24    2    3    3    0    0  0.33922542520E+02 -0.54433089219E+02 -0.17205236697E+03  0.20106008555E+03  0.81911177048E+02 0.  0.
         -6    2    1    2    0  502 -0.56799432357E+02  0.51224602085E+02  0.46688348695E+03  0.50267283680E+03  0.16985186222E+03 0.  0.
        -24    2    5    5    0    0  0.31117091833E+02  0.16619425982E+02  0.16969420029E+03  0.19079081497E+03  0.79752960697E+02 0.  0.
          5    1    3    3  501    0  0.22876889836E+02  0.32084871342E+01  0.28054149057E+02  0.36643850201E+02  0.47000000000E+01 0. -1.
        -13    1    4    4    0    0 -0.98162013731E+01  0.14856142976E+02 -0.12687563051E+02  0.21864058400E+02  0.00000000000E+00 0.  1.
         14    1    4    4    0    0  0.43738743893E+02 -0.69289232196E+02 -0.15936480392E+03  0.17919602715E+03  0.00000000000E+00 0. -1.
         -5    1    5    5    0  502 -0.87916524190E+02  0.34605176103E+02  0.29718928666E+03  0.31188202184E+03  0.47000000000E+01 0.  1.
         11    1    6    6    0    0  0.15360061447E+02 -0.20278113739E+02  0.12100473596E+02  0.28170105532E+02  0.00000000000E+00 0. -1.
        -12    1    6    6    0    0  0.15757030387E+02  0.36897539721E+02  0.15759372669E+03  0.16262070943E+03  0.00000000000E+00 0.  1.
</event>
<event>
12    1  0.8053217E-002  0.2169822E+03  0.7818608E-02  0.1138978E+00
         21   -1    0    0  503  502  0.00000000000E+00  0.00000000000E+00  0.63088239746E+03  0.63088239746E+03  0.00000000000E+00 0.  1.
         21   -1    0    0  501  503 -0.00000000000E+00 -0.00000000000E+00 -0.82065958131E+02  0.82065958131E+02  0.00000000000E+00 0. -1.
          6    2    1    2  501    0 -0.10563226924E+03 -0.79850296859E+02  0.12852476852E+03  0.23995113119E+03  0.15337432322E+03 0.  0.
         24    2    3    3    0    0 -0.11893492029E+03 -0.23817506636E+02  0.87256946308E+02  0.16894579861E+03  0.78842369962E+02 0.  0.
         -6    2    1    2    0  502  0.10563226924E+03  0.79850296859E+02  0.42029167081E+03  0.47299722440E+03  0.17189252318E+03 0.  0.
        -24    2    5    5    0    0  0.33830455198E+02  0.10366788097E+03  0.21340473484E+03  0.25266322319E+03  0.80034956490E+02 0.  0.
          5    1    3    3  501    0  0.13302651047E+02 -0.56032790224E+02  0.41267822214E+02  0.71005332584E+02  0.47000000000E+01 0. -1.
        -11    1    4    4    0    0 -0.53211227171E+02 -0.35746204874E+02  0.78852727434E+02  0.10162174218E+03  0.00000000000E+00 0.  1.
         12    1    4    4    0    0 -0.65723693120E+02  0.11928698239E+02  0.84042188748E+01  0.67324056427E+02  0.00000000000E+00 0. -1.
         -5    1    5    5    0  502  0.71801814045E+02 -0.23817584108E+02  0.20688693597E+03  0.22033400121E+03  0.47000000000E+01 0.  1.
         11    1    6    6    0    0 -0.10232198444E+02  0.21325115093E+02  0.48387732611E+01  0.24142745192E+02  0.00000000000E+00 0. -1.
        -12    1    6    6    0    0  0.44062653642E+02  0.82342765874E+02  0.20856596158E+03  0.22852047800E+03  0.00000000000E+00 0.  1.
</event>
<event>
12    1  0.8053217E-002  0.1898487E+03  0.7818608E-02  0.1159357E+00
         21   -1    0    0  503  502  0.00000000000E+00  0.00000000000E+00  0.41522573400E+02  0.41522573400E+02  0.00000000000E+00 0. -1.
         21   -1    0    0  501  503 -0.00000000000E+00 -0.00000000000E+00 -0.85403648676E+03  0.85403648676E+03  0.00000000000E+00 0. -1.
          6    2    1    2  501    0 -0.17957381711E+02  0.78136551112E+02 -0.41924345525E+03  0.45886215180E+03  0.16840905975E+03 0.  0.
         24    2    3    3    0    0 -0.56511199561E+02  0.59586596110E+02 -0.13004531997E+03  0.16647858668E+03  0.63712294466E+02 0.  0.
         -6    2    1    2    0  502  0.17957381711E+02 -0.78136551112E+02 -0.39327045811E+03  0.43669690835E+03  0.17208936158E+03 0.  0.
        -24    2    5    5    0    0  0.72398478483E+02 -0.54442313824E+02 -0.19103697955E+03  0.22587537306E+03  0.79492461121E+02 0.  0.
          5    1    3    3  501    0  0.38553817850E+02  0.18549955002E+02 -0.28919813528E+03  0.29238356512E+03  0.47000000000E+01 0. -1.
        -13    1    4    4    0    0 -0.33386821098E+02 -0.58929616296E+00 -0.73491434585E+02  0.80721856088E+02  0.00000000000E+00 0.  1.
         14    1    4    4    0    0 -0.23124378463E+02  0.60175892273E+02 -0.56553885386E+02  0.85756730595E+02  0.00000000000E+00 0. -1.
         -5    1    5    5    0  502 -0.54441096772E+02 -0.23694237288E+02 -0.20223347855E+03  0.21082153530E+03  0.47000000000E+01 0.  1.
         11    1    6    6    0    0  0.68731334969E+02 -0.14090367421E+02 -0.16041535582E+03  0.17508746740E+03  0.00000000000E+00 0. -1.
        -12    1    6    6    0    0  0.36671435133E+01 -0.40351946403E+02 -0.30621623738E+02  0.50787905651E+02  0.00000000000E+00 0.  1.
</event>
<event>
12    1  0.8053217E-002  0.1897609E+03  0.7818608E-02  0.1158928E+00
         21   -1    0    0  503  502  0.00000000000E+00  0.00000000000E+00  0.16000649236E+04  0.16000649236E+04  0.00000000000E+00 0. -1.
         21   -1    0    0  501  503 -0.00000000000E+00 -0.00000000000E+00 -0.59896315655E+02  0.59896315655E+02  0.00000000000E+00 0. -1.
          6    2    1    2  501    0  0.87682522712E+01  0.79929598000E+02  0.11232348013E+03  0.21956167642E+03  0.17066089968E+03 0.  0.
         24    2    3    3    0    0  0.70735603440E+02  0.66464503683E+02  0.72935631506E+02  0.14476358824E+03  0.78840562488E+02 0.  0.
         -6    2    1    2    0  502 -0.87682522712E+01 -0.79929598000E+02  0.14278451278E+04  0.14403995628E+04  0.17188242698E+03 0.  0.
        -24    2    5    5    0    0  0.45596091437E+02 -0.94696148234E+02  0.10708275397E+04  0.10789342379E+04  0.79881825153E+02 0.  0.
          5    1    3    3  501    0 -0.61967351169E+02  0.13465094317E+02  0.39387848625E+02  0.74798088178E+02  0.47000000000E+01 0. -1.
        -11    1    4    4    0    0 -0.65052576661E+01  0.38865626747E+02  0.40648910909E+02  0.56614391084E+02  0.00000000000E+00 0.  1.
         12    1    4    4    0    0  0.77240861106E+02  0.27598876936E+02  0.32286720597E+02  0.88149197157E+02  0.00000000000E+00 0. -1.
         -5    1    5    5    0  502 -0.54364343709E+02  0.14766550234E+02  0.35701758809E+03  0.36146532486E+03  0.47000000000E+01 0.  1.
         13    1    6    6    0    0  0.30604280168E+02 -0.74084231700E+01  0.52720195446E+03  0.52814146541E+03  0.00000000000E+00 0. -1.
        -14    1    6    6    0    0  0.14991811269E+02 -0.87287725064E+02  0.54362558523E+03  0.55079277253E+03  0.00000000000E+00 0.  1.
</event>
<event>
12    1  0.8053217E-002  0.1936994E+03  0.7818608E-02  0.1155374E+00
         21   -1    0    0  503  502  0.00000000000E+00  0.00000000000E+00  0.34364375979E+02  0.34364375979E+02  0.00000000000E+00 0. -1.
         21   -1    0    0  501  503 -0.00000000000E+00 -0.00000000000E+00 -0.11713339292E+04  0.11713339292E+04  0.00000000000E+00 0. -1.
          6    2    1    2  501    0  0.77445847592E+02  0.42363681766E+02 -0.40496710576E+03  0.44850147653E+03  0.17135541095E+03 0.  0.
         24    2    3    3    0    0  0.77819734982E+02  0.71617516314E+02 -0.18849223632E+03  0.23000803103E+03  0.78672685156E+02 0.  0.
         -6    2    1    2    0  502 -0.77445847592E+02 -0.42363681766E+02 -0.73200244746E+03  0.75719682864E+03  0.17241494536E+03 0.  0.
        -24    2    5    5    0    0  0.53862834191E+01 -0.18092578505E+02 -0.55296370766E+03  0.55838232030E+03  0.75270181239E+02 0.  0.
          5    1    3    3  501    0 -0.37388738928E+00 -0.29253834548E+02 -0.21647486944E+03  0.21849344550E+03  0.47000000000E+01 0. -1.
        -11    1    4    4    0    0  0.41036731698E+02 -0.89292854451E+01 -0.46401005009E+02  0.62584333127E+02  0.00000000000E+00 0.  1.
         12    1    4    4    0    0  0.36783003283E+02  0.80546801759E+02 -0.14209123131E+03  0.16742369790E+03  0.00000000000E+00 0. -1.
         -5    1    5    5    0  502 -0.82832131012E+02 -0.24271103261E+02 -0.17903873980E+03  0.19881450835E+03  0.47000000000E+01 0.  1.
         11    1    6    6    0    0 -0.16346197955E+02 -0.42130333882E+02 -0.31875701970E+03  0.32194440643E+03  0.00000000000E+00 0. -1.
        -12    1    6    6    0    0  0.21732481374E+02  0.24037755376E+02 -0.23420668796E+03  0.23643791387E+03  0.00000000000E+00 0.  1.
</event>
<event>
12    1  0.8053217E-002  0.1726961E+03  0.7818608E-02  0.1176308E+00
         21   -1    0    0  503  502  0.00000000000E+00  0.00000000000E+00  0.55339279822E+02  0.55339279822E+02  0.00000000000E+00 0. -1.
         21   -1    0    0  501  503 -0.00000000000E+00 -0.00000000000E+00 -0.70359954091E+03  0.70359954091E+03  0.00000000000E+00 0. -1.
          6    2    1    2  501    0 -0.18132134033E+02  0.65442803466E+01 -0.13586334784E+03  0.21973343656E+03  0.17161681727E+03 0.  0.
         24    2    3    3    0    0 -0.55674536426E+01  0.47479097451E+02 -0.18484415027E+02  0.94699703868E+02  0.79631018321E+02 0.  0.
         -6    2    1    2    0  502  0.18132134033E+02 -0.65442803466E+01 -0.51239691326E+03  0.53920538417E+03  0.16679402782E+03 0.  0.
        -24    2    5    5    0    0  0.71010558581E+02 -0.58900053926E+01 -0.28359752402E+03  0.30432710427E+03  0.84322234107E+02 0.  0.
          5    1    3    3  501    0 -0.12564680390E+02 -0.40934817104E+02 -0.11737893281E+03  0.12503373270E+03  0.47000000000E+01 0. -1.
        -13    1    4    4    0    0 -0.39465321801E+02  0.17051737007E+02  0.52932327075E+01  0.43316182569E+02  0.00000000000E+00 0.  1.
         14    1    4    4    0    0  0.33897868159E+02  0.30427360444E+02 -0.23777647735E+02  0.51383521299E+02  0.00000000000E+00 0. -1.
         -5    1    5    5    0  502 -0.52878424548E+02 -0.65427495400E+00 -0.22879938923E+03  0.23487827990E+03  0.47000000000E+01 0.  1.
         11    1    6    6    0    0 -0.12300891888E+02 -0.99794683541E+01 -0.11645550302E+03  0.11752780910E+03  0.00000000000E+00 0. -1.
        -12    1    6    6    0    0  0.83311450469E+02  0.40894629615E+01 -0.16714202101E+03  0.18679929516E+03  0.00000000000E+00 0.  1.
</event>
<event>
12    1  0.8053217E-002  0.1875712E+03  0.7818608E-02  0.1162309E+00
         21   -1    0    0  501  502  0.00000000000E+00  0.00000000000E+00  0.16088780811E+03  0.16088780811E+03  0.00000000000E+00 0. -1.
         21   -1    0    0  502  503 -0.00000000000E+00 -0.00000000000E+00 -0.22949765558E+03  0.22949765558E+03  0.00000000000E+00 0. -1.
         -6    2    1    2    0  503  0.54932113983E+02 -0.10448108098E+02 -0.90918520178E+02  0.20844459798E+03  0.17904265695E+03 0.  0.
        -24    2    3    3    0    0  0.80700542433E+02  0.21064740410E+02 -0.73379704235E+01  0.11535931545E+03  0.79357576920E+02 0.  0.
          6    2    1    2  501    0 -0.54932113983E+02  0.10448108098E+02  0.22308672711E+02  0.18194086570E+03  0.17169187991E+03 0.  0.
         24    2    5    5    0    0 -0.93598214504E+02 -0.25705189073E+00  0.52779648601E+02  0.13134206975E+03  0.75527188131E+02 0.  0.
          5    1    5    5  501    0  0.38666100521E+02  0.10705159989E+02 -0.30470975890E+02  0.50598795950E+02  0.47000000000E+01 0. -1.
        -11    1    6    6    0    0 -0.91523026703E+02  0.48598735045E+01  0.14650904532E+02  0.92815579463E+02  0.00000000000E+00 0.  1.
         12    1    6    6    0    0 -0.20751878008E+01 -0.51169253953E+01  0.38128744069E+02  0.38526490292E+02  0.00000000000E+00 0. -1.
         -5    1    3    3    0  503 -0.25768428450E+02 -0.31512848508E+02 -0.83580549755E+02  0.93085282528E+02  0.47000000000E+01 0.  1.
         13    1    4    4    0    0  0.21795176181E+01  0.35238794363E+02 -0.34558400870E+01  0.35474860900E+02  0.00000000000E+00 0. -1.
        -14    1    4    4    0    0  0.78521024815E+02 -0.14174053953E+02 -0.38821303365E+01  0.79884454554E+02  0.00000000000E+00 0.  1.
</event>
<event>
12    1  0.8053217E-002  0.1886836E+03  0.7818608E-02  0.1159799E+00
         21   -1    0    0  501  502  0.00000000000E+00  0.00000000000E+00  0.50457749835E+03  0.50457749835E+03  0.00000000000E+00 0. -1.
         21   -1    0    0  502  503 -0.00000000000E+00 -0.00000000000E+00 -0.83612860853E+02  0.83612860853E+02  0.00000000000E+00 0. -1.
         -6    2    1    2    0  503  0.75023754322E+02  0.14567822360E+02  0.92920554796E+02  0.20975355882E+03  0.17181833654E+03 0.  0.
        -24    2    3    3    0    0  0.90351894270E+02  0.57681600877E+02  0.94495594258E+02  0.16372834267E+03  0.79918214327E+02 0.  0.
          6    2    1    2  501    0 -0.75023754322E+02 -0.14567822360E+02  0.32804408270E+03  0.37843680039E+03  0.17251291699E+03 0.  0.
         24    2    5    5    0    0 -0.47696818316E+02 -0.43247900745E+01  0.60666582019E+02  0.10943029672E+03  0.77465252726E+02 0.  0.
          5    1    5    5  501    0 -0.27326936006E+02 -0.10243032286E+02  0.26737750068E+03  0.26900650366E+03  0.47000000000E+01 0. -1.
        -13    1    6    6    0    0 -0.41075098440E+02  0.36001438123E+01  0.78587041342E+02  0.88747100315E+02  0.00000000000E+00 0.  1.
         14    1    6    6    0    0 -0.66217198762E+01 -0.79249338868E+01 -0.17920459323E+02  0.20683196406E+02  0.00000000000E+00 0. -1.
         -5    1    3    3    0  503 -0.15328139948E+02 -0.43113778517E+02 -0.15750394619E+01  0.46025216149E+02  0.47000000000E+01 0.  1.
         13    1    4    4    0    0  0.65355427198E+02  0.11111388842E+02  0.14518962533E+02  0.67864534915E+02  0.00000000000E+00 0. -1.
        -14    1    4    4    0    0  0.24996467073E+02  0.46570212035E+02  0.79976631725E+02  0.95863807754E+02  0.00000000000E+00 0.  1.
</event>
<event>
12    1  0.8053217E-002  0.2068039E+03  0.7818608E-02  0.1144416E+00
         21   -1    0    0  501  502  0.00000000000E+00  0.00000000000E+00  0.14081278991E+03  0.14081278991E+03  0.00000000000E+00 0. -1.
         21   -1    0    0  502  503 -0.00000000000E+00 -0.00000000000E+00 -0.37132992693E+03  0.37132992693E+03  0.00000000000E+00 0. -1.
         -6    2    1    2    0  503  0.86142935935E+02  0.71765052440E+02 -0.22589956840E+03  0.30528724562E+03  0.17204318983E+03 0.  0.
        -24    2    3    3    0    0  0.78400564226E+01  0.90318401979E+02 -0.15828040722E+03  0.20007313687E+03  0.82205185774E+02 0.  0.
          6    2    1    2  501    0 -0.86142935935E+02 -0.71765052440E+02 -0.46175686171E+01  0.20685547122E+03  0.17377294344E+03 0.  0.
         24    2    5    5    0    0 -0.11673238088E+03 -0.89650267633E+02 -0.18017175136E+02  0.16868172999E+03  0.80407015852E+02 0.  0.
          5    1    5    5  501    0  0.30589444950E+02  0.17885215194E+02  0.13399606518E+02  0.38173741233E+02  0.47000000000E+01 0. -1.
        -13    1    6    6    0    0 -0.12699307083E+03 -0.92044395315E+02 -0.19469560942E+02  0.15804579890E+03  0.00000000000E+00 0.  1.
         14    1    6    6    0    0  0.10260689945E+02  0.23941276817E+01  0.14523858064E+01  0.10635931085E+02  0.00000000000E+00 0. -1.
         -5    1    3    3    0  503  0.78302879512E+02 -0.18553349539E+02 -0.67619161184E+02  0.10521410874E+03  0.47000000000E+01 0.  1.
         13    1    4    4    0    0 -0.93705944883E+01  0.15634653088E+02 -0.10538721992E+03  0.10695193566E+03  0.00000000000E+00 0. -1.
        -14    1    4    4    0    0  0.17210650911E+02  0.74683748891E+02 -0.52893187297E+02  0.93121201214E+02  0.00000000000E+00 0.  1.
</event>
<event>
12    1  0.8053217E-002  0.2393721E+03  0.7818608E-02  0.1120614E+00
         21   -1    0    0  503  502  0.00000000000E+00  0.00000000000E+00  0.53684232249E+03  0.53684232249E+03  0.00000000000E+00 0.  1.
         21   -1    0    0  501  503 -0.00000000000E+00 -0.00000000000E+00 -0.12152305649E+03  0.12152305649E+03  0.00000000000E+00 0.  1.
          6    2    1    2  501    0 -0.95703479829E+02 -0.13578236588E+03  0.32564817102E+03  0.40274866621E+03  0.16900813564E+03 0.  0.
         24    2    3    3    0    0 -0.43819391931E+02 -0.92104675591E+01  0.18328185052E+03  0.20525774684E+03  0.80830279524E+02 0.  0.
         -6    2    1    2    0  502  0.95703479829E+02  0.13578236588E+03  0.89671094984E+02  0.25561671276E+03  0.17234555879E+03 0.  0.
        -24    2    5    5    0    0  0.10296654672E+03  0.37641039239E+02  0.26773463008E+02  0.13872927014E+03  0.80684784774E+02 0.  0.
          5    1    3    3  501    0 -0.51884087898E+02 -0.12657189832E+03  0.14236632050E+03  0.19749091937E+03  0.47000000000E+01 0. -1.
        -13    1    4    4    0    0 -0.56852712884E+02 -0.32393348250E+02  0.13838372323E+03  0.15307388683E+03  0.00000000000E+00 0.  1.
         14    1    4    4    0    0  0.13033320954E+02  0.23182880691E+02  0.44898127287E+02  0.52183860015E+02  0.00000000000E+00 0. -1.
         -5    1    5    5    0  502 -0.72630668882E+01  0.98141326636E+02  0.62897631977E+02  0.11688744262E+03  0.47000000000E+01 0.  1.
         13    1    6    6    0    0  0.51326450290E+02  0.28807275199E+01 -0.25553785831E+02  0.57408179389E+02  0.00000000000E+00 0. -1.
        -14    1    6    6    0    0  0.51640096427E+02  0.34760311719E+02  0.52327248839E+02  0.81321090751E+02  0.00000000000E+00 0.  1.
</event>
<event>
12    1  0.8053217E-002  0.1935156E+03  0.7818608E-02  0.1155350E+00
         21   -1    0    0  503  502  0.00000000000E+00  0.00000000000E+00  0.27907711218E+03  0.27907711218E+03  0.00000000000E+00 0.  1.
         21   -1    0    0  501  503 -0.00000000000E+00 -0.00000000000E+00 -0.14752084112E+03  0.14752084112E+03  0.00000000000E+00 0. -1.
          6    2    1    2  501    0  0.88290527805E+02  0.43116070965E+01  0.14670562989E+01  0.19342103608E+03  0.17203411781E+03 0.  0.
         24    2    3    3    0    0  0.90428164774E+02 -0.39865637525E+02  0.41380498713E+02  0.13366008462E+03  0.79913393792E+02 0.  0.
         -6    2    1    2    0  502 -0.88290527805E+02 -0.43116070965E+01  0.13008921476E+03  0.23317691722E+03  0.17214663421E+03 0.  0.
        -24    2    5    5    0    0  0.97621993134E+00 -0.37204688307E+02  0.22723515862E+02  0.89649949913E+02  0.78330157084E+02 0.  0.
          5    1    3    3  501    0 -0.21376369691E+01  0.44177244622E+02 -0.39913442414E+02  0.59760951461E+02  0.47000000000E+01 0. -1.
        -11    1    4    4    0    0 -0.71675998214E+00  0.34216117595E+01  0.32147126726E+02  0.32336649929E+02  0.00000000000E+00 0.  1.
         12    1    4    4    0    0  0.91144924756E+02 -0.43287249285E+02  0.92333719868E+01  0.10132343469E+03  0.00000000000E+00 0. -1.
         -5    1    5    5    0  502 -0.89266747736E+02  0.32893081211E+02  0.10736569890E+03  0.14352696731E+03  0.47000000000E+01 0.  1.
         11    1    6    6    0    0  0.18505215414E+02 -0.56843934300E+02  0.20641284214E+02  0.63243485658E+02  0.00000000000E+00 0. -1.
        -12    1    6    6    0    0 -0.17528995483E+02  0.19639245992E+02  0.20822316477E+01  0.26406464254E+02  0.00000000000E+00 0.  1.
</event>
<event>
12    1  0.8053217E-002  0.2385996E+03  0.7818608E-02  0.1121200E+00
         21   -1    0    0  503  502  0.00000000000E+00  0.00000000000E+00  0.53509804404E+03  0.53509804404E+03  0.00000000000E+00 0. -1.
         21   -1    0    0  501  503 -0.00000000000E+00 -0.00000000000E+00 -0.10728476384E+03  0.10728476384E+03  0.00000000000E+00 0.  1.
          6    2    1    2  501    0 -0.55643433057E+02 -0.15214929416E+03  0.16985749781E+03  0.29288453069E+03  0.17516900240E+03 0.  0.
         24    2    3    3    0    0 -0.31625128041E+01 -0.21988826768E+02  0.11677378977E+03  0.14276469749E+03  0.79070417234E+02 0.  0.
         -6    2    1    2    0  502  0.55643433057E+02  0.15214929416E+03  0.25795578239E+03  0.34949827719E+03  0.17135419672E+03 0.  0.
        -24    2    5    5    0    0  0.52828218790E+02  0.17580478522E+03  0.19248499154E+03  0.27966975764E+03  0.86409248126E+02 0.  0.
          5    1    3    3  501    0 -0.52480920253E+02 -0.13016046739E+03  0.53083708036E+02  0.15011983321E+03  0.47000000000E+01 0. -1.
        -11    1    4    4    0    0 -0.23473766294E+02 -0.40779341717E+02  0.42131618562E+02  0.63158892466E+02  0.00000000000E+00 0.  1.
         12    1    4    4    0    0  0.20311253490E+02  0.18790514949E+02  0.74642171209E+02  0.79605805022E+02  0.00000000000E+00 0. -1.
         -5    1    5    5    0  502  0.28152142671E+01 -0.23655491055E+02  0.65470790851E+02  0.69828519553E+02  0.47000000000E+01 0.  1.
         11    1    6    6    0    0  0.13162608041E+02  0.14702653528E+03  0.17172075426E+03  0.22644662455E+03  0.00000000000E+00 0. -1.
        -12    1    6    6    0    0  0.39665610750E+02  0.28778249939E+02  0.20764237283E+02  0.53223133087E+02  0.00000000000E+00 0.  1.
</event>
<event>
12    1  0.8053217E-002  0.1786454E+03  0.7818608E-02  0.1169209E+00
         21   -1    0    0  501  502  0.00000000000E+00  0.00000000000E+00  0.42057220942E+03  0.42057220942E+03  0.00000000000E+00 0.  1.
         21   -1    0    0  502  503 -0.00000000000E+00 -0.00000000000E+00 -0.75809659786E+02  0.75809659786E+02  0.00000000000E+00 0.  1.
         -6    2    1    2    0  503  0.49381886753E+02  0.13617796573E+02  0.16415661473E+03  0.24234900349E+03  0.17076776690E+03 0.  0.
        -24    2    3    3    0    0  0.53626223740E+02  0.21104027503E+02  0.15220822202E+02  0.93090776433E+02  0.71505715707E+02 0.  0.
          6    2    1    2  501    0 -0.49381886753E+02 -0.13617796573E+02  0.18060593491E+03  0.25403286572E+03  0.17114373496E+03 0.  0.
         24    2    5    5    0    0 -0.95461851665E+02  0.18566484412E+00  0.13657338748E+03  0.18865049847E+03  0.88451799369E+02 0.  0.
          5    1    5    5  501    0  0.46079964911E+02 -0.13803461417E+02  0.44032547434E+02  0.65382367248E+02  0.47000000000E+01 0. -1.
        -13    1    6    6    0    0  0.17169369222E+02 -0.14204832669E+00  0.13699680377E+02  0.21965624499E+02  0.00000000000E+00 0.  1.
         14    1    6    6    0    0 -0.11263122089E+03  0.32771317081E+00  0.12287370710E+03  0.16668487397E+03  0.00000000000E+00 0. -1.
         -5    1    3    3    0  503 -0.42443369873E+01 -0.74862309298E+01  0.14893579252E+03  0.14925822706E+03  0.47000000000E+01 0.  1.
         13    1    4    4    0    0  0.50504924094E+02  0.60870636560E+00  0.37311616304E+02  0.62795498186E+02  0.00000000000E+00 0. -1.
        -14    1    4    4    0    0  0.31212996462E+01  0.20495321137E+02 -0.22090794102E+02  0.30295278247E+02  0.00000000000E+00 0.  1.
</event>
<event>
12    1  0.8053217E-002  0.5893766E+03  0.7818608E-02  0.9928131E-01
         21   -1    0    0  503  502  0.00000000000E+00  0.00000000000E+00  0.17918264111E+04  0.17918264111E+04  0.00000000000E+00 0.  1.
         21   -1    0    0  501  503 -0.00000000000E+00 -0.00000000000E+00 -0.27329960229E+03  0.27329960229E+03  0.00000000000E+00 0. -1.
          6    2    1    2  501    0 -0.10529719717E+03 -0.55307980223E+03  0.20125305786E+03  0.62201310407E+03  0.17150143136E+03 0.  0.
         24    2    3    3    0    0 -0.12346674558E+03 -0.54804588806E+03  0.18552335040E+03  0.59701337451E+03  0.80048254925E+02 0.  0.
         -6    2    1    2    0  502  0.10529719717E+03  0.55307980223E+03  0.13172737510E+04  0.14431129093E+04  0.17429849905E+03 0.  0.
        -24    2    5    5    0    0  0.12002338985E+03  0.52950179960E+03  0.11591640287E+04  0.12825091820E+04  0.79942395734E+02 0.  0.
          5    1    3    3  501    0  0.18169548408E+02 -0.50339141781E+01  0.15729707457E+02  0.24999729558E+02  0.47000000000E+01 0. -1.
        -13    1    4    4    0    0 -0.12962912345E+03 -0.50623211175E+03  0.18618504777E+03  0.55474276257E+03  0.00000000000E+00 0.  1.
         14    1    4    4    0    0  0.61623778748E+01 -0.41813776307E+02 -0.66169736069E+00  0.42270611937E+02  0.00000000000E+00 0. -1.
         -5    1    5    5    0  502 -0.14726192679E+02  0.23578002639E+02  0.15810972222E+03  0.16060372729E+03  0.47000000000E+01 0.  1.
         13    1    6    6    0    0  0.99657645034E+02  0.31821718669E+03  0.77288983172E+03  0.84175561543E+03  0.00000000000E+00 0. -1.
        -14    1    6    6    0    0  0.20365744813E+02  0.21128461291E+03  0.38627419701E+03  0.44075356662E+03  0.00000000000E+00 0.  1.
</event>
<event>
12    1  0.8053217E-002  0.1942621E+03  0.7818608E-02  0.1155068E+00
         21   -1    0    0  501  502  0.00000000000E+00  0.00000000000E+00  0.29524347322E+03  0.29524347322E+03  0.00000000000E+00 0.  1.
         21   -1    0    0  502  503 -0.00000000000E+00 -0.00000000000E+00 -0.17713026338E+03  0.17713026338E+03  0.00000000000E+00 0.  1.
         -6    2    1    2    0  503  0.38694645311E+02 -0.81480422438E+02 -0.66847067945E+02  0.20544173935E+03  0.17205069881E+03 0.  0.
        -24    2    3    3    0    0  0.35441456479E+02 -0.12354549931E+03 -0.72327633900E+02  0.16263776135E+03  0.68557768022E+02 0.  0.
          6    2    1    2  501    0 -0.38694645311E+02  0.81480422438E+02  0.18496027779E+03  0.26693199724E+03  0.17001779900E+03 0.  0.
         24    2    5    5    0    0 -0.39906769401E+02  0.12049951533E+03  0.12477098305E+03  0.19503762989E+03  0.79744563595E+02 0.  0.
          5    1    5    5  501    0  0.12121240907E+01 -0.39019092896E+02  0.60189294743E+02  0.71894367351E+02  0.47000000000E+01 0. -1.
        -11    1    6    6    0    0 -0.51809961271E+02  0.36247868723E+02  0.39385669366E+02  0.74494369084E+02  0.00000000000E+00 0.  1.
         12    1    6    6    0    0  0.11903191870E+02  0.84251646611E+02  0.85385313682E+02  0.12054326081E+03  0.00000000000E+00 0. -1.
         -5    1    3    3    0  503  0.32531888317E+01  0.42065076869E+02  0.54805659545E+01  0.42803978001E+02  0.47000000000E+01 0.  1.
         11    1    4    4    0    0  0.39772229980E+01 -0.39892734675E+02 -0.60366839271E+02  0.72466570681E+02  0.00000000000E+00 0. -1.
        -12    1    4    4    0    0  0.31464233481E+02 -0.83652764632E+02 -0.11960794628E+02  0.90171190672E+02  0.00000000000E+00 0.  1.
</event>
<event>
12    1  0.8053217E-002  0.2248738E+03  0.7818608E-02  0.1133234E+00
         21   -1    0    0  503  502  0.00000000000E+00  0.00000000000E+00  0.14943895393E+03  0.14943895393E+03  0.00000000000E+00 0.  1.
         21   -1    0    0  501  503 -0.00000000000E+00 -0.00000000000E+00 -0.34709963857E+03  0.34709963857E+03  0.00000000000E+00 0. -1.
          6    2    1    2  501    0 -0.11962365369E+03 -0.70524991458E+01 -0.17710507795E+03  0.28624192910E+03  0.19028577738E+03 0.  0.
         24    2    3    3    0    0 -0.12480032966E+02 -0.45727946414E+02 -0.25166436427E+02  0.96286706824E+02  0.79943630656E+02 0.  0.
         -6    2    1    2    0  502  0.11962365369E+03  0.70524991458E+01 -0.20555606691E+02  0.21029666339E+03  0.17158845358E+03 0.  0.
        -24    2    5    5    0    0  0.26716921168E+02 -0.42112008713E+01 -0.50186364330E+02  0.11201846803E+03  0.96425815662E+02 0.  0.
          5    1    3    3  501    0 -0.10714362072E+03  0.38675447269E+02 -0.15193864152E+03  0.18995522227E+03  0.47000000000E+01 0. -1.
        -13    1    4    4    0    0  0.22796035992E+01 -0.11630296559E+02  0.28584515153E+02  0.30944060773E+02  0.00000000000E+00 0.  1.
         14    1    4    4    0    0 -0.14759636565E+02 -0.34097649856E+02 -0.53750951580E+02  0.65342646051E+02  0.00000000000E+00 0. -1.
         -5    1    5    5    0  502  0.92906732518E+02  0.11263700017E+02  0.29630757638E+02  0.98278195361E+02  0.47000000000E+01 0.  1.
         13    1    6    6    0    0  0.20287259997E+02  0.98665899467E+01 -0.77449850821E+02  0.80668469104E+02  0.00000000000E+00 0. -1.
        -14    1    6    6    0    0  0.64296611710E+01 -0.14077790818E+02  0.27263486492E+02  0.31349998928E+02  0.00000000000E+00 0.  1.
</event>
<event>
12    1  0.8053217E-002  0.1950483E+03  0.7818608E-02  0.1154199E+00
         21   -1    0    0  501  502  0.00000000000E+00  0.00000000000E+00  0.78906721692E+02  0.78906721692E+02  0.00000000000E+00 0.  1.
         21   -1    0    0  502  503 -0.00000000000E+00 -0.00000000000E+00 -0.59135953461E+03  0.59135953461E+03  0.00000000000E+00 0.  1.
         -6    2    1    2    0  503  0.87078134252E+02 -0.18953769764E+02 -0.40236218620E+03  0.44714556418E+03  0.17349922141E+03 0.  0.
        -24    2    3    3    0    0  0.12179864087E+03  0.15048317300E+02 -0.30005808039E+03  0.33378827253E+03  0.79488354511E+02 0.  0.
          6    2    1    2  501    0 -0.87078134252E+02  0.18953769764E+02 -0.11009062672E+03  0.22312069212E+03  0.17239794172E+03 0.  0.
         24    2    5    5    0    0 -0.11674146213E+03  0.19673298404E+02 -0.40227883867E+02  0.14707252593E+03  0.77436668264E+02 0.  0.
          5    1    5    5  501    0  0.29663327880E+02 -0.71952863953E+00 -0.69862742852E+02  0.76048166192E+02  0.47000000000E+01 0. -1.
        -11    1    6    6    0    0 -0.62714068990E+02 -0.26528513554E+02 -0.65448960477E+01  0.68407983050E+02  0.00000000000E+00 0.  1.
         12    1    6    6    0    0 -0.54027393143E+02  0.46201811958E+02 -0.33682987819E+02  0.78664542879E+02  0.00000000000E+00 0. -1.
         -5    1    3    3    0  503 -0.34720506613E+02 -0.34002087065E+02 -0.10230410581E+03  0.11335729165E+03  0.47000000000E+01 0.  1.
         11    1    4    4    0    0  0.37198344368E+00  0.22769523534E+02 -0.30694186885E+02  0.38219401908E+02  0.00000000000E+00 0. -1.
        -12    1    4    4    0    0  0.12142665742E+03 -0.77212062340E+01 -0.26936389351E+03  0.29556887063E+03  0.00000000000E+00 0.  1.
</event>
<event>
12    1  0.8053217E-002  0.2409899E+03  0.7818608E-02  0.1119192E+00
         21   -1    0    0  501  502  0.00000000000E+00  0.00000000000E+00  0.83994766430E+02  0.83994766430E+02  0.00000000000E+00 0.  1.
         21   -1    0    0  502  503 -0.00000000000E+00 -0.00000000000E+00 -0.69060467130E+03  0.69060467130E+03  0.00000000000E+00 0.  1.
         -6    2    1    2    0  503 -0.90555384439E+02 -0.14052218434E+03 -0.29703259188E+03  0.38228039384E+03  0.17309874908E+03 0.  0.
        -24    2    3    3    0    0 -0.54274325431E+02 -0.10148737752E+03 -0.85562162636E+02  0.16414771900E+03  0.79863632408E+02 0.  0.
          6    2    1    2  501    0  0.90555384439E+02  0.14052218434E+03 -0.30957731299E+03  0.39231904389E+03  0.17357810213E+03 0.  0.
         24    2    5    5    0    0  0.70562568698E+02  0.13892328544E+03 -0.32325624981E+03  0.36759107448E+03  0.79685881154E+02 0.  0.
          5    1    5    5  501    0  0.19992815741E+02  0.15988988945E+01  0.13678936819E+02  0.24727969415E+02  0.47000000000E+01 0. -1.
        -13    1    6    6    0    0  0.35867843289E+02  0.61478341359E+02 -0.67384773863E+02  0.98014266242E+02  0.00000000000E+00 0.  1.
         14    1    6    6    0    0  0.34694725410E+02  0.77444944084E+02 -0.25587147595E+03  0.26957680824E+03  0.00000000000E+00 0. -1.
         -5    1    3    3    0  503 -0.36281059008E+02 -0.39034806813E+02 -0.21147042924E+03  0.21813267483E+03  0.47000000000E+01 0.  1.
         13    1    4    4    0    0  0.11845265739E+02  0.51642849030E+01 -0.16354877192E+02  0.20843756066E+02  0.00000000000E+00 0. -1.
        -14    1    4    4    0    0 -0.66119591170E+02 -0.10665166243E+03 -0.69207285444E+02  0.14330396294E+03  0.00000000000E+00 0.  1.
</event>
<event>
12    1  0.8053217E-002  0.1966258E+03  0.7818608E-02  0.1152659E+00
         21   -1    0    0  503  502  0.00000000000E+00  0.00000000000E+00  0.10399339689E+03  0.10399339689E+03  0.00000000000E+00 0. -1.
         21   -1    0    0  501  503 -0.00000000000E+00 -0.00000000000E+00 -0.70029816843E+03  0.70029816843E+03  0.00000000000E+00 0. -1.
          6    2    1    2  501    0  0.33306884955E+02  0.89210039137E+02 -0.22482541725E+02  0.19771620205E+03  0.17180934841E+03 0.  0.
         24    2    3    3    0    0  0.62126007776E+01  0.12599007150E+03 -0.21232649353E+02  0.15177577055E+03  0.81688215815E+02 0.  0.
         -6    2    1    2    0  502 -0.33306884955E+02 -0.89210039137E+02 -0.57382222981E+03  0.60657536327E+03  0.17202889360E+03 0.  0.
        -24    2    5    5    0    0  0.45243241872E+02 -0.54987303532E+02 -0.26447196641E+03  0.28554422222E+03  0.80743590103E+02 0.  0.
          5    1    3    3  501    0  0.27094284177E+02 -0.36780032361E+02 -0.12498923727E+01  0.45940431501E+02  0.47000000000E+01 0. -1.
        -11    1    4    4    0    0  0.15937619891E+02  0.11454508515E+03 -0.44639593638E+02  0.12396482396E+03  0.00000000000E+00 0.  1.
         12    1    4    4    0    0 -0.97250191133E+01  0.11444986345E+02  0.23406944285E+02  0.27810946585E+02  0.00000000000E+00 0. -1.
         -5    1    5    5    0  502 -0.78550126827E+02 -0.34222735605E+02 -0.30935026340E+03  0.32103114105E+03  0.47000000000E+01 0.  1.
         11    1    6    6    0    0 -0.16129654240E+01 -0.27203146611E+02 -0.19676798176E+03  0.19864604574E+03  0.00000000000E+00 0. -1.
        -12    1    6    6    0    0  0.46856207296E+02 -0.27784156921E+02 -0.67703984648E+02  0.86898176478E+02  0.00000000000E+00 0.  1.
</event>
<event>
12    1  0.8053217E-002  0.2019555E+03  0.7818608E-02  0.1148336E+00
         21   -1    0    0  503  502  0.00000000000E+00  0.00000000000E+00  0.19605326368E+03  0.19605326368E+03  0.00000000000E+00 0.  1.
         21   -1    0    0  501  503 -0.00000000000E+00 -0.00000000000E+00 -0.20877961487E+03  0.20877961487E+03  0.00000000000E+00 0. -1.
          6    2    1    2  501    0 -0.55465976623E+02 -0.89828320221E+02 -0.25690409851E+02  0.20246167998E+03  0.17083656817E+03 0.  0.
         24    2    3    3    0    0 -0.52782535416E+02 -0.56245713325E+02  0.48160976778E+02  0.12115294951E+03  0.80056112690E+02 0.  0.
         -6    2    1    2    0  502  0.55465976623E+02  0.89828320221E+02  0.12964058659E+02  0.20237119857E+03  0.17216397276E+03 0.  0.
        -24    2    5    5    0    0 -0.35801261691E+02  0.55676553689E+02  0.12783642032E+02  0.10481006647E+03  0.80250355513E+02 0.  0.
          5    1    3    3  501    0 -0.26834412067E+01 -0.33582606895E+02 -0.73851386629E+02  0.81308730464E+02  0.47000000000E+01 0. -1.
        -13    1    4    4    0    0 -0.19436121071E+01 -0.34872579683E+02  0.55441163919E+02  0.65525545388E+02  0.00000000000E+00 0.  1.
         14    1    4    4    0    0 -0.50838923309E+02 -0.21373133643E+02 -0.72801871402E+01  0.55627404125E+02  0.00000000000E+00 0. -1.
         -5    1    5    5    0  502  0.91267238314E+02  0.34151766532E+02  0.18041662731E+00  0.97561132101E+02  0.47000000000E+01 0.  1.
         11    1    6    6    0    0 -0.13856021839E+02 -0.15965197006E+02 -0.13869496493E+02  0.25283191840E+02  0.00000000000E+00 0. -1.
        -12    1    6    6    0    0 -0.21945239852E+02  0.71641750695E+02  0.26653138525E+02  0.79526874628E+02  0.00000000000E+00 0.  1.
</event>
<event>
12    1  0.8053217E-002  0.1846514E+03  0.7818608E-02  0.1164237E+00
         21   -1    0    0  503  502  0.00000000000E+00  0.00000000000E+00  0.10745110235E+04  0.10745110235E+04  0.00000000000E+00 0.  1.
         21   -1    0    0  501  503 -0.00000000000E+00 -0.00000000000E+00 -0.45830435978E+02  0.45830435978E+02  0.00000000000E+00 0.  1.
          6    2    1    2  501    0  0.26929243843E+01 -0.51357652282E+02  0.19339877252E+03  0.26489313174E+03  0.17355237175E+03 0.  0.
         24    2    3    3    0    0 -0.36588316508E+02  0.25585305187E+01  0.37852548738E+02  0.95580732937E+02  0.79734622840E+02 0.  0.
         -6    2    1    2    0  502 -0.26929243843E+01  0.51357652282E+02  0.83528181495E+03  0.85544832769E+03  0.17734506104E+03 0.  0.
        -24    2    5    5    0    0 -0.57061756262E+01 -0.43586644951E+02  0.36447445645E+03  0.37513055987E+03  0.77129446331E+02 0.  0.
          5    1    3    3  501    0  0.39281240892E+02 -0.53916182801E+02  0.15554622379E+03  0.16931239880E+03  0.47000000000E+01 0. -1.
        -13    1    4    4    0    0  0.79843020110E+01 -0.24667591451E+02 -0.68670720167E+01  0.26821555225E+02  0.00000000000E+00 0.  1.
         14    1    4    4    0    0 -0.44572618519E+02  0.27226121970E+02  0.44719620754E+02  0.68759177712E+02  0.00000000000E+00 0. -1.
         -5    1    5    5    0  502  0.30132512418E+01  0.94944297233E+02  0.47080735851E+03  0.48031776782E+03  0.47000000000E+01 0.  1.
         13    1    6    6    0    0 -0.40922719251E+02 -0.20186104001E+02  0.21512804368E+03  0.21991412625E+03  0.00000000000E+00 0. -1.
        -14    1    6    6    0    0  0.35216543625E+02 -0.23400540949E+02  0.14934641277E+03  0.15521643363E+03  0.00000000000E+00 0.  1.
</event>
<event>
12    1  0.8053217E-002  0.1934485E+03  0.7818608E-02  0.1155566E+00
         21   -1    0    0  501  502  0.00000000000E+00  0.00000000000E+00  0.64582968341E+03  0.64582968341E+03  0.00000000000E+00 0.  1.
         21   -1    0    0  502  503 -0.00000000000E+00 -0.00000000000E+00 -0.62448314170E+02  0.62448314170E+02  0.00000000000E+00 0.  1.
         -6    2    1    2    0  503 -0.36168874988E+02  0.78972883935E+02  0.19349079611E+03  0.27303441350E+03  0.17194242890E+03 0.  0.
        -24    2    3    3    0    0 -0.58113753161E+02 -0.65635937425E+01  0.72382315276E+02  0.12307634995E+03  0.80549980032E+02 0.  0.
          6    2    1    2  501    0  0.36168874988E+02 -0.78972883935E+02  0.38989057313E+03  0.43524358409E+03  0.17285084483E+03 0.  0.
         24    2    5    5    0    0  0.29225186606E+02  0.13270884542E+01  0.30888626047E+03  0.32087536716E+03  0.81819353737E+02 0.  0.
          5    1    5    5  501    0  0.69436883814E+01 -0.80299972390E+02  0.81004312658E+02  0.11436821693E+03  0.47000000000E+01 0. -1.
        -11    1    6    6    0    0  0.10880673341E+02 -0.24800146299E+02  0.26618835748E+03  0.26756247488E+03  0.00000000000E+00 0.  1.
         12    1    6    6    0    0  0.18344513265E+02  0.26127234753E+02  0.42697902991E+02  0.53312892274E+02  0.00000000000E+00 0. -1.
         -5    1    3    3    0  503  0.21944878173E+02  0.85536477678E+02  0.12110848084E+03  0.14995806355E+03  0.47000000000E+01 0.  1.
         11    1    4    4    0    0  0.17243937000E+02  0.12681613799E+02  0.20082657693E+02  0.29351147027E+02  0.00000000000E+00 0. -1.
        -12    1    4    4    0    0 -0.75357690161E+02 -0.19245207541E+02  0.52299657583E+02  0.93725202923E+02  0.00000000000E+00 0.  1.
</event>
<event>
12    1  0.8053217E-002  0.2264831E+03  0.7818608E-02  0.1129273E+00
         21   -1    0    0  501  502  0.00000000000E+00  0.00000000000E+00  0.18065150991E+03  0.18065150991E+03  0.00000000000E+00 0.  1.
         21   -1    0    0  502  503 -0.00000000000E+00 -0.00000000000E+00 -0.40456318275E+03  0.40456318275E+03  0.00000000000E+00 0.  1.
         -6    2    1    2    0  503 -0.43583990617E+02  0.14060560482E+03 -0.27247243215E+03  0.35431034375E+03  0.17211941512E+03 0.  0.
        -24    2    3    3    0    0  0.11862451370E+02  0.78193142379E+02 -0.23499932787E+03  0.26268094376E+03  0.86727785920E+02 0.  0.
          6    2    1    2  501    0  0.43583990617E+02 -0.14060560482E+03  0.48560759323E+02  0.23090434891E+03  0.17114079190E+03 0.  0.
         24    2    5    5    0    0  0.18796208386E+02 -0.14575331080E+03  0.84028613676E+02  0.18707522940E+03  0.79617890437E+02 0.  0.
          5    1    5    5  501    0  0.24787782231E+02  0.51477059810E+01 -0.35467854353E+02  0.43829119512E+02  0.47000000000E+01 0. -1.
        -13    1    6    6    0    0  0.47406989261E+02 -0.94121605850E+02  0.37311605923E+02  0.11179649035E+03  0.00000000000E+00 0.  1.
         14    1    6    6    0    0 -0.28610780875E+02 -0.51631704954E+02  0.46717007753E+02  0.75278739044E+02  0.00000000000E+00 0. -1.
         -5    1    3    3    0  503 -0.55446441986E+02  0.62412462444E+02 -0.37473104285E+02  0.91629399987E+02  0.47000000000E+01 0.  1.
         11    1    4    4    0    0 -0.24360786672E+02  0.70894482003E+01 -0.17012810626E+02  0.30547404611E+02  0.00000000000E+00 0. -1.
        -12    1    4    4    0    0  0.36223238042E+02  0.71103694178E+02 -0.21798651724E+03  0.23213353915E+03  0.00000000000E+00 0.  1.
</event>
<event>
12    1  0.8053217E-002  0.2851261E+03  0.7818608E-02  0.1092989E+00
         21   -1    0    0  501  502  0.00000000000E+00  0.00000000000E+00  0.12105862043E+03  0.12105862043E+03  0.00000000000E+00 0.  1.
         21   -1    0    0  502  503 -0.00000000000E+00 -0.00000000000E+00 -0.67120812001E+03  0.67120812001E+03  0.00000000000E+00 0. -1.
         -6    2    1    2    0  503 -0.12988308223E+03 -0.18716435981E+03 -0.26073131169E+03  0.38599123476E+03  0.17061155818E+03 0.  0.
        -24    2    3    3    0    0 -0.79467798254E+02 -0.71711801560E+02 -0.53860848472E+02  0.14373419644E+03  0.79377671832E+02 0.  0.
          6    2    1    2  501    0  0.12988308223E+03  0.18716435981E+03 -0.28941818790E+03  0.40627550568E+03  0.17145491069E+03 0.  0.
         24    2    5    5    0    0  0.93048468422E+01  0.45906185203E+02 -0.53718581733E+02  0.10615989948E+03  0.78678333860E+02 0.  0.
          5    1    5    5  501    0  0.12057823539E+03  0.14125817460E+03 -0.23569960617E+03  0.30011560621E+03  0.47000000000E+01 0. -1.
        -11    1    6    6    0    0  0.12946486730E+01  0.49803501414E+02  0.18765236308E+01  0.49855653734E+02  0.00000000000E+00 0.  1.
         12    1    6    6    0    0  0.80101981692E+01 -0.38973162109E+01 -0.55595105364E+02  0.56304245744E+02  0.00000000000E+00 0. -1.
         -5    1    3    3    0  503 -0.50415283974E+02 -0.11545255825E+03 -0.20687046321E+03  0.24225703832E+03  0.47000000000E+01 0.  1.
         13    1    4    4    0    0 -0.59048586974E+01 -0.17783062136E+02 -0.48921892981E+02  0.52387558332E+02  0.00000000000E+00 0. -1.
        -14    1    4    4    0    0 -0.73562939557E+02 -0.53928739424E+02 -0.49389554916E+01  0.91346638107E+02  0.00000000000E+00 0.  1.
</event>
<event>
12    1  0.8053217E-002  0.2309640E+03  0.7818608E-02  0.1126101E+00
         21   -1    0    0  501  502  0.00000000000E+00  0.00000000000E+00  0.26428941194E+03  0.26428941194E+03  0.00000000000E+00 0. -1.
         21   -1    0    0  502  503 -0.00000000000E+00 -0.00000000000E+00 -0.48799049518E+03  0.48799049518E+03  0.00000000000E+00 0. -1.
         -6    2    1    2    0  503  0.56133114001E+02  0.14262575311E+03 -0.40014962852E+03  0.46162816464E+03  0.17172013641E+03 0.  0.
        -24    2    3    3    0    0  0.94287065987E+01  0.50474907748E+01 -0.18378045623E+03  0.20096211650E+03  0.80598625948E+02 0.  0.
          6    2    1    2  501    0 -0.56133114001E+02 -0.14262575311E+03  0.17644854528E+03  0.29065174248E+03  0.17277532908E+03 0.  0.
         24    2    5    5    0    0 -0.10294539763E+02 -0.15473613203E+01  0.81538888965E+02  0.11448642132E+03  0.79688006487E+02 0.  0.
          5    1    5    5  501    0 -0.45838574239E+02 -0.14107839178E+03  0.94909656314E+02  0.17616532116E+03  0.47000000000E+01 0. -1.
        -11    1    6    6    0    0  0.23657277195E+02 -0.12337706556E+02  0.73182056216E+02  0.77894153307E+02  0.00000000000E+00 0.  1.
         12    1    6    6    0    0 -0.33951816957E+02  0.10790345236E+02  0.83568327484E+01  0.36592268017E+02  0.00000000000E+00 0. -1.
         -5    1    3    3    0  503  0.46704407403E+02  0.13757826233E+03 -0.21636917228E+03  0.26066604814E+03  0.47000000000E+01 0.  1.
         13    1    4    4    0    0  0.15472934724E+02  0.32812240711E+02 -0.15953903043E+03  0.16361160436E+03  0.00000000000E+00 0. -1.
        -14    1    4    4    0    0 -0.60442281249E+01 -0.27764749936E+02 -0.24241425803E+02  0.37350512146E+02  0.00000000000E+00 0.  1.
</event>
<event>
12    1  0.8053217E-002  0.2358143E+03  0.7818608E-02  0.1123128E+00
         21   -1    0    0  503  502  0.00000000000E+00  0.00000000000E+00  0.14604355629E+03  0.14604355629E+03  0.00000000000E+00 0. -1.
         21   -1    0    0  501  503 -0.00000000000E+00 -0.00000000000E+00 -0.60591314686E+03  0.60591314686E+03  0.00000000000E+00 0.  1.
          6    2    1    2  501    0  0.10786939033E+02 -0.15567093887E+03  0.26096355968E+01  0.23282721542E+03  0.17277703198E+03 0.  0.
         24    2    3    3    0    0  0.50363494786E+02 -0.50132977781E+02 -0.40245402630E+02  0.11214909272E+03  0.76863056778E+02 0.  0.
         -6    2    1    2    0  502 -0.10786939033E+02  0.15567093887E+03 -0.46247922616E+03  0.51912948773E+03  0.17680099305E+03 0.  0.
        -24    2    5    5    0    0 -0.59333822551E+02  0.67864602305E+02 -0.34054308267E+03  0.36115080016E+03  0.79587703528E+02 0.  0.
          5    1    3    3  501    0 -0.39576555753E+02 -0.10553796109E+03  0.42855038227E+02  0.12067812269E+03  0.47000000000E+01 0. -1.
        -13    1    4    4    0    0 -0.15148892288E+02 -0.13095509584E+02 -0.30183988821E+02  0.36222292721E+02  0.00000000000E+00 0.  1.
         14    1    4    4    0    0  0.65512387074E+02 -0.37037468198E+02 -0.10061413810E+02  0.75926800002E+02  0.00000000000E+00 0. -1.
         -5    1    5    5    0  502  0.48546883517E+02  0.87806336563E+02 -0.12193614349E+03  0.15797868758E+03  0.47000000000E+01 0.  1.
         13    1    6    6    0    0 -0.63441603264E+02  0.23215019329E+02 -0.13729100639E+03  0.15301174655E+03  0.00000000000E+00 0. -1.
        -14    1    6    6    0    0  0.41077807128E+01  0.44649582976E+02 -0.20325207629E+03  0.20813905361E+03  0.00000000000E+00 0.  1.
</event>
<event>
12    1  0.8053217E-002  0.2018791E+03  0.7818608E-02  0.1149165E+00
         21   -1    0    0  501  502  0.00000000000E+00  0.00000000000E+00  0.93216249979E+03  0.93216249979E+03  0.00000000000E+00 0.  1.
         21   -1    0    0  502  503 -0.00000000000E+00 -0.00000000000E+00 -0.42716678166E+02  0.42716678166E+02  0.00000000000E+00 0. -1.
         -6    2    1    2    0  503  0.10240322794E+03 -0.19461510152E+02  0.45986071464E+03  0.50222212332E+03  0.17288728354E+03 0.  0.
        -24    2    3    3    0    0  0.41338044834E+02  0.23190519256E+02  0.38917719680E+03  0.39942911823E+03  0.76407433193E+02 0.  0.
          6    2    1    2  501    0 -0.10240322794E+03  0.19461510152E+02  0.42958510699E+03  0.47265705464E+03  0.16732051782E+03 0.  0.
         24    2    5    5    0    0  0.10714538337E+02  0.20478280312E+02  0.13212294984E+03  0.15437653716E+03  0.76429575793E+02 0.  0.
          5    1    5    5  501    0 -0.11311776628E+03 -0.10167701603E+01  0.29746215715E+03  0.31828051748E+03  0.47000000000E+01 0. -1.
        -13    1    6    6    0    0 -0.74571944550E+01  0.30289641715E+02  0.12991502214E+03  0.13360757884E+03  0.00000000000E+00 0.  1.
         14    1    6    6    0    0  0.18171732792E+02 -0.98113614031E+01  0.22079276974E+01  0.20768958327E+02  0.00000000000E+00 0. -1.
         -5    1    3    3    0  503  0.61065183111E+02 -0.42652029408E+02  0.70683517839E+02  0.10279300509E+03  0.47000000000E+01 0.  1.
         11    1    4    4    0    0  0.75317314063E+01  0.23096235070E+02  0.29718806758E+02  0.38384508953E+02  0.00000000000E+00 0. -1.
        -12    1    4    4    0    0  0.33806313428E+02  0.94284185957E-01  0.35945839004E+03  0.36104460928E+03  0.00000000000E+00 0.  1.
</event>
<event>
12    1  0.8053217E-002  0.1902095E+03  0.7818608E-02  0.1158498E+00
         21   -1    0    0  503  502  0.00000000000E+00  0.00000000000E+00  0.31626090633E+03  0.31626090633E+03  0.00000000000E+00 0.  1.
         21   -1    0    0  501  503 -0.00000000000E+00 -0.00000000000E+00 -0.18835409438E+03  0.18835409438E+03  0.00000000000E+00 0.  1.
          6    2    1    2  501    0  0.34383220070E+02 -0.72338322627E+02 -0.94684485356E+02  0.21247311242E+03  0.17252429682E+03 0.  0.
         24    2    3    3    0    0  0.30498820527E+02 -0.10372458431E+03 -0.11297500229E+03  0.17563808843E+03  0.79977618880E+02 0.  0.
         -6    2    1    2    0  502 -0.34383220070E+02  0.72338322627E+02  0.22259129731E+03  0.29214188829E+03  0.17142041452E+03 0.  0.
        -24    2    5    5    0    0 -0.86431617438E+02  0.51443269631E+02  0.18205085776E+03  0.22277866931E+03  0.79818457801E+02 0.  0.
          5    1    3    3  501    0  0.38843995432E+01  0.31386261685E+02  0.18290516935E+02  0.36835023987E+02  0.47000000000E+01 0. -1.
        -13    1    4    4    0    0 -0.22945612600E+02 -0.56328022900E+02 -0.36240948011E+02  0.70800802356E+02  0.00000000000E+00 0.  1.
         14    1    4    4    0    0  0.53444433127E+02 -0.47396561412E+02 -0.76734054279E+02  0.10483728608E+03  0.00000000000E+00 0. -1.
         -5    1    5    5    0  502  0.52048397368E+02  0.20895052996E+02  0.40540439545E+02  0.69363218977E+02  0.47000000000E+01 0.  1.
         11    1    6    6    0    0 -0.47063187245E+02  0.66992834658E+02  0.14503861753E+03  0.16655084528E+03  0.00000000000E+00 0. -1.
        -12    1    6    6    0    0 -0.39368430193E+02 -0.15549565027E+02  0.37012240239E+02  0.56227824037E+02  0.00000000000E+00 0.  1.
</event>
<event>
12    1  0.8053217E-002  0.1749370E+03  0.7818608E-02  0.1172821E+00
         21   -1    0    0  503  502  0.00000000000E+00  0.00000000000E+00  0.13730445161E+04  0.13730445161E+04  0.00000000000E+00 0. -1.
         21   -1    0    0  501  503 -0.00000000000E+00 -0.00000000000E+00 -0.48774025357E+02  0.48774025357E+02  0.00000000000E+00 0. -1.
          6    2    1    2  501    0  0.25650710268E+02  0.17424883146E+02  0.13822184210E+03  0.22295340457E+03  0.17216665613E+03 0.  0.
         24    2    3    3    0    0  0.68603184845E+02  0.21198728677E+02  0.14331854086E+03  0.17928163656E+03  0.80286474489E+02 0.  0.
         -6    2    1    2    0  502 -0.25650710268E+02 -0.17424883146E+02  0.11860486486E+04  0.11988651369E+04  0.17205997218E+03 0.  0.
        -24    2    5    5    0    0 -0.38726700001E+02  0.50972434080E+02  0.81443815292E+03  0.82075718268E+03  0.78961393453E+02 0.  0.
          5    1    3    3  501    0 -0.42952474576E+02 -0.37738455310E+01 -0.50966987564E+01  0.43671768003E+02  0.47000000000E+01 0. -1.
        -13    1    4    4    0    0  0.41309495299E+02 -0.25877274702E+02  0.42303358612E+02  0.64542093998E+02  0.00000000000E+00 0.  1.
         14    1    4    4    0    0  0.27293689546E+02  0.47076003379E+02  0.10101518225E+03  0.11473954256E+03  0.00000000000E+00 0. -1.
         -5    1    5    5    0  502  0.13075989732E+02 -0.68397317226E+02  0.37161049572E+03  0.37810795421E+03  0.47000000000E+01 0.  1.
         13    1    6    6    0    0 -0.12208841319E+02 -0.64991840435E+01  0.49041316690E+03  0.49060816287E+03  0.00000000000E+00 0. -1.
        -14    1    6    6    0    0 -0.26517858682E+02  0.57471618123E+02  0.32402498602E+03  0.33014901981E+03  0.00000000000E+00 0.  1.
</event>
<event>
12    1  0.8053217E-002  0.2465414E+03  0.7818608E-02  0.1116764E+00
         21   -1    0    0  503  502  0.00000000000E+00  0.00000000000E+00  0.11150443676E+04  0.11150443676E+04  0.00000000000E+00 0.  1.
         21   -1    0    0  501  503 -0.00000000000E+00 -0.00000000000E+00 -0.67098352934E+02  0.67098352934E+02  0.00000000000E+00 0. -1.
          6    2    1    2  501    0 -0.15391293640E+03 -0.62035360618E+02  0.25794768539E+03  0.35681883057E+03  0.18233236545E+03 0.  0.
         24    2    3    3    0    0 -0.10707010484E+03 -0.11506549898E+03  0.18433352491E+03  0.25460542114E+03  0.78364505113E+02 0.  0.
         -6    2    1    2    0  502  0.15391293640E+03  0.62035360618E+02  0.78999832932E+03  0.82532389001E+03  0.17182719557E+03 0.  0.
        -24    2    5    5    0    0  0.14158602295E+03  0.64459997026E+02  0.41220836478E+03  0.44729587654E+03  0.77176240308E+02 0.  0.
          5    1    3    3  501    0 -0.46842831560E+02  0.53030138366E+02  0.73614160480E+02  0.10221340943E+03  0.47000000000E+01 0. -1.
        -13    1    4    4    0    0 -0.40310263620E+02  0.21220278575E+01  0.35518000056E+02  0.53767543028E+02  0.00000000000E+00 0.  1.
         14    1    4    4    0    0 -0.66759841216E+02 -0.11718752684E+03  0.14881552485E+03  0.20083787811E+03  0.00000000000E+00 0. -1.
         -5    1    5    5    0  502  0.12326913441E+02 -0.24246364071E+01  0.37778996454E+03  0.37802801347E+03  0.47000000000E+01 0.  1.
         11    1    6    6    0    0  0.68445139177E+02  0.72398436644E+02  0.22088374655E+03  0.24231364013E+03  0.00000000000E+00 0. -1.
        -12    1    6    6    0    0  0.73140883777E+02 -0.79384396187E+01  0.19132461823E+03  0.20498223641E+03  0.00000000000E+00 0.  1.
</event>
<event>
12    1  0.8053217E-002  0.1781804E+03  0.7818608E-02  0.1169639E+00
         21   -1    0    0  503  502  0.00000000000E+00  0.00000000000E+00  0.45025028405E+03  0.45025028405E+03  0.00000000000E+00 0. -1.
         21   -1    0    0  501  503 -0.00000000000E+00 -0.00000000000E+00 -0.10842831139E+03  0.10842831139E+03  0.00000000000E+00 0. -1.
          6    2    1    2  501    0  0.38842869108E+02  0.25700419010E+02  0.55841286253E+01  0.17826793007E+03  0.17198544235E+03 0.  0.
         24    2    3    3    0    0 -0.95444765583E+01 -0.52098055658E+02  0.10874633465E+02  0.86376595751E+02  0.67359885721E+02 0.  0.
         -6    2    1    2    0  502 -0.38842869108E+02 -0.25700419010E+02  0.33623784404E+03  0.38041066537E+03  0.17171810198E+03 0.  0.
        -24    2    5    5    0    0 -0.45846871276E+02 -0.54860692763E+02  0.33317019864E+03  0.34990037104E+03  0.79474883933E+02 0.  0.
          5    1    3    3  501    0  0.48387345667E+02  0.77798474668E+02 -0.52905048401E+01  0.91891334319E+02  0.47000000000E+01 0. -1.
        -13    1    4    4    0    0  0.22220502407E+02 -0.80372660708E+01  0.20416107098E+02  0.31227644838E+02  0.00000000000E+00 0.  1.
         14    1    4    4    0    0 -0.31764978965E+02 -0.44060789587E+02 -0.95414736322E+01  0.55148950913E+02  0.00000000000E+00 0. -1.
         -5    1    5    5    0  502  0.70040021674E+01  0.29160273753E+02  0.30676453953E+01  0.30510294328E+02  0.47000000000E+01 0.  1.
         13    1    6    6    0    0  0.22044570713E+02 -0.60072313612E+01  0.84827299386E+02  0.87850558608E+02  0.00000000000E+00 0. -1.
        -14    1    6    6    0    0 -0.67891441988E+02 -0.48853461402E+02  0.24834289926E+03  0.26204981244E+03  0.00000000000E+00 0.  1.
</event>
<event>
12    1  0.8053217E-002  0.1971658E+03  0.7818608E-02  0.1152319E+00
         21   -1    0    0  501  502  0.00000000000E+00  0.00000000000E+00  0.60121694444E+02  0.60121694444E+02  0.00000000000E+00 0.  1.
         21   -1    0    0  502  503 -0.00000000000E+00 -0.00000000000E+00 -0.70749260146E+03  0.70749260146E+03  0.00000000000E+00 0.  1.
         -6    2    1    2    0  503  0.10015503512E+02  0.95568728815E+02 -0.43919395886E+03  0.48142047089E+03  0.17216458419E+03 0.  0.
        -24    2    3    3    0    0 -0.19030953880E+02  0.10864973171E+03 -0.20647600226E+03  0.24648527419E+03  0.77173243260E+02 0.  0.
          6    2    1    2  501    0 -0.10015503512E+02 -0.95568728815E+02 -0.20817694815E+03  0.28619382501E+03  0.17127630162E+03 0.  0.
         24    2    5    5    0    0  0.18701839530E+02 -0.12821534292E+03 -0.16357849953E+03  0.22373104550E+03  0.80676652460E+02 0.  0.
          5    1    5    5  501    0 -0.28717343042E+02  0.32646614110E+02 -0.44598448622E+02  0.62462779507E+02  0.47000000000E+01 0. -1.
        -13    1    6    6    0    0  0.48859523371E+02 -0.56873391930E+02 -0.86224930203E+02  0.11426536799E+03  0.00000000000E+00 0.  1.
         14    1    6    6    0    0 -0.30157683841E+02 -0.71341950995E+02 -0.77353569323E+02  0.10946567751E+03  0.00000000000E+00 0. -1.
         -5    1    3    3    0  503  0.29046457392E+02 -0.13081002894E+02 -0.23271795660E+03  0.23493519670E+03  0.47000000000E+01 0.  1.
         13    1    4    4    0    0 -0.39623033309E+02  0.39136663636E+02 -0.53628933781E+02  0.77315753554E+02  0.00000000000E+00 0. -1.
        -14    1    4    4    0    0  0.20592079429E+02  0.69513068074E+02 -0.15284706848E+03  0.16916952064E+03  0.00000000000E+00 0.  1.
</event>
<event>
12    1  0.8053217E-002  0.2046966E+03  0.7818608E-02  0.1149413E+00
         21   -1    0    0  501  502  0.00000000000E+00  0.00000000000E+00  0.31936739048E+03  0.31936739048E+03  0.00000000000E+00 0.  1.
         21   -1    0    0  502  503 -0.00000000000E+00 -0.00000000000E+00 -0.19887126142E+03  0.19887126142E+03  0.00000000000E+00 0.  1.
         -6    2    1    2    0  503 -0.70639511085E+02  0.25173511892E+02 -0.10055112989E+03  0.22805967785E+03  0.19046532680E+03 0.  0.
        -24    2    3    3    0    0 -0.48134947153E+02  0.47096802391E+02 -0.14129875653E+03  0.17639203671E+03  0.81324842969E+02 0.  0.
          6    2    1    2  501    0  0.70639511085E+02 -0.25173511892E+02  0.22104725895E+03  0.29017897404E+03  0.17238996508E+03 0.  0.
         24    2    5    5    0    0  0.69676923562E+02  0.35716242316E+02  0.83958095542E+02  0.14009893718E+03  0.80300851484E+02 0.  0.
          5    1    5    5  501    0  0.96258752271E+00 -0.60889754208E+02  0.13708916341E+03  0.15008003687E+03  0.47000000000E+01 0. -1.
        -13    1    6    6    0    0  0.27264206153E+02  0.14786271451E+02  0.87338713747E+02  0.92682369842E+02  0.00000000000E+00 0.  1.
         14    1    6    6    0    0  0.42412717409E+02  0.20929970865E+02 -0.33806182053E+01  0.47416567335E+02  0.00000000000E+00 0. -1.
         -5    1    3    3    0  503 -0.22504563932E+02 -0.21923290499E+02  0.40747626645E+02  0.51667641143E+02  0.47000000000E+01 0.  1.
         13    1    4    4    0    0 -0.32168016937E+02 -0.16588318721E+02 -0.29296736378E+02  0.46564497142E+02  0.00000000000E+00 0. -1.
        -14    1    4    4    0    0 -0.15966930216E+02  0.63685121112E+02 -0.11200202016E+03  0.12982753957E+03  0.00000000000E+00 0.  1.
</event>
<event>
12    1  0.8053217E-002  0.1983436E+03  0.7818608E-02  0.1152397E+00
         21   -1    0    0  501  502  0.00000000000E+00  0.00000000000E+00  0.17578192126E+03  0.17578192126E+03  0.00000000000E+00 0.  1.
         21   -1    0    0  502  503 -0.00000000000E+00 -0.00000000000E+00 -0.33097756041E+03  0.33097756041E+03  0.00000000000E+00 0.  1.
         -6    2    1    2    0  503  0.17358071244E+02 -0.97282649493E+02 -0.22681961767E+03  0.30130937952E+03  0.17197379654E+03 0.  0.
        -24    2    3    3    0    0  0.98731963136E+01 -0.73668715550E+01 -0.18417498225E+03  0.20140179520E+03  0.80563690464E+02 0.  0.
          6    2    1    2  501    0 -0.17358071244E+02  0.97282649493E+02  0.71623978523E+02  0.20545010215E+03  0.16527109138E+03 0.  0.
         24    2    5    5    0    0  0.36803787954E+02  0.10099752638E+03  0.67048132882E+02  0.15076614047E+03  0.81731009083E+02 0.  0.
          5    1    5    5  501    0 -0.54161859199E+02 -0.37148768864E+01  0.45758456405E+01  0.54683961684E+02  0.47000000000E+01 0. -1.
        -11    1    6    6    0    0 -0.18850341970E+02  0.42748928677E+02  0.12314553161E+01  0.46736739057E+02  0.00000000000E+00 0.  1.
         12    1    6    6    0    0  0.55654129925E+02  0.58248597702E+02  0.65816677566E+02  0.10402940141E+03  0.00000000000E+00 0. -1.
         -5    1    3    3    0  503  0.74848749307E+01 -0.89915777938E+02 -0.42644635422E+02  0.99907584323E+02  0.47000000000E+01 0.  1.
         11    1    4    4    0    0 -0.98037158771E+01 -0.37154219084E+02 -0.53054215623E+02  0.65508004367E+02  0.00000000000E+00 0. -1.
        -12    1    4    4    0    0  0.19676912191E+02  0.29787347530E+02 -0.13112076662E+03  0.13589379083E+03  0.00000000000E+00 0.  1.
</event>
<event>
12    1  0.8053217E-002  0.2655004E+03  0.7818608E-02  0.1105884E+00
         21   -1    0    0  503  502  0.00000000000E+00  0.00000000000E+00  0.11476436180E+04  0.11476436180E+04  0.00000000000E+00 0.  1.
         21   -1    0    0  501  503 -0.00000000000E+00 -0.00000000000E+00 -0.63269820372E+02  0.63269820372E+02  0.00000000000E+00 0.  1.
          6    2    1    2  501    0 -0.63455044030E+02 -0.17294847649E+03  0.36105006133E+03  0.44040213188E+03  0.17221838705E+03 0.  0.
         24    2    3    3    0    0 -0.30287564156E+02 -0.19083499914E+03  0.26298589004E+03  0.33524186797E+03  0.76747626937E+02 0.  0.
         -6    2    1    2    0  502  0.63455044030E+02  0.17294847649E+03  0.72332373634E+03  0.77051130654E+03  0.19118767695E+03 0.  0.
        -24    2    5    5    0    0  0.58633793706E+02  0.33086896488E+02  0.46391215446E+03  0.47572161060E+03  0.81017894671E+02 0.  0.
          5    1    3    3  501    0 -0.33167479874E+02  0.17886522648E+02  0.98064171294E+02  0.10516026391E+03  0.47000000000E+01 0. -1.
        -13    1    4    4    0    0  0.24353496812E+02 -0.77428879533E+02  0.11816634552E+03  0.14335832521E+03  0.00000000000E+00 0.  1.
         14    1    4    4    0    0 -0.54641060968E+02 -0.11340611961E+03  0.14481954452E+03  0.19188354276E+03  0.00000000000E+00 0. -1.
         -5    1    5    5    0  502  0.48212503231E+01  0.13986158001E+03  0.25941158188E+03  0.29478969594E+03  0.47000000000E+01 0.  1.
         13    1    6    6    0    0  0.61392961920E+02  0.42017750814E+02  0.23232036345E+03  0.24394126020E+03  0.00000000000E+00 0. -1.
        -14    1    6    6    0    0 -0.27591682134E+01 -0.89308543258E+01  0.23159179101E+03  0.23178035040E+03  0.00000000000E+00 0.  1.
</event>
<event>
12    1  0.8053217E-002  0.1739938E+03  0.7818608E-02  0.1174002E+00
         21   -1    0    0  501  502  0.00000000000E+00  0.00000000000E+00  0.10311748770E+03  0.10311748770E+03  0.00000000000E+00 0. -1.
         21   -1    0    0  502  503 -0.00000000000E+00 -0.00000000000E+00 -0.30061976902E+03  0.30061976902E+03  0.00000000000E+00 0. -1.
         -6    2    1    2    0  503 -0.29098545692E+02 -0.97646792332E+01 -0.64057210618E+02  0.18446247853E+03  0.17023808455E+03 0.  0.
        -24    2    3    3    0    0 -0.47477422899E+02 -0.44545329089E+02 -0.89987128607E+02  0.13711348299E+03  0.80399203191E+02 0.  0.
          6    2    1    2  501    0  0.29098545692E+02  0.97646792332E+01 -0.13344507070E+03  0.21927477819E+03  0.17126519534E+03 0.  0.
         24    2    5    5    0    0 -0.19361848169E+02 -0.47483229942E+02 -0.42607427367E+02  0.10137948429E+03  0.76373219640E+02 0.  0.
          5    1    5    5  501    0  0.48460393861E+02  0.57247909175E+02 -0.90837643329E+02  0.11789529390E+03  0.47000000000E+01 0. -1.
        -13    1    6    6    0    0  0.16888295391E+02 -0.52219074213E+02 -0.30950708977E+02  0.63007877436E+02  0.00000000000E+00 0.  1.
         14    1    6    6    0    0 -0.36250143560E+02  0.47358442710E+01 -0.11656718391E+02  0.38371606856E+02  0.00000000000E+00 0. -1.
         -5    1    3    3    0  503  0.18378877207E+02  0.34780649856E+02  0.25929917990E+02  0.47348995541E+02  0.47000000000E+01 0.  1.
         13    1    4    4    0    0  0.31567876497E+01 -0.49416013664E+02 -0.60993628422E+02  0.78562907423E+02  0.00000000000E+00 0. -1.
        -14    1    4    4    0    0 -0.50634210549E+02  0.48706845749E+01 -0.28993500185E+02  0.58550575566E+02  0.00000000000E+00 0.  1.
</event>
<event>
12    1  0.8053217E-002  0.4387913E+03  0.7818608E-02  0.1031144E+00
         21   -1    0    0  501  502  0.00000000000E+00  0.00000000000E+00  0.32248010409E+03  0.32248010409E+03  0.00000000000E+00 0.  1.
         21   -1    0    0  502  503 -0.00000000000E+00 -0.00000000000E+00 -0.13616958985E+04  0.13616958985E+04  0.00000000000E+00 0. -1.
         -6    2    1    2    0  503  0.19364690516E+03  0.35401901461E+03 -0.11509073293E+04  0.12317164726E+04  0.17236357375E+03 0.  0.
        -24    2    3    3    0    0  0.13212979211E+03  0.11957628554E+03 -0.55226759765E+03  0.58585320009E+03  0.80422028199E+02 0.  0.
          6    2    1    2  501    0 -0.19364690516E+03 -0.35401901461E+03  0.11169153491E+03  0.45245953001E+03  0.17151105138E+03 0.  0.
         24    2    5    5    0    0 -0.13582645004E+03 -0.33497567704E+03  0.12381313689E+03  0.39021102022E+03  0.79230162805E+02 0.  0.
          5    1    5    5  501    0 -0.57820455121E+02 -0.19043337567E+02 -0.12121601983E+02  0.62248509787E+02  0.47000000000E+01 0. -1.
        -13    1    6    6    0    0 -0.61851789312E+02 -0.83933751582E+02  0.61974453944E+02  0.12129036004E+03  0.00000000000E+00 0.  1.
         14    1    6    6    0    0 -0.73974660725E+02 -0.25104192546E+03  0.61838682947E+02  0.26892066019E+03  0.00000000000E+00 0. -1.
         -5    1    3    3    0  503  0.61517113052E+02  0.23444272907E+03 -0.59863973167E+03  0.64586327249E+03  0.47000000000E+01 0.  1.
         13    1    4    4    0    0  0.52145082941E+02  0.97959224209E+02 -0.27755396321E+03  0.29891691450E+03  0.00000000000E+00 0. -1.
        -14    1    4    4    0    0  0.79984709165E+02  0.21617061330E+02 -0.27471363444E+03  0.28693628559E+03  0.00000000000E+00 0.  1.
</event>
<event>
12    1  0.8053217E-002  0.1943466E+03  0.7818608E-02  0.1154732E+00
         21   -1    0    0  501  502  0.00000000000E+00  0.00000000000E+00  0.85400352203E+02  0.85400352203E+02  0.00000000000E+00 0.  1.
         21   -1    0    0  502  503 -0.00000000000E+00 -0.00000000000E+00 -0.46744834739E+03  0.46744834739E+03  0.00000000000E+00 0.  1.
         -6    2    1    2    0  503  0.36362107839E+02 -0.81552567859E+02 -0.25662332133E+03  0.32154380946E+03  0.17193565115E+03 0.  0.
        -24    2    3    3    0    0 -0.29364490426E+02 -0.77956953314E+02 -0.21223423848E+03  0.24201145855E+03  0.81157958447E+02 0.  0.
          6    2    1    2  501    0 -0.36362107839E+02  0.81552567859E+02 -0.12542467385E+03  0.23130489014E+03  0.17261975316E+03 0.  0.
         24    2    5    5    0    0 -0.37176430440E+02  0.85230844363E+02 -0.18715223462E+02  0.12442556734E+03  0.80529984522E+02 0.  0.
          5    1    5    5  501    0  0.81432260029E+00 -0.36782765044E+01 -0.10670945039E+03  0.10687932280E+03  0.47000000000E+01 0. -1.
        -13    1    6    6    0    0  0.46661598837E+01  0.31793021030E+02 -0.41811380445E+02  0.52732919215E+02  0.00000000000E+00 0.  1.
         14    1    6    6    0    0 -0.41842590323E+02  0.53437823333E+02  0.23096156983E+02  0.71692648123E+02  0.00000000000E+00 0. -1.
         -5    1    3    3    0  503  0.65726598266E+02 -0.35956145444E+01 -0.44389082853E+02  0.79532350902E+02  0.47000000000E+01 0.  1.
         13    1    4    4    0    0 -0.61420243319E+01  0.16417619958E+02 -0.19923335141E+02  0.26536804463E+02  0.00000000000E+00 0. -1.
        -14    1    4    4    0    0 -0.23222466094E+02 -0.94374573272E+02 -0.19231090334E+03  0.21547465409E+03  0.00000000000E+00 0.  1.
</event>
<event>
12    1  0.8053217E-002  0.1978463E+03  0.7818608E-02  0.1151860E+00
         21   -1    0    0  503  502  0.00000000000E+00  0.00000000000E+00  0.69658237302E+03  0.69658237302E+03  0.00000000000E+00 0.  1.
         21   -1    0    0  501  503 -0.00000000000E+00 -0.00000000000E+00 -0.74892087484E+02  0.74892087484E+02  0.00000000000E+00 0. -1.
          6    2    1    2  501    0 -0.85027169618E+02  0.19079497862E+02  0.11692839906E+03  0.22981601411E+03  0.17762179772E+03 0.  0.
         24    2    3    3    0    0  0.21531431470E+01 -0.30027580027E+02  0.10284452614E+03  0.12866089803E+03  0.71206309680E+02 0.  0.
         -6    2    1    2    0  502  0.85027169618E+02 -0.19079497862E+02  0.50476188647E+03  0.54165844639E+03  0.17611264491E+03 0.  0.
        -24    2    5    5    0    0  0.17702830543E+02 -0.60829017692E+02  0.37455610625E+03  0.38917492518E+03  0.84565276889E+02 0.  0.
          5    1    3    3  501    0 -0.87180312765E+02  0.49107077889E+02  0.14083872923E+02  0.10115511608E+03  0.47000000000E+01 0. -1.
        -11    1    4    4    0    0  0.25055828155E+02  0.11660009051E+02  0.52944242637E+02  0.59723053874E+02  0.00000000000E+00 0.  1.
         12    1    4    4    0    0 -0.22902685008E+02 -0.41687589078E+02  0.49900283503E+02  0.68937844160E+02  0.00000000000E+00 0. -1.
         -5    1    5    5    0  502  0.67324339074E+02  0.41749519829E+02  0.13020578022E+03  0.15248352121E+03  0.47000000000E+01 0.  1.
         13    1    6    6    0    0  0.58901421242E+01  0.92105401485E+01  0.36455490808E+01  0.11524662779E+02  0.00000000000E+00 0. -1.
        -14    1    6    6    0    0  0.11812688419E+02 -0.70039557840E+02  0.37091055717E+03  0.37765026240E+03  0.00000000000E+00 0.  1.
</event>
<event>
12    1  0.8053217E-002  0.1810932E+03  0.7818608E-02  0.1167300E+00
         21   -1    0    0  503  502  0.00000000000E+00  0.00000000000E+00  0.40009873353E+03  0.40009873353E+03  0.00000000000E+00 0.  1.
         21   -1    0    0  501  503 -0.00000000000E+00 -0.00000000000E+00 -0.87486166725E+02  0.87486166725E+02  0.00000000000E+00 0.  1.
          6    2    1    2  501    0 -0.40726287762E+02  0.34076328366E+02  0.90526576461E+02  0.20245941314E+03  0.17313268396E+03 0.  0.
         24    2    3    3    0    0 -0.77796225857E+02  0.53416192928E+02  0.27229220191E+02  0.12645378189E+03  0.79646632677E+02 0.  0.
         -6    2    1    2    0  502  0.40726287762E+02 -0.34076328366E+02  0.22208599035E+03  0.28512548712E+03  0.17074697545E+03 0.  0.
        -24    2    5    5    0    0  0.20199627672E+02  0.45997577589E+02  0.14358819735E+03  0.17103268412E+03  0.78171647797E+02 0.  0.
          5    1    3    3  501    0  0.37069938095E+02 -0.19339864562E+02  0.63297356270E+02  0.76005631254E+02  0.47000000000E+01 0. -1.
        -11    1    4    4    0    0 -0.61676441751E+02  0.59144886623E+02  0.49203234032E+02  0.98605574487E+02  0.00000000000E+00 0.  1.
         12    1    4    4    0    0 -0.16119784106E+02 -0.57286936956E+01 -0.21974013841E+02  0.27848207400E+02  0.00000000000E+00 0. -1.
         -5    1    5    5    0  502  0.20526660090E+02 -0.80073905955E+02  0.78497793003E+02  0.11409280300E+03  0.47000000000E+01 0.  1.
         11    1    6    6    0    0 -0.25164362921E+02  0.34356816926E+02  0.45404856075E+02  0.62251401476E+02  0.00000000000E+00 0. -1.
        -12    1    6    6    0    0  0.45363990593E+02  0.11640760663E+02  0.98183341270E+02  0.10878128265E+03  0.00000000000E+00 0.  1.
</event>
<event>
12    1  0.8053217E-002  0.2757708E+03  0.7818608E-02  0.1099356E+00
         21   -1    0    0  503  502  0.00000000000E+00  0.00000000000E+00  0.62054452120E+03  0.62054452120E+03  0.00000000000E+00 0. -1.
         21   -1    0    0  501  503 -0.00000000000E+00 -0.00000000000E+00 -0.12106836016E+03  0.12106836016E+03  0.00000000000E+00 0. -1.
          6    2    1    2  501    0  0.20874411267E+03  0.52604785442E+02  0.19052408337E+03  0.32748616090E+03  0.15686424453E+03 0.  0.
         24    2    3    3    0    0  0.16235843307E+03  0.80889222852E+02  0.10519825336E+03  0.22622299910E+03  0.84893142532E+02 0.  0.
         -6    2    1    2    0  502 -0.20874411267E+03 -0.52604785442E+02  0.30895207768E+03  0.41412672046E+03  0.17236062855E+03 0.  0.
        -24    2    5    5    0    0 -0.20752039103E+03 -0.70308341794E+01  0.21445344922E+03  0.30910023185E+03  0.80240427014E+02 0.  0.
          5    1    3    3  501    0  0.46385679592E+02 -0.28284437409E+02  0.85325830005E+02  0.10126316180E+03  0.47000000000E+01 0. -1.
        -13    1    4    4    0    0  0.10879629324E+03  0.61807661389E+02  0.11328565266E+03  0.16879117136E+03  0.00000000000E+00 0.  1.
         14    1    4    4    0    0  0.53562139832E+02  0.19081561463E+02 -0.80873992932E+01  0.57431827748E+02  0.00000000000E+00 0. -1.
         -5    1    5    5    0  502 -0.12237216367E+01 -0.45573951263E+02  0.94498628463E+02  0.10502648861E+03  0.47000000000E+01 0.  1.
         13    1    6    6    0    0 -0.12396000725E+03  0.32484161592E+02  0.10373770700E+03  0.16487212015E+03  0.00000000000E+00 0. -1.
        -14    1    6    6    0    0 -0.83560383783E+02 -0.39514995771E+02  0.11071574222E+03  0.14422811170E+03  0.00000000000E+00 0.  1.
</event>
<event>
12    1  0.8053217E-002  0.2940068E+03  0.7818608E-02  0.1088294E+00
         21   -1    0    0  503  502  0.00000000000E+00  0.00000000000E+00  0.16837810580E+03  0.16837810580E+03  0.00000000000E+00 0.  1.
         21   -1    0    0  501  503 -0.00000000000E+00 -0.00000000000E+00 -0.66122117812E+03  0.66122117812E+03  0.00000000000E+00 0. -1.
          6    2    1    2  501    0  0.10465682508E+03  0.21318134388E+03 -0.50058558355E+02  0.29809376926E+03  0.17307426034E+03 0.  0.
         24    2    3    3    0    0  0.13072159900E+03  0.20596719547E+03 -0.22164643732E+02  0.25895840354E+03  0.84009292831E+02 0.  0.
         -6    2    1    2    0  502 -0.10465682508E+03 -0.21318134388E+03 -0.44278451396E+03  0.53150551467E+03  0.17332238719E+03 0.  0.
        -24    2    5    5    0    0 -0.11288411976E+03 -0.22873150363E+03 -0.36982273089E+03  0.45630572986E+03  0.79907080845E+02 0.  0.
          5    1    3    3  501    0 -0.26064773916E+02  0.72141484155E+01 -0.27893914623E+02  0.39135365715E+02  0.47000000000E+01 0. -1.
        -13    1    4    4    0    0  0.99541578774E+02  0.14742320103E+03  0.22049031356E+02  0.17924364951E+03  0.00000000000E+00 0.  1.
         14    1    4    4    0    0  0.31180020222E+02  0.58543994440E+02 -0.44213675088E+02  0.79714754034E+02  0.00000000000E+00 0. -1.
         -5    1    5    5    0  502  0.82272946824E+01  0.15550159752E+02 -0.72961783070E+02  0.75199784806E+02  0.47000000000E+01 0.  1.
         13    1    6    6    0    0 -0.29092296766E+02 -0.65736768785E+02 -0.17313994647E+03  0.18747033249E+03  0.00000000000E+00 0. -1.
        -14    1    6    6    0    0 -0.83791822996E+02 -0.16299473485E+03 -0.19668278442E+03  0.26883539737E+03  0.00000000000E+00 0.  1.
</event>
<event>
12    1  0.8053217E-002  0.1803366E+03  0.7818608E-02  0.1170271E+00
         21   -1    0    0  501  502  0.00000000000E+00  0.00000000000E+00  0.11915823070E+03  0.11915823070E+03  0.00000000000E+00 0. -1.
         21   -1    0    0  502  503 -0.00000000000E+00 -0.00000000000E+00 -0.42951498686E+03  0.42951498686E+03  0.00000000000E+00 0. -1.
         -6    2    1    2    0  503  0.28133034053E+02  0.54928716875E+02 -0.32639698158E+03  0.36762470977E+03  0.15749382878E+03 0.  0.
        -24    2    3    3    0    0  0.43972487350E+02  0.78415233168E+02 -0.31373765746E+03  0.33624233867E+03  0.80901570892E+02 0.  0.
          6    2    1    2  501    0 -0.28133034053E+02 -0.54928716875E+02  0.16040225420E+02  0.18104850779E+03  0.16944805044E+03 0.  0.
         24    2    5    5    0    0 -0.54733515918E+00 -0.17971171383E+02  0.71815200299E+02  0.10852424444E+03  0.79352542870E+02 0.  0.
          5    1    5    5  501    0 -0.27585698894E+02 -0.36957545492E+02 -0.55774974879E+02  0.72524263354E+02  0.47000000000E+01 0. -1.
        -13    1    6    6    0    0 -0.25079327928E+02 -0.14865245240E+02 -0.33972623685E+01  0.29351143027E+02  0.00000000000E+00 0.  1.
         14    1    6    6    0    0  0.24531992769E+02 -0.31059261438E+01  0.75212462668E+02  0.79173101410E+02  0.00000000000E+00 0. -1.
         -5    1    3    3    0  503 -0.15839453298E+02 -0.23486516292E+02 -0.12659324122E+02  0.31382371095E+02  0.47000000000E+01 0.  1.
         13    1    4    4    0    0 -0.20091652009E+02  0.17310585610E+01 -0.39150061798E+02  0.44038601056E+02  0.00000000000E+00 0. -1.
        -14    1    4    4    0    0  0.64064139360E+02  0.76684174607E+02 -0.27458759566E+03  0.29220373762E+03  0.00000000000E+00 0.  1.
</event>
<event>
12    1  0.8053217E-002  0.1946517E+03  0.7818608E-02  0.1154482E+00
         21   -1    0    0  501  502  0.00000000000E+00  0.00000000000E+00  0.56030693241E+03  0.56030693241E+03  0.00000000000E+00 0. -1.
         21   -1    0    0  502  503 -0.00000000000E+00 -0.00000000000E+00 -0.13663295452E+03  0.13663295452E+03  0.00000000000E+00 0. -1.
         -6    2    1    2    0  503 -0.90803819520E+02 -0.25650047122E+01 -0.36431678102E+02  0.19735354611E+03  0.17137456668E+03 0.  0.
        -24    2    3    3    0    0 -0.10625336703E+03 -0.31805856988E+02  0.98941785834E+01  0.14024057948E+03  0.85253356638E+02 0.  0.
          6    2    1    2  501    0  0.90803819520E+02  0.25650047122E+01  0.46010565600E+03  0.49958634081E+03  0.17215511715E+03 0.  0.
         24    2    5    5    0    0  0.31306262205E+02 -0.63145090320E+02  0.24744931217E+03  0.26914635625E+03  0.79001357621E+02 0.  0.
          5    1    5    5  501    0  0.59497557315E+02  0.65710095032E+02  0.21265634382E+03  0.23043998456E+03  0.47000000000E+01 0. -1.
        -11    1    6    6    0    0 -0.26143358587E+02 -0.27532297159E+02  0.99103360892E+02  0.10612718184E+03  0.00000000000E+00 0.  1.
         12    1    6    6    0    0  0.57449620792E+02 -0.35612793161E+02  0.14834595128E+03  0.16301917442E+03  0.00000000000E+00 0. -1.
         -5    1    3    3    0  503  0.15449547512E+02  0.29240852276E+02 -0.46325856685E+02  0.57112966634E+02  0.47000000000E+01 0.  1.
         11    1    4    4    0    0 -0.40258650675E+02  0.19528388637E+02 -0.23100768736E+02  0.50356354446E+02  0.00000000000E+00 0. -1.
        -12    1    4    4    0    0 -0.65994716357E+02 -0.51334245625E+02  0.32994947320E+02  0.89884225032E+02  0.00000000000E+00 0.  1.
</event>
<event>
12    1  0.8053217E-002  0.2486060E+03  0.7818608E-02  0.1116737E+00
         21   -1    0    0  503  502  0.00000000000E+00  0.00000000000E+00  0.60336531273E+02  0.60336531273E+02  0.00000000000E+00 0. -1.
         21   -1    0    0  501  503 -0.00000000000E+00 -0.00000000000E+00 -0.15407099409E+04  0.15407099409E+04  0.00000000000E+00 0.  1.
          6    2    1    2  501    0  0.65651675822E+02  0.16407833989E+03 -0.12159868204E+04  0.12381343382E+04  0.15205541048E+03 0.  0.
         24    2    3    3    0    0  0.73535073919E+02  0.12064589833E+03 -0.11281223394E+04  0.11396925687E+04  0.79223094958E+02 0.  0.
         -6    2    1    2    0  502 -0.65651675822E+02 -0.16407833989E+03 -0.26438658926E+03  0.36291213402E+03  0.17485166364E+03 0.  0.
        -24    2    5    5    0    0 -0.11150319959E+03 -0.13762353211E+03 -0.22206607460E+03  0.29497587678E+03  0.79525004152E+02 0.  0.
          5    1    3    3  501    0 -0.78833980967E+01  0.43432441560E+02 -0.87864481019E+02  0.98441769438E+02  0.47000000000E+01 0. -1.
        -11    1    4    4    0    0  0.49544180768E+02  0.11977212166E+03 -0.10498647910E+04  0.10578355573E+04  0.00000000000E+00 0.  1.
         12    1    4    4    0    0  0.23990893151E+02  0.87377666871E+00 -0.78257548401E+02  0.81857011438E+02  0.00000000000E+00 0. -1.
         -5    1    5    5    0  502  0.45851523767E+02 -0.26454807775E+02 -0.42320514661E+02  0.67936257237E+02  0.47000000000E+01 0.  1.
         13    1    6    6    0    0 -0.46507815663E+02 -0.54893202394E+02 -0.34209896637E+02  0.79665284878E+02  0.00000000000E+00 0. -1.
        -14    1    6    6    0    0 -0.64995383926E+02 -0.82730329718E+02 -0.18785617796E+03  0.21531059191E+03  0.00000000000E+00 0.  1.
</event>
<event>
12    1  0.8053217E-002  0.2081307E+03  0.7818608E-02  0.1143384E+00
         21   -1    0    0  503  502  0.00000000000E+00  0.00000000000E+00  0.30781214266E+03  0.30781214266E+03  0.00000000000E+00 0.  1.
         21   -1    0    0  501  503 -0.00000000000E+00 -0.00000000000E+00 -0.15457700930E+03  0.15457700930E+03  0.00000000000E+00 0.  1.
          6    2    1    2  501    0 -0.11495345811E+03 -0.20214608619E+02  0.49865918413E+01  0.20819039050E+03  0.17232366252E+03 0.  0.
         24    2    3    3    0    0 -0.11298842681E+03 -0.69962454363E+02  0.17348201244E+02  0.15667719907E+03  0.81152048710E+02 0.  0.
         -6    2    1    2    0  502  0.11495345811E+03  0.20214608619E+02  0.14824854152E+03  0.25419876146E+03  0.17034216252E+03 0.  0.
        -24    2    5    5    0    0  0.97049184156E+02 -0.46387434154E+02  0.10534399176E+03  0.17283976984E+03  0.84887521136E+02 0.  0.
          5    1    3    3  501    0 -0.19650313015E+01  0.49747845743E+02 -0.12361609402E+02  0.51513191428E+02  0.47000000000E+01 0. -1.
        -11    1    4    4    0    0 -0.96437020227E+02 -0.19331585650E+02  0.28193935406E+02  0.10231669985E+03  0.00000000000E+00 0.  1.
         12    1    4    4    0    0 -0.16551406579E+02 -0.50630868712E+02 -0.10845734163E+02  0.54360499224E+02  0.00000000000E+00 0. -1.
         -5    1    5    5    0  502  0.17904273952E+02  0.66602042773E+02  0.42904549753E+02  0.81358991616E+02  0.47000000000E+01 0.  1.
         11    1    6    6    0    0  0.25838685214E+02 -0.44400647629E+02  0.84016448595E+02  0.98477504019E+02  0.00000000000E+00 0. -1.
        -12    1    6    6    0    0  0.71210498942E+02 -0.19867865251E+01  0.21327543169E+02  0.74362265820E+02  0.00000000000E+00 0.  1.
</event>
<event>
12    1  0.8053217E-002  0.1918338E+03  0.7818608E-02  0.1156863E+00
         21   -1    0    0  501  502  0.00000000000E+00  0.00000000000E+00  0.13752854850E+03  0.13752854850E+03  0.00000000000E+00 0. -1.
         21   -1    0    0  502  503 -0.00000000000E+00 -0.00000000000E+00 -0.26844995795E+03  0.26844995795E+03  0.00000000000E+00 0.  1.
         -6    2    1    2    0  503 -0.80691697908E+02  0.27867449098E+02 -0.52186431545E+02  0.19880547876E+03  0.17179187966E+03 0.  0.
        -24    2    3    3    0    0  0.14493229092E+02 -0.18302450187E+02 -0.25429905680E+02  0.89581710265E+02  0.82662986510E+02 0.  0.
          6    2    1    2  501    0  0.80691697908E+02 -0.27867449098E+02 -0.78734977912E+02  0.20717302769E+03  0.17156258865E+03 0.  0.
         24    2    5    5    0    0  0.44735966023E+02 -0.25086808312E+01 -0.11710392809E+03  0.14860556128E+03  0.79766426108E+02 0.  0.
          5    1    5    5  501    0  0.35955731885E+02 -0.25358768267E+02  0.38368950178E+02  0.58567466405E+02  0.47000000000E+01 0. -1.
        -13    1    6    6    0    0 -0.15658787058E+02 -0.22866239745E+02 -0.37575617262E+02  0.46690358157E+02  0.00000000000E+00 0.  1.
         14    1    6    6    0    0  0.60394753082E+02  0.20357558914E+02 -0.79528310828E+02  0.10191520312E+03  0.00000000000E+00 0. -1.
         -5    1    3    3    0  503 -0.95184927001E+02  0.46169899285E+02 -0.26756525865E+02  0.10922376850E+03  0.47000000000E+01 0.  1.
         11    1    4    4    0    0 -0.11943367919E+02  0.26644113074E+02  0.43679489622E+01  0.29523410658E+02  0.00000000000E+00 0. -1.
        -12    1    4    4    0    0  0.26436597011E+02 -0.44946563260E+02 -0.29797854642E+02  0.60058299608E+02  0.00000000000E+00 0.  1.
</event>
<event>
12    1  0.8053217E-002  0.2157205E+03  0.7818608E-02  0.1138097E+00
         21   -1    0    0  501  502  0.00000000000E+00  0.00000000000E+00  0.39607945223E+02  0.39607945223E+02  0.00000000000E+00 0. -1.
         21   -1    0    0  502  503 -0.00000000000E+00 -0.00000000000E+00 -0.14549232430E+04  0.14549232430E+04  0.00000000000E+00 0.  1.
         -6    2    1    2    0  503  0.12986718511E+03 -0.16883382674E+02 -0.10445320086E+04  0.10655608282E+04  0.16499159735E+03 0.  0.
        -24    2    3    3    0    0  0.12397783910E+03  0.36681705515E+02 -0.66570430481E+03  0.68289070624E+03  0.80383102223E+02 0.  0.
          6    2    1    2  501    0 -0.12986718511E+03  0.16883382674E+02 -0.37078328923E+03  0.42897036009E+03  0.17141991683E+03 0.  0.
         24    2    5    5    0    0 -0.23348495397E+02 -0.28378086021E+02 -0.23619015104E+03  0.25139717897E+03  0.77873526570E+02 0.  0.
          5    1    5    5  501    0 -0.10651868971E+03  0.45261468695E+02 -0.13459313819E+03  0.17757318112E+03  0.47000000000E+01 0. -1.
        -13    1    6    6    0    0 -0.10598208364E+02  0.19927750508E+02 -0.15068557695E+03  0.15236659857E+03  0.00000000000E+00 0.  1.
         14    1    6    6    0    0 -0.12750287033E+02 -0.48305836530E+02 -0.85504574094E+02  0.99030580394E+02  0.00000000000E+00 0. -1.
         -5    1    3    3    0  503  0.58893460038E+01 -0.53565088189E+02 -0.37882770378E+03  0.38267012193E+03  0.47000000000E+01 0.  1.
         13    1    4    4    0    0  0.12450934073E+03  0.93651438633E+01 -0.55330889341E+03  0.56722219048E+03  0.00000000000E+00 0. -1.
        -14    1    4    4    0    0 -0.53150163158E+00  0.27316561652E+02 -0.11239541140E+03  0.11566851576E+03  0.00000000000E+00 0.  1.
</event>
<event>
12    1  0.8053217E-002  0.1852314E+03  0.7818608E-02  0.1163233E+00
         21   -1    0    0  501  502  0.00000000000E+00  0.00000000000E+00  0.35442772604E+02  0.35442772604E+02  0.00000000000E+00 0.  1.
         21   -1    0    0  502  503 -0.00000000000E+00 -0.00000000000E+00 -0.11139697656E+04  0.11139697656E+04  0.00000000000E+00 0.  1.
         -6    2    1    2    0  503 -0.41360525775E+02 -0.53269904849E+02 -0.75135164218E+03  0.77344128042E+03  0.17068611013E+03 0.  0.
        -24    2    3    3    0    0  0.13153633071E+02 -0.33362305513E+02 -0.20064865697E+03  0.21966878747E+03  0.81905012987E+02 0.  0.
          6    2    1    2  501    0  0.41360525775E+02  0.53269904849E+02 -0.32717535086E+03  0.37597125783E+03  0.17251753722E+03 0.  0.
         24    2    5    5    0    0 -0.34812089690E+02  0.59639673325E+02 -0.14967039663E+03  0.18265043620E+03  0.78684064435E+02 0.  0.
          5    1    5    5  501    0  0.76172615465E+02 -0.63697684764E+01 -0.17750495423E+03  0.19332082163E+03  0.47000000000E+01 0. -1.
        -13    1    6    6    0    0 -0.17236165894E+02  0.69638256273E+02 -0.69189837130E+02  0.99668479037E+02  0.00000000000E+00 0.  1.
         14    1    6    6    0    0 -0.17575923796E+02 -0.99985829481E+01 -0.80480559498E+02  0.82981957167E+02  0.00000000000E+00 0. -1.
         -5    1    3    3    0  503 -0.54514158846E+02 -0.19907599336E+02 -0.55070298521E+03  0.55377249295E+03  0.47000000000E+01 0.  1.
         11    1    4    4    0    0 -0.25336087703E+02 -0.40397458790E+02 -0.83476681963E+02  0.96136509445E+02  0.00000000000E+00 0. -1.
        -12    1    4    4    0    0  0.38489720774E+02  0.70351532765E+01 -0.11717197501E+03  0.12353227803E+03  0.00000000000E+00 0.  1.
</event>
<event>
12    1  0.8053217E-002  0.1752824E+03  0.7818608E-02  0.1172848E+00
         21   -1    0    0  501  502  0.00000000000E+00  0.00000000000E+00  0.91846642278E+02  0.91846642278E+02  0.00000000000E+00 0. -1.
         21   -1    0    0  502  503 -0.00000000000E+00 -0.00000000000E+00 -0.94184585356E+03  0.94184585356E+03  0.00000000000E+00 0. -1.
         -6    2    1    2    0  503 -0.16201985715E+02  0.27819482489E+02 -0.84174660325E+03  0.85980303523E+03  0.17230057275E+03 0.  0.
        -24    2    3    3    0    0 -0.52572538849E-01  0.73886585514E+02 -0.72198922738E+03  0.73039321875E+03  0.82137563035E+02 0.  0.
          6    2    1    2  501    0  0.16201985715E+02 -0.27819482489E+02 -0.82526080324E+01  0.17388946060E+03  0.17068395069E+03 0.  0.
         24    2    5    5    0    0  0.29006109088E+02  0.33507644649E+02 -0.43897884663E+02  0.10165624218E+03  0.80267369965E+02 0.  0.
          5    1    5    5  501    0 -0.12804123372E+02 -0.61327127138E+02  0.35645276631E+02  0.72233218428E+02  0.47000000000E+01 0. -1.
        -11    1    6    6    0    0  0.46707570534E+02 -0.13155482233E+01 -0.41539916597E+02  0.62521136292E+02  0.00000000000E+00 0.  1.
         12    1    6    6    0    0 -0.17701461446E+02  0.34823192873E+02 -0.23579680661E+01  0.39135105884E+02  0.00000000000E+00 0. -1.
         -5    1    3    3    0  503 -0.16149413177E+02 -0.46067103025E+02 -0.11975737587E+03  0.12940981648E+03  0.47000000000E+01 0.  1.
         11    1    4    4    0    0  0.24788347362E+01  0.84323280060E+02 -0.42946709037E+03  0.43767401327E+03  0.00000000000E+00 0. -1.
        -12    1    4    4    0    0 -0.25314072750E+01 -0.10436694546E+02 -0.29252213701E+03  0.29271920548E+03  0.00000000000E+00 0.  1.
</event>
<event>
12    1  0.8053217E-002  0.1824387E+03  0.7818608E-02  0.1165713E+00
         21   -1    0    0  501  502  0.00000000000E+00  0.00000000000E+00  0.65843723488E+02  0.65843723488E+02  0.00000000000E+00 0.  1.
         21   -1    0    0  502  503 -0.00000000000E+00 -0.00000000000E+00 -0.54642834912E+03  0.54642834912E+03  0.00000000000E+00 0.  1.
         -6    2    1    2    0  503 -0.54235799456E+02  0.30722783801E+02 -0.32634978897E+03  0.37337403888E+03  0.17034839818E+03 0.  0.
        -24    2    3    3    0    0  0.32834804595E+02  0.10458281486E+02 -0.11708440245E+03  0.14576465388E+03  0.79693644543E+02 0.  0.
          6    2    1    2  501    0  0.54235799456E+02 -0.30722783801E+02 -0.15423483666E+03  0.23889803373E+03  0.17145983288E+03 0.  0.
         24    2    5    5    0    0  0.97129225052E+02 -0.41668904116E+02 -0.83751503459E+02  0.15553345031E+03  0.77498102577E+02 0.  0.
          5    1    5    5  501    0 -0.42893425596E+02  0.10946120315E+02 -0.70483333205E+02  0.83364583421E+02  0.47000000000E+01 0. -1.
        -13    1    6    6    0    0  0.98658688012E+02 -0.19997486519E+02 -0.87631608485E+02  0.13346435851E+03  0.00000000000E+00 0.  1.
         14    1    6    6    0    0 -0.15294629604E+01 -0.21671417597E+02  0.38801050255E+01  0.22069091794E+02  0.00000000000E+00 0. -1.
         -5    1    3    3    0  503 -0.87070604051E+02  0.20264502315E+02 -0.20926538652E+03  0.22760938500E+03  0.47000000000E+01 0.  1.
         13    1    4    4    0    0  0.57383977590E+01  0.39121963069E+02 -0.28335590459E+02  0.48645276132E+02  0.00000000000E+00 0. -1.
        -14    1    4    4    0    0  0.27096406836E+02 -0.28663681584E+02 -0.88748811990E+02  0.97119377752E+02  0.00000000000E+00 0.  1.
</event>
<event>
12    1  0.8053217E-002  0.1817353E+03  0.7818608E-02  0.1166382E+00
         21   -1    0    0  503  502  0.00000000000E+00  0.00000000000E+00  0.29229786101E+03  0.29229786101E+03  0.00000000000E+00 0.  1.
         21   -1    0    0  501  503 -0.00000000000E+00 -0.00000000000E+00 -0.20195558260E+03  0.20195558260E+03  0.00000000000E+00 0.  1.
          6    2    1    2  501    0 -0.24300063781E+02  0.50356793889E+02 -0.11936753018E+03  0.21743121303E+03  0.17292028610E+03 0.  0.
         24    2    3    3    0    0 -0.51382434296E+02  0.91131988529E+02 -0.75009239411E+02  0.15120569490E+03  0.79319494995E+02 0.  0.
         -6    2    1    2    0  502  0.24300063781E+02 -0.50356793889E+02  0.20970980860E+03  0.27682223059E+03  0.17183143990E+03 0.  0.
        -24    2    5    5    0    0  0.49824902144E+02 -0.45912358780E+02  0.22377381262E+03  0.24696998468E+03  0.79554940484E+02 0.  0.
          5    1    3    3  501    0  0.27082370515E+02 -0.40775194640E+02 -0.44358290772E+02  0.66225518125E+02  0.47000000000E+01 0. -1.
        -11    1    4    4    0    0 -0.91679450733E+01  0.43633299507E+01 -0.50688077791E+02  0.51694981336E+02  0.00000000000E+00 0.  1.
         12    1    4    4    0    0 -0.42214489223E+02  0.86768658578E+02 -0.24321161619E+02  0.99510713566E+02  0.00000000000E+00 0. -1.
         -5    1    5    5    0  502 -0.25524838363E+02 -0.44444351088E+01 -0.14064004022E+02  0.29852245912E+02  0.47000000000E+01 0.  1.
         11    1    6    6    0    0  0.21645429122E+02  0.20589807231E+02  0.91613953299E+02  0.96361720630E+02  0.00000000000E+00 0. -1.
        -12    1    6    6    0    0  0.28179473022E+02 -0.66502166012E+02  0.13215985932E+03  0.15060826405E+03  0.00000000000E+00 0.  1.
</event>
<event>
12    1  0.8053217E-002  0.1781301E+03  0.7818608E-02  0.1170488E+00
         21   -1    0    0  503  502  0.00000000000E+00  0.00000000000E+00  0.14299079398E+03  0.14299079398E+03  0.00000000000E+00 0.  1.
         21   -1    0    0  501  503 -0.00000000000E+00 -0.00000000000E+00 -0.21824803945E+03  0.21824803945E+03  0.00000000000E+00 0.  1.
          6    2    1    2  501    0  0.23579201465E+02 -0.23380561330E+02 -0.47190867521E+02  0.18091124825E+03  0.17146216019E+03 0.  0.
         24    2    3    3    0    0  0.69260055320E+02  0.22014044458E+02 -0.45508839208E+02  0.11631767378E+03  0.78594995840E+02 0.  0.
         -6    2    1    2    0  502 -0.23579201465E+02  0.23380561330E+02 -0.28066377946E+02  0.18032758518E+03  0.17500767702E+03 0.  0.
        -24    2    5    5    0    0 -0.12800880617E+02  0.54245638446E+02  0.40148616867E+02  0.10453707982E+03  0.78801254977E+02 0.  0.
          5    1    3    3  501    0 -0.45680853856E+02 -0.45394605788E+02 -0.16820283131E+01  0.64593574470E+02  0.47000000000E+01 0. -1.
        -11    1    4    4    0    0 -0.30184046182E+00  0.33663612931E+02 -0.26113639315E+01  0.33766094900E+02  0.00000000000E+00 0.  1.
         12    1    4    4    0    0  0.69561895782E+02 -0.11649568473E+02 -0.42897475277E+02  0.82551578880E+02  0.00000000000E+00 0. -1.
         -5    1    5    5    0  502 -0.10778320847E+02 -0.30865077116E+02 -0.68214994813E+02  0.75790505362E+02  0.47000000000E+01 0.  1.
         13    1    6    6    0    0 -0.32046642838E+02 -0.58306836905E+01  0.20403060174E+02  0.38435257954E+02  0.00000000000E+00 0. -1.
        -14    1    6    6    0    0  0.19245762221E+02  0.60076322137E+02  0.19745556694E+02  0.66101821867E+02  0.00000000000E+00 0.  1.
</event>
<event>
12    1  0.8053217E-002  0.1778174E+03  0.7818608E-02  0.1171223E+00
         21   -1    0    0  503  502  0.00000000000E+00  0.00000000000E+00  0.92757495696E+02  0.92757495696E+02  0.00000000000E+00 0. -1.
         21   -1    0    0  501  503 -0.00000000000E+00 -0.00000000000E+00 -0.63839970137E+03  0.63839970137E+03  0.00000000000E+00 0. -1.
          6    2    1    2  501    0  0.22387373704E+02 -0.34763152306E+02 -0.52438319755E+03  0.55207353134E+03  0.16762390901E+03 0.  0.
         24    2    3    3    0    0 -0.42685694846E+02 -0.19983168365E+02 -0.17964846817E+03  0.20090822010E+03  0.76610346729E+02 0.  0.
         -6    2    1    2    0  502 -0.22387373704E+02  0.34763152306E+02 -0.21259008122E+02  0.17908366573E+03  0.17294317750E+03 0.  0.
        -24    2    5    5    0    0 -0.24172690564E+02  0.87051417680E+02 -0.34134578561E+02  0.12499928382E+03  0.79356053409E+02 0.  0.
          5    1    3    3  501    0  0.65073068550E+02 -0.14779983941E+02 -0.34473472938E+03  0.35116531124E+03  0.47000000000E+01 0. -1.
        -13    1    4    4    0    0  0.21377318094E+02 -0.32691327821E+01 -0.65154956676E+02  0.68650166333E+02  0.00000000000E+00 0.  1.
         14    1    4    4    0    0 -0.64063012939E+02 -0.16714035583E+02 -0.11449351150E+03  0.13225805377E+03  0.00000000000E+00 0. -1.
         -5    1    5    5    0  502  0.17853168601E+01 -0.52288265374E+02  0.12875570439E+02  0.54084381907E+02  0.47000000000E+01 0.  1.
         13    1    6    6    0    0 -0.48861568111E+02  0.77531459623E+02 -0.36027078515E+02  0.98470962501E+02  0.00000000000E+00 0. -1.
        -14    1    6    6    0    0  0.24688877546E+02  0.95199580571E+01  0.18924999545E+01  0.26528321319E+02  0.00000000000E+00 0.  1.
</event>
<event>
12    1  0.8053217E-002  0.2308199E+03  0.7818608E-02  0.1128885E+00
         21   -1    0    0  501  502  0.00000000000E+00  0.00000000000E+00  0.24932654735E+03  0.24932654735E+03  0.00000000000E+00 0.  1.
         21   -1    0    0  502  503 -0.00000000000E+00 -0.00000000000E+00 -0.21128550717E+03  0.21128550717E+03  0.00000000000E+00 0.  1.
         -6    2    1    2    0  503  0.96362709500E+01 -0.15232122325E+03 -0.34573653111E+02  0.23339483003E+03  0.17315656622E+03 0.  0.
        -24    2    3    3    0    0 -0.38597072712E+02 -0.48004645257E+02  0.28037051517E+02  0.10243455277E+03  0.76893311514E+02 0.  0.
          6    2    1    2  501    0 -0.96362709500E+01  0.15232122325E+03  0.72614693291E+02  0.22721722449E+03  0.15185572315E+03 0.  0.
         24    2    5    5    0    0 -0.15759599008E+02  0.14695978385E+03  0.14849137192E+02  0.16869210467E+03  0.79943644350E+02 0.  0.
          5    1    5    5  501    0  0.61233280581E+01  0.53614394048E+01  0.57765556099E+02  0.58525119824E+02  0.47000000000E+01 0. -1.
        -13    1    6    6    0    0  0.96277470752E+01  0.75892164042E+02 -0.28529536608E+02  0.81647097535E+02  0.00000000000E+00 0.  1.
         14    1    6    6    0    0 -0.25387346083E+02  0.71067619805E+02  0.43378673800E+02  0.87045007132E+02  0.00000000000E+00 0. -1.
         -5    1    3    3    0  503  0.48233343662E+02 -0.10431657800E+03 -0.62610704628E+02  0.13096027726E+03  0.47000000000E+01 0.  1.
         13    1    4    4    0    0  0.16104324037E+02  0.27370985056E+01 -0.95160249201E+01  0.18904911827E+02  0.00000000000E+00 0. -1.
        -14    1    4    4    0    0 -0.54701396750E+02 -0.50741743762E+02  0.37553076437E+02  0.83529640944E+02  0.00000000000E+00 0.  1.
</event>
<event>
12    1  0.8053217E-002  0.2306073E+03  0.7818608E-02  0.1126648E+00
         21   -1    0    0  503  502  0.00000000000E+00  0.00000000000E+00  0.16177607365E+03  0.16177607365E+03  0.00000000000E+00 0. -1.
         21   -1    0    0  501  503 -0.00000000000E+00 -0.00000000000E+00 -0.63245948839E+03  0.63245948839E+03  0.00000000000E+00 0.  1.
          6    2    1    2  501    0 -0.22915436456E+02 -0.14813805493E+03 -0.51147398464E+03  0.56004842062E+03  0.17198428980E+03 0.  0.
         24    2    3    3    0    0 -0.52807786667E+02 -0.15693518234E+03 -0.35673172095E+03  0.40213008659E+03  0.83867586256E+02 0.  0.
         -6    2    1    2    0  502  0.22915436456E+02  0.14813805493E+03  0.40790569893E+02  0.23418714142E+03  0.17524196434E+03 0.  0.
        -24    2    5    5    0    0 -0.14626094251E+02  0.77027910820E+01  0.36264104567E+02  0.88674225330E+02  0.79213492123E+02 0.  0.
          5    1    3    3  501    0  0.29892350211E+02  0.87971274082E+01 -0.15474226369E+03  0.15791833403E+03  0.47000000000E+01 0. -1.
        -13    1    4    4    0    0 -0.26696582424E+02 -0.97649223561E+02 -0.29786560779E+03  0.31459815428E+03  0.00000000000E+00 0.  1.
         14    1    4    4    0    0 -0.26111204243E+02 -0.59285958781E+02 -0.58866113160E+02  0.87531932312E+02  0.00000000000E+00 0. -1.
         -5    1    5    5    0  502  0.37541530708E+02  0.14043526385E+03  0.45264653259E+01  0.14551291609E+03  0.47000000000E+01 0.  1.
         13    1    6    6    0    0 -0.29163221530E+02  0.28537365146E+02  0.45980895930E+02  0.61474527164E+02  0.00000000000E+00 0. -1.
        -14    1    6    6    0    0  0.14537127279E+02 -0.20834574064E+02 -0.97167913632E+01  0.27199698166E+02  0.00000000000E+00 0.  1.
</event>
<event>
12    1  0.8053217E-002  0.3216834E+03  0.7818608E-02  0.1074895E+00
         21   -1    0    0  501  502  0.00000000000E+00  0.00000000000E+00  0.86878512167E+02  0.86878512167E+02  0.00000000000E+00 0. -1.
         21   -1    0    0  502  503 -0.00000000000E+00 -0.00000000000E+00 -0.12731367362E+04  0.12731367362E+04  0.00000000000E+00 0.  1.
         -6    2    1    2    0  503  0.22608671374E+03 -0.15106177434E+03 -0.42001960413E+03  0.52905263588E+03  0.17188764318E+03 0.  0.
        -24    2    3    3    0    0  0.24295578437E+03 -0.15584019697E+03 -0.37030713771E+03  0.47612987911E+03  0.79111348058E+02 0.  0.
          6    2    1    2  501    0 -0.22608671374E+03  0.15106177434E+03 -0.76623861986E+03  0.83096261245E+03  0.17158781692E+03 0.  0.
         24    2    5    5    0    0 -0.15549982582E+03  0.13696318311E+03 -0.69490878671E+03  0.72951649808E+03  0.79730732912E+02 0.  0.
          5    1    5    5  501    0 -0.70586887927E+02  0.14098591231E+02 -0.71329833151E+02  0.10144611436E+03  0.47000000000E+01 0. -1.
        -11    1    6    6    0    0  0.89950343153E+01  0.68741304190E+01 -0.22929514540E+02  0.25571995393E+02  0.00000000000E+00 0.  1.
         12    1    6    6    0    0 -0.16449486013E+03  0.13008905269E+03 -0.67197927217E+03  0.70394450269E+03  0.00000000000E+00 0. -1.
         -5    1    3    3    0  503 -0.16869070627E+02  0.47784226260E+01 -0.49712466422E+02  0.52922756772E+02  0.47000000000E+01 0.  1.
         11    1    4    4    0    0  0.30838161540E+02 -0.56720772777E+02 -0.92774689065E+02  0.11302823188E+03  0.00000000000E+00 0. -1.
        -12    1    4    4    0    0  0.21211762283E+03 -0.99119424190E+02 -0.27753244864E+03  0.36310164722E+03  0.00000000000E+00 0.  1.
</event>
<event>
12    1  0.8053217E-002  0.1933065E+03  0.7818608E-02  0.1157260E+00
         21   -1    0    0  503  502  0.00000000000E+00  0.00000000000E+00  0.41453599827E+02  0.41453599827E+02  0.00000000000E+00 0.  1.
         21   -1    0    0  501  503 -0.00000000000E+00 -0.00000000000E+00 -0.13030103644E+04  0.13030103644E+04  0.00000000000E+00 0.  1.
          6    2    1    2  501    0 -0.67920190569E+02  0.40398243260E+02 -0.10287659337E+04  0.10467696683E+04  0.17641491371E+03 0.  0.
         24    2    3    3    0    0 -0.95616875357E+02  0.35622942772E+02 -0.99074701085E+03  0.99925716113E+03  0.80769138018E+02 0.  0.
         -6    2    1    2    0  502  0.67920190569E+02 -0.40398243260E+02 -0.23279083081E+03  0.29769429587E+03  0.16788434274E+03 0.  0.
        -24    2    5    5    0    0  0.23656380010E+01 -0.19756734825E+02 -0.20979651257E+03  0.22506992045E+03  0.79031434202E+02 0.  0.
          5    1    3    3  501    0  0.27696684788E+02  0.47753004876E+01 -0.38018922868E+02  0.47512507185E+02  0.47000000000E+01 0. -1.
        -13    1    4    4    0    0 -0.10779938858E+03  0.23745710227E+02 -0.91432728728E+03  0.92096631599E+03  0.00000000000E+00 0.  1.
         14    1    4    4    0    0  0.12182513224E+02  0.11877232545E+02 -0.76419723570E+02  0.78290845135E+02  0.00000000000E+00 0. -1.
         -5    1    5    5    0  502  0.65554552568E+02 -0.20641508435E+02 -0.22994318238E+02  0.72624375412E+02  0.47000000000E+01 0.  1.
         13    1    6    6    0    0 -0.30754831454E+02 -0.25340728403E+02 -0.63509188639E+02  0.74976190990E+02  0.00000000000E+00 0. -1.
        -14    1    6    6    0    0  0.33120469455E+02  0.55839935776E+01 -0.14628732393E+03  0.15009372946E+03  0.00000000000E+00 0.  1.
</event>
<event>
12    1  0.8053217E-002  0.1747664E+03  0.7818608E-02  0.1173378E+00
         21   -1    0    0  501  502  0.00000000000E+00  0.00000000000E+00  0.68969488746E+02  0.68969488746E+02  0.00000000000E+00 0. -1.
         21   -1    0    0  502  503 -0.00000000000E+00 -0.00000000000E+00 -0.53028913181E+03  0.53028913181E+03  0.00000000000E+00 0. -1.
         -6    2    1    2    0  503  0.16268558583E+02 -0.26212777669E+02 -0.35426446113E+03  0.39430958430E+03  0.17036714514E+03 0.  0.
        -24    2    3    3    0    0 -0.42190258953E+02 -0.42751706953E+02 -0.27417358451E+03  0.29367356666E+03  0.86401868689E+02 0.  0.
          6    2    1    2  501    0 -0.16268558583E+02  0.26212777669E+02 -0.10705518193E+03  0.20494903625E+03  0.17202185841E+03 0.  0.
         24    2    5    5    0    0 -0.13196520011E+02 -0.47172838760E+02 -0.93760581469E+02  0.13015784345E+03  0.75832662595E+02 0.  0.
          5    1    5    5  501    0 -0.30720385719E+01  0.73385616430E+02 -0.13294600464E+02  0.74791192806E+02  0.47000000000E+01 0. -1.
        -13    1    6    6    0    0  0.27276236156E+02 -0.11638078210E+02 -0.11443232848E+02  0.31786561646E+02  0.00000000000E+00 0.  1.
         14    1    6    6    0    0 -0.40472756167E+02 -0.35534760550E+02 -0.82317348621E+02  0.98371281801E+02  0.00000000000E+00 0. -1.
         -5    1    3    3    0  503  0.58458817536E+02  0.16538929283E+02 -0.80090876623E+02  0.10063601765E+03  0.47000000000E+01 0.  1.
         11    1    4    4    0    0 -0.88072933285E+01  0.97180244500E+01 -0.60901547461E+00  0.13129330327E+02  0.00000000000E+00 0. -1.
        -12    1    4    4    0    0 -0.33382965625E+02 -0.52469731403E+02 -0.27356456903E+03  0.28054423633E+03  0.00000000000E+00 0.  1.
</event>
<event>
12    1  0.8053217E-002  0.1947300E+03  0.7818608E-02  0.1154372E+00
         21   -1    0    0  501  502  0.00000000000E+00  0.00000000000E+00  0.21378857468E+03  0.21378857468E+03  0.00000000000E+00 0. -1.
         21   -1    0    0  502  503 -0.00000000000E+00 -0.00000000000E+00 -0.21287473335E+03  0.21287473335E+03  0.00000000000E+00 0. -1.
         -6    2    1    2    0  503  0.85991892741E+02  0.31533567634E+02 -0.87223019991E+02  0.21291610972E+03  0.17127884591E+03 0.  0.
        -24    2    3    3    0    0  0.56184432388E+02  0.86685305257E+02 -0.59457853414E+02  0.14419061714E+03  0.81145949665E+02 0.  0.
          6    2    1    2  501    0 -0.85991892741E+02 -0.31533567634E+02  0.88136861329E+02  0.21374719831E+03  0.17184524130E+03 0.  0.
         24    2    5    5    0    0 -0.47586419604E+01 -0.19627184860E+02  0.10154672504E+03  0.13042542788E+03  0.79316983122E+02 0.  0.
          5    1    5    5  501    0 -0.81233250781E+02 -0.11906382774E+02 -0.13409863716E+02  0.83321770433E+02  0.47000000000E+01 0. -1.
        -13    1    6    6    0    0  0.27996988345E+02 -0.20837326609E+01  0.71382109837E+01  0.28967695011E+02  0.00000000000E+00 0.  1.
         14    1    6    6    0    0 -0.32755630305E+02 -0.17543452199E+02  0.94408514061E+02  0.10145773287E+03  0.00000000000E+00 0. -1.
         -5    1    3    3    0  503  0.29807460353E+02 -0.55151737623E+02 -0.27765166577E+02  0.68725492582E+02  0.47000000000E+01 0.  1.
         11    1    4    4    0    0  0.16459113939E+02  0.49331217662E+02 -0.71436875216E+02  0.88361182701E+02  0.00000000000E+00 0. -1.
        -12    1    4    4    0    0  0.39725318449E+02  0.37354087595E+02  0.11979021802E+02  0.55829434435E+02  0.00000000000E+00 0.  1.
</event>
<event>
12    1  0.8053217E-002  0.2220584E+03  0.7818608E-02  0.1132772E+00
         21   -1    0    0  501  502  0.00000000000E+00  0.00000000000E+00  0.19562342691E+04  0.19562342691E+04  0.00000000000E+00 0.  1.
         21   -1    0    0  502  503 -0.00000000000E+00 -0.00000000000E+00 -0.24964569680E+02  0.24964569680E+02  0.00000000000E+00 0. -1.
         -6    2    1    2    0  503  0.59769575265E+02  0.12395529143E+03  0.94945051805E+03  0.97507241189E+03  0.17427738178E+03 0.  0.
        -24    2    3    3    0    0  0.19742400532E+02  0.10337728220E+03  0.34374345798E+03  0.36767734951E+03  0.77139118395E+02 0.  0.
          6    2    1    2  501    0 -0.59769575265E+02 -0.12395529143E+03  0.98181918138E+03  0.10061264269E+04  0.17141810167E+03 0.  0.
         24    2    5    5    0    0 -0.16079476073E+01 -0.36335669661E+01  0.49436264019E+03  0.50066024420E+03  0.79059925360E+02 0.  0.
          5    1    5    5  501    0 -0.58161627657E+02 -0.12032172446E+03  0.48745654119E+03  0.50546618270E+03  0.47000000000E+01 0. -1.
        -11    1    6    6    0    0 -0.38259490026E+02  0.10750640244E+02  0.25680606642E+03  0.25986288806E+03  0.00000000000E+00 0.  1.
         12    1    6    6    0    0  0.36651542419E+02 -0.14384207210E+02  0.23755657377E+03  0.24079735613E+03  0.00000000000E+00 0. -1.
         -5    1    3    3    0  503  0.40027174732E+02  0.20578009233E+02  0.60570706008E+03  0.60739506238E+03  0.47000000000E+01 0.  1.
         13    1    4    4    0    0  0.38849782406E+02  0.93220358130E+02  0.31997309063E+03  0.33553259080E+03  0.00000000000E+00 0. -1.
        -14    1    4    4    0    0 -0.19107381874E+02  0.10156924067E+02  0.23770367351E+02  0.32144758711E+02  0.00000000000E+00 0.  1.
</event>
<event>
12    1  0.8053217E-002  0.1758413E+03  0.7818608E-02  0.1171927E+00
         21   -1    0    0  503  502  0.00000000000E+00  0.00000000000E+00  0.25913707655E+03  0.25913707655E+03  0.00000000000E+00 0.  1.
         21   -1    0    0  501  503 -0.00000000000E+00 -0.00000000000E+00 -0.17277181074E+03  0.17277181074E+03  0.00000000000E+00 0.  1.
          6    2    1    2  501    0  0.34036736845E+02 -0.26320100601E+01 -0.77062460275E+02  0.19184891897E+03  0.17234256003E+03 0.  0.
         24    2    3    3    0    0  0.71510094147E+02  0.37337472632E+02 -0.77706699114E+02  0.13685512753E+03  0.78633417931E+02 0.  0.
         -6    2    1    2    0  502 -0.34036736845E+02  0.26320100601E+01  0.16342772608E+03  0.24005996832E+03  0.17249562256E+03 0.  0.
        -24    2    5    5    0    0  0.48857147209E+02  0.28683277833E+02  0.10103292681E+03  0.13298398809E+03  0.65324861471E+02 0.  0.
          5    1    3    3  501    0 -0.37473357303E+02 -0.39969482692E+02  0.64423883911E+00  0.54993791448E+02  0.47000000000E+01 0. -1.
        -11    1    4    4    0    0  0.19339291592E+02  0.57021115345E+01 -0.72918313396E+02  0.75654495595E+02  0.00000000000E+00 0.  1.
         12    1    4    4    0    0  0.52170802555E+02  0.31635361097E+02 -0.47883857180E+01  0.61200631931E+02  0.00000000000E+00 0. -1.
         -5    1    5    5    0  502 -0.82893884053E+02 -0.26051267773E+02  0.62394799270E+02  0.10707598023E+03  0.47000000000E+01 0.  1.
         11    1    6    6    0    0 -0.74027893622E+01  0.66318866919E+01 -0.48594654826E+01  0.11063345616E+02  0.00000000000E+00 0. -1.
        -12    1    6    6    0    0  0.56259936571E+02  0.22051391141E+02  0.10589239230E+03  0.12192064247E+03  0.00000000000E+00 0.  1.
</event>
<event>
12    1  0.8053217E-002  0.2153283E+03  0.7818608E-02  0.1137487E+00
         21   -1    0    0  501  502  0.00000000000E+00  0.00000000000E+00  0.31544604384E+03  0.31544604384E+03  0.00000000000E+00 0.  1.
         21   -1    0    0  502  503 -0.00000000000E+00 -0.00000000000E+00 -0.33433378621E+03  0.33433378621E+03  0.00000000000E+00 0. -1.
         -6    2    1    2    0  503  0.22651391085E+02  0.12773664984E+03 -0.25281134165E+03  0.33183876422E+03  0.17138743752E+03 0.  0.
        -24    2    3    3    0    0 -0.15311836170E+02  0.13831171016E+03 -0.14201054678E+03  0.21414447945E+03  0.79537922946E+02 0.  0.
          6    2    1    2  501    0 -0.22651391085E+02 -0.12773664984E+03  0.23392359928E+03  0.31794106583E+03  0.17186196151E+03 0.  0.
         24    2    5    5    0    0 -0.82653460224E+02 -0.93360552751E+02  0.19564340201E+03  0.23876134713E+03  0.56416777939E+02 0.  0.
          5    1    5    5  501    0  0.60002069139E+02 -0.34376097091E+02  0.38280197262E+02  0.79179718708E+02  0.47000000000E+01 0. -1.
        -13    1    6    6    0    0 -0.36106627596E+02 -0.18371508095E+02  0.27819996621E+02  0.49144206963E+02  0.00000000000E+00 0.  1.
         14    1    6    6    0    0 -0.46546832628E+02 -0.74989044656E+02  0.16782340539E+03  0.18961714016E+03  0.00000000000E+00 0. -1.
         -5    1    3    3    0  503  0.37963227255E+02 -0.10575060317E+02 -0.11080079487E+03  0.11769428477E+03  0.47000000000E+01 0.  1.
         11    1    4    4    0    0  0.14826412815E+02  0.82569906575E+02 -0.12129022723E+03  0.14747518846E+03  0.00000000000E+00 0. -1.
        -12    1    4    4    0    0 -0.30138248985E+02  0.55741803584E+02 -0.20720319547E+02  0.66669290988E+02  0.00000000000E+00 0.  1.
</event>
<event>
12    1  0.8053217E-002  0.2024768E+03  0.7818608E-02  0.1147828E+00
         21   -1    0    0  501  502  0.00000000000E+00  0.00000000000E+00  0.11143885448E+04  0.11143885448E+04  0.00000000000E+00 0. -1.
         21   -1    0    0  502  503 -0.00000000000E+00 -0.00000000000E+00 -0.15393519659E+03  0.15393519659E+03  0.00000000000E+00 0.  1.
         -6    2    1    2    0  503 -0.28920784107E+02 -0.10014049863E+03 -0.73103911023E+02  0.21526969353E+03  0.17358665827E+03 0.  0.
        -24    2    3    3    0    0  0.28796127046E+02 -0.11244044980E+00 -0.14347554153E+02  0.85611474631E+02  0.79336263478E+02 0.  0.
          6    2    1    2  501    0  0.28920784107E+02  0.10014049863E+03  0.10335572593E+04  0.10530540479E+04  0.17267799044E+03 0.  0.
         24    2    5    5    0    0 -0.39324940399E+02  0.50472251267E+02  0.36168866021E+03  0.37588795445E+03  0.79869695699E+02 0.  0.
          5    1    5    5  501    0  0.68245724506E+02  0.49668247363E+02  0.67186859907E+03  0.67716609345E+03  0.47000000000E+01 0. -1.
        -13    1    6    6    0    0  0.10207611515E+02  0.32366898581E+01  0.35709011839E+01  0.11288172099E+02  0.00000000000E+00 0.  1.
         14    1    6    6    0    0 -0.49532551914E+02  0.47235561409E+02  0.35811775903E+03  0.36459978235E+03  0.00000000000E+00 0. -1.
         -5    1    3    3    0  503 -0.57716911153E+02 -0.10002805818E+03 -0.58756356870E+02  0.12965821890E+03  0.47000000000E+01 0.  1.
         11    1    4    4    0    0  0.21503396400E+02  0.35817853405E+02  0.81943691057E+01  0.42573023904E+02  0.00000000000E+00 0. -1.
        -12    1    4    4    0    0  0.72927306460E+01 -0.35930293855E+02 -0.22541923259E+02  0.43038450727E+02  0.00000000000E+00 0.  1.
</event>
<event>
12    1  0.8053217E-002  0.1870529E+03  0.7818608E-02  0.1161389E+00
         21   -1    0    0  503  502  0.00000000000E+00  0.00000000000E+00  0.39378998335E+02  0.39378998335E+02  0.00000000000E+00 0.  1.
         21   -1    0    0  501  503 -0.00000000000E+00 -0.00000000000E+00 -0.15177348029E+04  0.15177348029E+04  0.00000000000E+00 0.  1.
          6    2    1    2  501    0  0.22121351251E+02 -0.66711645483E+02 -0.12436665411E+04  0.12576546699E+04  0.17334648916E+03 0.  0.
         24    2    3    3    0    0  0.29132814897E+02 -0.86473348761E+02 -0.53510374851E+03  0.54876609850E+03  0.80509926365E+02 0.  0.
         -6    2    1    2    0  502 -0.22121351251E+02  0.66711645483E+02 -0.23468926340E+03  0.29945913132E+03  0.17221185544E+03 0.  0.
        -24    2    5    5    0    0 -0.38903851998E+02 -0.23257238042E+02 -0.89411927783E+02  0.12769287568E+03  0.79098475640E+02 0.  0.
          5    1    3    3  501    0 -0.70114636462E+01  0.19761703278E+02 -0.70856279261E+03  0.70888857137E+03  0.47000000000E+01 0. -1.
        -11    1    4    4    0    0 -0.16105037845E+02 -0.72410496888E+02 -0.33906741407E+03  0.34708696834E+03  0.00000000000E+00 0.  1.
         12    1    4    4    0    0  0.45237852742E+02 -0.14062851874E+02 -0.19603633444E+03  0.20167913016E+03  0.00000000000E+00 0. -1.
         -5    1    5    5    0  502  0.16782500747E+02  0.89968883525E+02 -0.14527733561E+03  0.17176625564E+03  0.47000000000E+01 0.  1.
         11    1    6    6    0    0 -0.20620459668E+02 -0.34930063860E+02 -0.96656946098E+02  0.10482307927E+03  0.00000000000E+00 0. -1.
        -12    1    6    6    0    0 -0.18283392329E+02  0.11672825818E+02  0.72450183150E+01  0.22869796414E+02  0.00000000000E+00 0.  1.
</event>
<event>
12    1  0.8053217E-002  0.2162852E+03  0.7818608E-02  0.1137051E+00
         21   -1    0    0  503  502  0.00000000000E+00  0.00000000000E+00  0.19923347559E+03  0.19923347559E+03  0.00000000000E+00 0.  1.
         21   -1    0    0  501  503 -0.00000000000E+00 -0.00000000000E+00 -0.23388076940E+03  0.23388076940E+03  0.00000000000E+00 0.  1.
          6    2    1    2  501    0  0.72288645859E+02  0.10633690839E+03 -0.32688316967E+02  0.21874139710E+03  0.17391401994E+03 0.  0.
         24    2    3    3    0    0  0.81045392004E+02  0.59651330829E+01 -0.24889878447E+02  0.11757776962E+03  0.81247076753E+02 0.  0.
         -6    2    1    2    0  502 -0.72288645859E+02 -0.10633690839E+03 -0.19589768472E+01  0.21437284789E+03  0.17151878590E+03 0.  0.
        -24    2    5    5    0    0 -0.13792631516E+02 -0.22322764579E+02  0.43842657513E+02  0.10212294916E+03  0.88421578953E+02 0.  0.
          5    1    3    3  501    0 -0.87567461447E+01  0.10037177531E+03 -0.77984385201E+01  0.10116362748E+03  0.47000000000E+01 0. -1.
        -13    1    4    4    0    0  0.40971653934E+02  0.42743040387E+02 -0.41088214589E+01  0.59350874816E+02  0.00000000000E+00 0.  1.
         14    1    4    4    0    0  0.40073738070E+02 -0.36777907304E+02 -0.20781056988E+02  0.58226894800E+02  0.00000000000E+00 0. -1.
         -5    1    5    5    0  502 -0.58496014344E+02 -0.84014143815E+02 -0.45801634360E+02  0.11224989873E+03  0.47000000000E+01 0.  1.
         13    1    6    6    0    0  0.23873669500E+02 -0.41801039402E+02  0.32970722344E+02  0.58346786735E+02  0.00000000000E+00 0. -1.
        -14    1    6    6    0    0 -0.37666301015E+02  0.19478274823E+02  0.10871935169E+02  0.43776162424E+02  0.00000000000E+00 0.  1.
</event>
<event>
12    1  0.8053217E-002  0.1985636E+03  0.7818608E-02  0.1150993E+00
         21   -1    0    0  501  502  0.00000000000E+00  0.00000000000E+00  0.94868251462E+03  0.94868251462E+03  0.00000000000E+00 0.  1.
         21   -1    0    0  502  503 -0.00000000000E+00 -0.00000000000E+00 -0.43959206540E+02  0.43959206540E+02  0.00000000000E+00 0.  1.
         -6    2    1    2    0  503  0.84888766228E+02  0.54392985050E+02  0.56898437184E+03  0.60257999391E+03  0.17086466635E+03 0.  0.
        -24    2    3    3    0    0  0.75128365701E+02  0.10590082327E+02  0.53416884595E+03  0.54558727026E+03  0.81072142663E+02 0.  0.
          6    2    1    2  501    0 -0.84888766228E+02 -0.54392985050E+02  0.33573893624E+03  0.39006172725E+03  0.17106378432E+03 0.  0.
         24    2    5    5    0    0 -0.39789052712E+02 -0.10065328556E+03  0.22316353936E+03  0.26017982111E+03  0.78595937562E+02 0.  0.
          5    1    5    5  501    0 -0.45099713516E+02  0.46260300506E+02  0.11257539688E+03  0.12988190615E+03  0.47000000000E+01 0. -1.
        -11    1    6    6    0    0 -0.58721325637E+02 -0.73478335075E+02  0.12404328328E+03  0.15567272059E+03  0.00000000000E+00 0.  1.
         12    1    6    6    0    0  0.18932272925E+02 -0.27174950480E+02  0.99120256086E+02  0.10450710052E+03  0.00000000000E+00 0. -1.
         -5    1    3    3    0  503  0.97604005277E+01  0.43802902723E+02  0.34815525896E+02  0.56992723648E+02  0.47000000000E+01 0.  1.
         11    1    4    4    0    0  0.66808544259E+01  0.35927454984E+02  0.22291866512E+03  0.22589410593E+03  0.00000000000E+00 0. -1.
        -12    1    4    4    0    0  0.68447511275E+02 -0.25337372657E+02  0.31125018083E+03  0.31969316433E+03  0.00000000000E+00 0.  1.
</event>
<event>
12    1  0.8053217E-002  0.1924173E+03  0.7818608E-02  0.1156332E+00
         21   -1    0    0  503  502  0.00000000000E+00  0.00000000000E+00  0.38296558807E+02  0.38296558807E+02  0.00000000000E+00 0.  1.
         21   -1    0    0  501  503 -0.00000000000E+00 -0.00000000000E+00 -0.22805732195E+04  0.22805732195E+04  0.00000000000E+00 0. -1.
          6    2    1    2  501    0 -0.76193674977E+02 -0.40928139372E+02 -0.20015830420E+04  0.20108105516E+04  0.17188313340E+03 0.  0.
         24    2    3    3    0    0  0.12679772711E+02  0.27094104795E+02 -0.77149850982E+03  0.77563624738E+03  0.74207617140E+02 0.  0.
         -6    2    1    2    0  502  0.76193674977E+02  0.40928139372E+02 -0.24069361865E+03  0.30805922671E+03  0.17171627878E+03 0.  0.
        -24    2    5    5    0    0  0.42430009770E+01 -0.27524923273E+02 -0.17179656764E+03  0.18709801428E+03  0.68673006586E+02 0.  0.
          5    1    3    3  501    0 -0.88873447688E+02 -0.68022244167E+02 -0.12300845322E+04  0.12351743042E+04  0.47000000000E+01 0. -1.
        -11    1    4    4    0    0  0.13031018407E+02 -0.17670167097E+02 -0.88885337209E+02  0.91556787933E+02  0.00000000000E+00 0.  1.
         12    1    4    4    0    0 -0.35124569667E+00  0.44764271892E+02 -0.68261317261E+03  0.68407945945E+03  0.00000000000E+00 0. -1.
         -5    1    5    5    0  502  0.71950674000E+02  0.68453062645E+02 -0.68897051008E+02  0.12096121243E+03  0.47000000000E+01 0.  1.
         11    1    6    6    0    0 -0.12995242483E+02  0.17325702529E+02 -0.86790048812E+02  0.89451488909E+02  0.00000000000E+00 0. -1.
        -12    1    6    6    0    0  0.17238243460E+02 -0.44850625802E+02 -0.85006518832E+02  0.97646525368E+02  0.00000000000E+00 0.  1.
</event>
<event>
12    1  0.8053217E-002  0.1837501E+03  0.7818608E-02  0.1164398E+00
         21   -1    0    0  501  502  0.00000000000E+00  0.00000000000E+00  0.44275777339E+03  0.44275777339E+03  0.00000000000E+00 0. -1.
         21   -1    0    0  502  503 -0.00000000000E+00 -0.00000000000E+00 -0.15321723793E+03  0.15321723793E+03  0.00000000000E+00 0. -1.
         -6    2    1    2    0  503  0.24436601815E+01 -0.51939202904E+02  0.35652745895E+03  0.40109341247E+03  0.17623973522E+03 0.  0.
        -24    2    3    3    0    0  0.51138982931E+02 -0.57992432198E+01  0.11305596925E+03  0.14850563241E+03  0.81384543246E+02 0.  0.
          6    2    1    2  501    0 -0.24436601815E+01  0.51939202904E+02 -0.66986923486E+02  0.19488159885E+03  0.17546491780E+03 0.  0.
         24    2    5    5    0    0  0.13587669204E+02  0.10202014828E+03 -0.42396954876E+02  0.13664191163E+03  0.79251339556E+02 0.  0.
          5    1    5    5  501    0 -0.16031329386E+02 -0.50080945373E+02 -0.24589968610E+02  0.58239687221E+02  0.47000000000E+01 0. -1.
        -11    1    6    6    0    0  0.85560721205E+01 -0.13385115054E+01  0.15727494172E+02  0.17954165425E+02  0.00000000000E+00 0.  1.
         12    1    6    6    0    0  0.50315970839E+01  0.10335865978E+03 -0.58124449048E+02  0.11868774620E+03  0.00000000000E+00 0. -1.
         -5    1    3    3    0  503 -0.48695322749E+02 -0.46139959684E+02  0.24347148971E+03  0.25258778006E+03  0.47000000000E+01 0.  1.
         13    1    4    4    0    0 -0.75710725044E+01 -0.54300845843E+01  0.81153662367E+02  0.81686742334E+02  0.00000000000E+00 0. -1.
        -14    1    4    4    0    0  0.58710055435E+02 -0.36915863553E+00  0.31902306878E+02  0.66818890079E+02  0.00000000000E+00 0.  1.
</event>
<event>
12    1  0.8053217E-002  0.2270402E+03  0.7818608E-02  0.1128866E+00
         21   -1    0    0  501  502  0.00000000000E+00  0.00000000000E+00  0.16051647592E+03  0.16051647592E+03  0.00000000000E+00 0. -1.
         21   -1    0    0  502  503 -0.00000000000E+00 -0.00000000000E+00 -0.98411570614E+03  0.98411570614E+03  0.00000000000E+00 0. -1.
         -6    2    1    2    0  503 -0.78662145405E+02 -0.12385822749E+03 -0.88168974468E+03  0.91027826792E+03  0.17234014490E+03 0.  0.
        -24    2    3    3    0    0  0.14808936097E+02 -0.72675899306E+02 -0.31768788851E+03  0.33627769514E+03  0.81584329462E+02 0.  0.
          6    2    1    2  501    0  0.78662145405E+02  0.12385822749E+03  0.58090514457E+02  0.23435391414E+03  0.17325892637E+03 0.  0.
         24    2    5    5    0    0  0.65879029806E+02  0.55609621624E+02  0.98813625447E+02  0.15372053386E+03  0.80208437031E+02 0.  0.
          5    1    5    5  501    0  0.12783115599E+02  0.68248605868E+02 -0.40723110991E+02  0.80633380284E+02  0.47000000000E+01 0. -1.
        -11    1    6    6    0    0  0.82052731422E+02  0.56462127433E+02  0.73975906784E+02  0.12406876058E+03  0.00000000000E+00 0.  1.
         12    1    6    6    0    0 -0.16173701616E+02 -0.85250580902E+00  0.24837718663E+02  0.29651773278E+02  0.00000000000E+00 0. -1.
         -5    1    3    3    0  503 -0.93471081501E+02 -0.51182328185E+02 -0.56400185617E+03  0.57400057279E+03  0.47000000000E+01 0.  1.
         11    1    4    4    0    0 -0.16696838089E+02 -0.76696663598E+02 -0.22473849508E+03  0.23805157798E+03  0.00000000000E+00 0. -1.
        -12    1    4    4    0    0  0.31505774186E+02  0.40207642921E+01 -0.92949393431E+02  0.98226117157E+02  0.00000000000E+00 0.  1.
</event>
<event>
12    1  0.8053217E-002  0.2143303E+03  0.7818608E-02  0.1139609E+00
         21   -1    0    0  501  502  0.00000000000E+00  0.00000000000E+00  0.20973921933E+03  0.20973921933E+03  0.00000000000E+00 0.  1.
         21   -1    0    0  502  503 -0.00000000000E+00 -0.00000000000E+00 -0.23048263395E+03  0.23048263395E+03  0.00000000000E+00 0.  1.
         -6    2    1    2    0  503 -0.89762204940E+02  0.72137078477E+02 -0.73097477580E+02  0.21958992877E+03  0.17209149910E+03 0.  0.
        -24    2    3    3    0    0  0.94205464823E+00  0.85157791278E+02 -0.43454256268E+02  0.12316580192E+03  0.77645382939E+02 0.  0.
          6    2    1    2  501    0  0.89762204940E+02 -0.72137078477E+02  0.52354062959E+02  0.22063192452E+03  0.18076638704E+03 0.  0.
         24    2    5    5    0    0 -0.23959927301E+02 -0.32720428324E+02  0.44796081500E+02  0.99943860675E+02  0.79607674397E+02 0.  0.
          5    1    5    5  501    0  0.11372213224E+03 -0.39416650152E+02  0.75579814588E+01  0.12068806384E+03  0.47000000000E+01 0. -1.
        -13    1    6    6    0    0 -0.52919924754E+01 -0.20498064131E+02  0.65908834989E+02  0.69225359133E+02  0.00000000000E+00 0.  1.
         14    1    6    6    0    0 -0.18667934825E+02 -0.12222364193E+02 -0.21112753489E+02  0.30718501542E+02  0.00000000000E+00 0. -1.
         -5    1    3    3    0  503 -0.90704259589E+02 -0.13020712802E+02 -0.29643221312E+02  0.96424126852E+02  0.47000000000E+01 0.  1.
         11    1    4    4    0    0  0.38904621081E+02  0.36828854456E+02 -0.16468194577E+02  0.56045833874E+02  0.00000000000E+00 0. -1.
        -12    1    4    4    0    0 -0.37962566433E+02  0.48328936823E+02 -0.26986061691E+02  0.67119968044E+02  0.00000000000E+00 0.  1.
</event>
<event>
12    1  0.8053217E-002  0.1798406E+03  0.7818608E-02  0.1168031E+00
         21   -1    0    0  501  502  0.00000000000E+00  0.00000000000E+00  0.54154742013E+03  0.54154742013E+03  0.00000000000E+00 0.  1.
         21   -1    0    0  502  503 -0.00000000000E+00 -0.00000000000E+00 -0.75142940676E+02  0.75142940676E+02  0.00000000000E+00 0.  1.
         -6    2    1    2    0  503  0.45981146644E+02 -0.16242957724E+02  0.92909922165E+02  0.20215345885E+03  0.17278792714E+03 0.  0.
        -24    2    3    3    0    0  0.86399471409E+02 -0.91752156816E+01  0.19583302036E+02  0.11799600419E+03  0.77398307762E+02 0.  0.
          6    2    1    2  501    0 -0.45981146644E+02  0.16242957724E+02  0.37349455729E+03  0.41453690196E+03  0.17310274186E+03 0.  0.
         24    2    5    5    0    0 -0.63279390136E+02  0.74887971306E+01  0.38056935924E+03  0.39337071718E+03  0.76466467472E+02 0.  0.
          5    1    5    5  501    0  0.17298243492E+02  0.87541605936E+01 -0.70748019445E+01  0.21166184780E+02  0.47000000000E+01 0. -1.
        -13    1    6    6    0    0 -0.17535563284E+02 -0.33630591649E+02  0.13668417626E+03  0.14184878115E+03  0.00000000000E+00 0.  1.
         14    1    6    6    0    0 -0.45743826852E+02  0.41119388779E+02  0.24388518298E+03  0.25152193603E+03  0.00000000000E+00 0. -1.
         -5    1    3    3    0  503 -0.40418324765E+02 -0.70677420426E+01  0.73326620128E+02  0.84157454654E+02  0.47000000000E+01 0.  1.
         11    1    4    4    0    0  0.43719518134E+02  0.34050638793E+02  0.12785675210E+02  0.56871044994E+02  0.00000000000E+00 0. -1.
        -12    1    4    4    0    0  0.42679953275E+02 -0.43225854475E+02  0.67976268269E+01  0.61124959199E+02  0.00000000000E+00 0.  1.
</event>
<event>
12    1  0.8053217E-002  0.1867974E+03  0.7818608E-02  0.1161485E+00
         21   -1    0    0  501  502  0.00000000000E+00  0.00000000000E+00  0.15348331217E+03  0.15348331217E+03  0.00000000000E+00 0.  1.
         21   -1    0    0  502  503 -0.00000000000E+00 -0.00000000000E+00 -0.29631205196E+03  0.29631205196E+03  0.00000000000E+00 0.  1.
         -6    2    1    2    0  503 -0.62448866248E+02 -0.36940397714E+02 -0.18040890232E+03  0.25969335091E+03  0.17213021407E+03 0.  0.
        -24    2    3    3    0    0  0.25352124837E+02  0.39830262280E+01 -0.10662334497E+03  0.13783220397E+03  0.83490023508E+02 0.  0.
          6    2    1    2  501    0  0.62448866248E+02  0.36940397714E+02  0.37580162518E+02  0.19010201322E+03  0.17164513665E+03 0.  0.
         24    2    5    5    0    0  0.95844496457E+02  0.13366288978E+02  0.64161491112E+02  0.14111565032E+03  0.80200403002E+02 0.  0.
          5    1    5    5  501    0 -0.33395630209E+02  0.23574108736E+02 -0.26581328594E+02  0.48986362894E+02  0.47000000000E+01 0. -1.
        -11    1    6    6    0    0  0.94360423156E+02 -0.38161264175E+01  0.24047246182E+02  0.97451127895E+02  0.00000000000E+00 0.  1.
         12    1    6    6    0    0  0.14840733008E+01  0.17182415396E+02  0.40114244930E+02  0.43664522426E+02  0.00000000000E+00 0. -1.
         -5    1    3    3    0  503 -0.87800991084E+02 -0.40923423942E+02 -0.73785557341E+02  0.12186114694E+03  0.47000000000E+01 0.  1.
         11    1    4    4    0    0  0.43353623995E+02 -0.26776551844E+02 -0.53712525241E+02  0.74037529739E+02  0.00000000000E+00 0. -1.
        -12    1    4    4    0    0 -0.18001499158E+02  0.30759578072E+02 -0.52910819733E+02  0.63794674229E+02  0.00000000000E+00 0.  1.
</event>
<event>
12    1  0.8053217E-002  0.1760509E+03  0.7818608E-02  0.1171798E+00
         21   -1    0    0  501  502  0.00000000000E+00  0.00000000000E+00  0.64800522753E+03  0.64800522753E+03  0.00000000000E+00 0. -1.
         21   -1    0    0  502  503 -0.00000000000E+00 -0.00000000000E+00 -0.13035381439E+03  0.13035381439E+03  0.00000000000E+00 0. -1.
         -6    2    1    2    0  503  0.22638453242E+02  0.34578267044E+02 -0.50942297408E+02  0.18327309341E+03  0.17113080666E+03 0.  0.
        -24    2    3    3    0    0  0.76791750104E+01 -0.23671016064E+02  0.21783341278E+02  0.88785700019E+02  0.82395994079E+02 0.  0.
          6    2    1    2  501    0 -0.22638453242E+02 -0.34578267044E+02  0.56859371055E+03  0.59508594850E+03  0.17064677646E+03 0.  0.
         24    2    5    5    0    0 -0.33986661571E+02  0.18207463991E+02  0.15664492808E+03  0.17958744717E+03  0.78913958073E+02 0.  0.
          5    1    5    5  501    0  0.11348208330E+02 -0.52785731035E+02  0.41194878247E+03  0.41549850134E+03  0.47000000000E+01 0. -1.
        -13    1    6    6    0    0  0.20131619660E+02 -0.14268109002E+02  0.46489143090E+02  0.52631753437E+02  0.00000000000E+00 0.  1.
         14    1    6    6    0    0 -0.54118281232E+02  0.32475572993E+02  0.11015578499E+03  0.12695569373E+03  0.00000000000E+00 0. -1.
         -5    1    3    3    0  503  0.14959278231E+02  0.58249283108E+02 -0.72725638687E+02  0.94487393393E+02  0.47000000000E+01 0.  1.
         13    1    4    4    0    0 -0.33457392510E+02  0.54223548267E+01  0.17695556579E+02  0.38235216333E+02  0.00000000000E+00 0. -1.
        -14    1    4    4    0    0  0.41136567520E+02 -0.29093370890E+02  0.40877846997E+01  0.50550483686E+02  0.00000000000E+00 0.  1.
</event>
<event>
12    1  0.8053217E-002  0.1772048E+03  0.7818608E-02  0.1170633E+00
         21   -1    0    0  501  502  0.00000000000E+00  0.00000000000E+00  0.61658454162E+03  0.61658454162E+03  0.00000000000E+00 0.  1.
         21   -1    0    0  502  503 -0.00000000000E+00 -0.00000000000E+00 -0.58377587395E+02  0.58377587395E+02  0.00000000000E+00 0.  1.
         -6    2    1    2    0  503 -0.71390378259E+01 -0.41137039658E+02  0.15737307853E+03  0.23670495736E+03  0.17181306441E+03 0.  0.
        -24    2    3    3    0    0 -0.54724424668E+01  0.25442552829E+02  0.14710759921E+03  0.16915431161E+03  0.79342701431E+02 0.  0.
          6    2    1    2  501    0  0.71390378259E+01  0.41137039658E+02  0.40083387569E+03  0.43825717165E+03  0.17221594209E+03 0.  0.
         24    2    5    5    0    0  0.10075985832E+02 -0.36502972837E+02  0.28571562864E+03  0.29929351451E+03  0.80679581422E+02 0.  0.
          5    1    5    5  501    0 -0.29369480056E+01  0.77640012495E+02  0.11511824705E+03  0.13896365714E+03  0.47000000000E+01 0. -1.
        -13    1    6    6    0    0 -0.34641924144E+01  0.18907699340E+02  0.20864370501E+02  0.28369414513E+02  0.00000000000E+00 0.  1.
         14    1    6    6    0    0  0.13540178246E+02 -0.55410672176E+02  0.26485125814E+03  0.27092409999E+03  0.00000000000E+00 0. -1.
         -5    1    3    3    0  503 -0.16665953591E+01 -0.66579592488E+02  0.10265479325E+02  0.67550645753E+02  0.47000000000E+01 0.  1.
         11    1    4    4    0    0  0.17367682470E+02  0.18238918047E+02  0.14257204697E+03  0.14477942914E+03  0.00000000000E+00 0. -1.
        -12    1    4    4    0    0 -0.22840124936E+02  0.72036347821E+01  0.45355522395E+01  0.24374882467E+02  0.00000000000E+00 0.  1.
</event>
<event>
12    1  0.8053217E-002  0.2372295E+03  0.7818608E-02  0.1121910E+00
         21   -1    0    0  501  502  0.00000000000E+00  0.00000000000E+00  0.55436507905E+03  0.55436507905E+03  0.00000000000E+00 0. -1.
         21   -1    0    0  502  503 -0.00000000000E+00 -0.00000000000E+00 -0.35552748680E+03  0.35552748680E+03  0.00000000000E+00 0.  1.
         -6    2    1    2    0  503 -0.15111109385E+03 -0.59183234401E+02 -0.28552814125E+03  0.37121979919E+03  0.17303352839E+03 0.  0.
        -24    2    3    3    0    0 -0.12983560418E+03 -0.31091410384E+02 -0.29570978976E+03  0.33423935837E+03  0.80297627677E+02 0.  0.
          6    2    1    2  501    0  0.15111109385E+03  0.59183234401E+02  0.48436573350E+03  0.53867276665E+03  0.17094141634E+03 0.  0.
         24    2    5    5    0    0  0.35237609887E+02  0.70968443715E+02  0.30613265305E+03  0.32570639275E+03  0.78033607259E+02 0.  0.
          5    1    5    5  501    0  0.11587348396E+03 -0.11785209314E+02  0.17823308045E+03  0.21296637390E+03  0.47000000000E+01 0. -1.
        -11    1    6    6    0    0 -0.10191616244E+02  0.26633890555E+02  0.20012598483E+03  0.20214757721E+03  0.00000000000E+00 0.  1.
         12    1    6    6    0    0  0.45429226132E+02  0.44334553160E+02  0.10600666822E+03  0.12355881554E+03  0.00000000000E+00 0. -1.
         -5    1    3    3    0  503 -0.21275489667E+02 -0.28091824017E+02  0.10181648506E+02  0.36980440823E+02  0.47000000000E+01 0.  1.
         13    1    4    4    0    0 -0.34502071329E+01 -0.22909368577E+02 -0.19144280995E+02  0.30054061167E+02  0.00000000000E+00 0. -1.
        -14    1    4    4    0    0 -0.12638539705E+03 -0.81820418069E+01 -0.27656550877E+03  0.30418529720E+03  0.00000000000E+00 0.  1.
</event>
<event>
12    1  0.8053217E-002  0.2952907E+03  0.7818608E-02  0.1087771E+00
         21   -1    0    0  503  502  0.00000000000E+00  0.00000000000E+00  0.16650244841E+03  0.16650244841E+03  0.00000000000E+00 0. -1.
         21   -1    0    0  501  503 -0.00000000000E+00 -0.00000000000E+00 -0.12349058727E+04  0.12349058727E+04  0.00000000000E+00 0. -1.
          6    2    1    2  501    0  0.27032780318E+02  0.23868567929E+03 -0.10672097797E+04  0.11073090386E+04  0.17174099185E+03 0.  0.
         24    2    3    3    0    0  0.48962245507E+02  0.12426433697E+03 -0.31500651104E+03  0.34612246983E+03  0.52275569826E+02 0.  0.
         -6    2    1    2    0  502 -0.27032780318E+02 -0.23868567929E+03 -0.11936445296E+01  0.29409928248E+03  0.16968010626E+03 0.  0.
        -24    2    5    5    0    0 -0.58243594140E+02 -0.24182959101E+03 -0.90020313118E+01  0.26143339838E+03  0.79953223042E+02 0.  0.
          5    1    3    3  501    0 -0.21929465189E+02  0.11442134232E+03 -0.75220326871E+03  0.76118656877E+03  0.47000000000E+01 0. -1.
        -13    1    4    4    0    0 -0.39247670670E+01 -0.12357435686E+01 -0.16181178841E+01  0.44214436765E+01  0.00000000000E+00 0.  1.
         14    1    4    4    0    0  0.52887012574E+02  0.12550008054E+03 -0.31338839315E+03  0.34170102616E+03  0.00000000000E+00 0. -1.
         -5    1    5    5    0  502  0.31210813822E+02  0.31439117180E+01  0.78083867822E+01  0.32665884106E+02  0.47000000000E+01 0.  1.
         11    1    6    6    0    0  0.11006814527E+02 -0.16668831496E+02 -0.16253671116E+02  0.25752315124E+02  0.00000000000E+00 0. -1.
        -12    1    6    6    0    0 -0.69250408667E+02 -0.22516075951E+03  0.72516398045E+01  0.23568108325E+03  0.00000000000E+00 0.  1.
</event>
<event>
12    1  0.8053217E-002  0.2544795E+03  0.7818608E-02  0.1112097E+00
         21   -1    0    0  501  502  0.00000000000E+00  0.00000000000E+00  0.45837295040E+03  0.45837295040E+03  0.00000000000E+00 0.  1.
         21   -1    0    0  502  503 -0.00000000000E+00 -0.00000000000E+00 -0.29179572032E+03  0.29179572032E+03  0.00000000000E+00 0. -1.
         -6    2    1    2    0  503  0.10535108664E+03  0.13845622294E+03 -0.19177026241E+03  0.31065448164E+03  0.17164322384E+03 0.  0.
        -24    2    3    3    0    0  0.57442409252E+02  0.15287086571E+03 -0.10344842918E+03  0.20903824514E+03  0.79537905846E+02 0.  0.
          6    2    1    2  501    0 -0.10535108664E+03 -0.13845622294E+03  0.35834749249E+03  0.43951418908E+03  0.18571704256E+03 0.  0.
         24    2    5    5    0    0 -0.94650857188E+01 -0.97749291343E+02  0.28491567223E+03  0.31197791314E+03  0.80676924823E+02 0.  0.
          5    1    5    5  501    0 -0.95886000923E+02 -0.40706931594E+02  0.73431820260E+02  0.12753627594E+03  0.47000000000E+01 0. -1.
        -11    1    6    6    0    0 -0.29599156380E+01  0.10537369319E+02  0.73941409412E+02  0.74747102142E+02  0.00000000000E+00 0.  1.
         12    1    6    6    0    0 -0.65051700808E+01 -0.10828666066E+03  0.21097426282E+03  0.23723081100E+03  0.00000000000E+00 0. -1.
         -5    1    3    3    0  503  0.47908677390E+02 -0.14414642773E+02 -0.88321833236E+02  0.10161623651E+03  0.47000000000E+01 0.  1.
         11    1    4    4    0    0 -0.15866334422E+02  0.47130428964E+02 -0.47375528829E+02  0.68683758154E+02  0.00000000000E+00 0. -1.
        -12    1    4    4    0    0  0.73308743675E+02  0.10574043675E+03 -0.56072900350E+02  0.14035448698E+03  0.00000000000E+00 0.  1.
</event>
<event>
12    1  0.8053217E-002  0.2207462E+03  0.7818608E-02  0.1133341E+00
         21   -1    0    0  501  502  0.00000000000E+00  0.00000000000E+00  0.73575192153E+02  0.73575192153E+02  0.00000000000E+00 0. -1.
         21   -1    0    0  502  503 -0.00000000000E+00 -0.00000000000E+00 -0.66386068530E+03  0.66386068530E+03  0.00000000000E+00 0.  1.
         -6    2    1    2    0  503  0.81353843502E+02  0.11212758315E+03 -0.27600615651E+03  0.35337806079E+03  0.17177197868E+03 0.  0.
        -24    2    3    3    0    0  0.10439942868E+03  0.10507227511E+03 -0.14902697175E+03  0.22404639518E+03  0.77770979016E+02 0.  0.
          6    2    1    2  501    0 -0.81353843502E+02 -0.11212758315E+03 -0.31427933664E+03  0.38405781666E+03  0.17186582659E+03 0.  0.
         24    2    5    5    0    0 -0.57848656171E+02 -0.14750465031E+03 -0.26946264984E+03  0.32213321632E+03  0.77817739088E+02 0.  0.
          5    1    5    5  501    0 -0.23505187331E+02  0.35377067156E+02 -0.44816686796E+02  0.61924600341E+02  0.47000000000E+01 0. -1.
        -11    1    6    6    0    0 -0.35982738212E+01 -0.53607312033E+02 -0.35885091002E+02  0.64609838524E+02  0.00000000000E+00 0.  1.
         12    1    6    6    0    0 -0.54250382350E+02 -0.93897338273E+02 -0.23357755884E+03  0.25752337780E+03  0.00000000000E+00 0. -1.
         -5    1    3    3    0  503 -0.23045585182E+02  0.70553080426E+01 -0.12697918475E+03  0.12933166560E+03  0.47000000000E+01 0.  1.
         13    1    4    4    0    0  0.81603656663E+02  0.11389882611E+03 -0.13976705124E+03  0.19790636166E+03  0.00000000000E+00 0. -1.
        -14    1    4    4    0    0  0.22795772021E+02 -0.88265510067E+01 -0.92599205106E+01  0.26140033523E+02  0.00000000000E+00 0.  1.
</event>
<event>
12    1  0.8053217E-002  0.2068298E+03  0.7818608E-02  0.1144443E+00
         21   -1    0    0  503  502  0.00000000000E+00  0.00000000000E+00  0.52832881905E+02  0.52832881905E+02  0.00000000000E+00 0.  1.
         21   -1    0    0  501  503 -0.00000000000E+00 -0.00000000000E+00 -0.82646608520E+03  0.82646608520E+03  0.00000000000E+00 0.  1.
          6    2    1    2  501    0  0.76769076703E+02  0.81409240181E+02 -0.46225896819E+03  0.50642070216E+03  0.17394717124E+03 0.  0.
         24    2    3    3    0    0  0.19136940343E+00 -0.16388546861E+02 -0.20867542525E+03  0.22401097206E+03  0.79792615011E+02 0.  0.
         -6    2    1    2    0  502 -0.76769076703E+02 -0.81409240181E+02 -0.31137423510E+03  0.37287826494E+03  0.17193990419E+03 0.  0.
        -24    2    5    5    0    0 -0.16707358240E+02 -0.10164634252E+03 -0.14397296528E+03  0.19381898572E+03  0.78907982669E+02 0.  0.
          5    1    3    3  501    0  0.76577707300E+02  0.97797787042E+02 -0.25358354295E+03  0.28240973011E+03  0.47000000000E+01 0. -1.
        -13    1    4    4    0    0  0.38417555673E+02 -0.13323063908E+02 -0.13444972219E+03  0.14046401822E+03  0.00000000000E+00 0.  1.
         14    1    4    4    0    0 -0.38226186269E+02 -0.30654829529E+01 -0.74225703050E+02  0.83546953839E+02  0.00000000000E+00 0. -1.
         -5    1    5    5    0  502 -0.60061718463E+02  0.20237102335E+02 -0.16740126982E+03  0.17905927922E+03  0.47000000000E+01 0.  1.
         13    1    6    6    0    0 -0.37433464637E+02 -0.84416369908E+02 -0.72408311179E+02  0.11734714019E+03  0.00000000000E+00 0. -1.
        -14    1    6    6    0    0  0.20726106397E+02 -0.17229972608E+02 -0.71564654103E+02  0.76471845534E+02  0.00000000000E+00 0.  1.
</event>
<event>
12    1  0.8053217E-002  0.1846936E+03  0.7818608E-02  0.1163812E+00
         21   -1    0    0  501  502  0.00000000000E+00  0.00000000000E+00  0.21830912720E+03  0.21830912720E+03  0.00000000000E+00 0.  1.
         21   -1    0    0  502  503 -0.00000000000E+00 -0.00000000000E+00 -0.15506267246E+03  0.15506267246E+03  0.00000000000E+00 0.  1.
         -6    2    1    2    0  503  0.54418680903E+02  0.37548895810E+02  0.42534581235E+02  0.18952811513E+03  0.17245406176E+03 0.  0.
        -24    2    3    3    0    0 -0.16716089985E+02  0.62876367490E+02 -0.31678226082E+00  0.10258005130E+03  0.79307637212E+02 0.  0.
          6    2    1    2  501    0 -0.54418680903E+02 -0.37548895810E+02  0.20711873512E+02  0.18384368453E+03  0.17028859688E+03 0.  0.
         24    2    5    5    0    0 -0.14926199344E+02 -0.83394515790E+02 -0.61634965543E+01  0.11746708860E+03  0.81136252830E+02 0.  0.
          5    1    5    5  501    0 -0.39492481559E+02  0.45845619980E+02  0.26875370067E+02  0.66376595930E+02  0.47000000000E+01 0. -1.
        -11    1    6    6    0    0 -0.38040113581E+02 -0.80000044443E+02  0.98710750065E+01  0.89131899306E+02  0.00000000000E+00 0.  1.
         12    1    6    6    0    0  0.23113914237E+02 -0.33944713470E+01 -0.16034571561E+02  0.28335189292E+02  0.00000000000E+00 0. -1.
         -5    1    3    3    0  503  0.71134770888E+02 -0.25327471680E+02  0.42851363495E+02  0.86948063833E+02  0.47000000000E+01 0.  1.
         11    1    4    4    0    0 -0.34125083372E+02  0.13643153675E+02 -0.25373224761E+02  0.44659349437E+02  0.00000000000E+00 0. -1.
        -12    1    4    4    0    0  0.17408993388E+02  0.49233213815E+02  0.25056442500E+02  0.57920701861E+02  0.00000000000E+00 0.  1.
</event>
<event>
12    1  0.8053217E-002  0.2110483E+03  0.7818608E-02  0.1142015E+00
         21   -1    0    0  503  502  0.00000000000E+00  0.00000000000E+00  0.27109879230E+03  0.27109879230E+03  0.00000000000E+00 0. -1.
         21   -1    0    0  501  503 -0.00000000000E+00 -0.00000000000E+00 -0.25703163222E+03  0.25703163222E+03  0.00000000000E+00 0. -1.
          6    2    1    2  501    0 -0.10686499576E+03  0.58676321122E+02 -0.15579634293E+03  0.25721529474E+03  0.16439029594E+03 0.  0.
         24    2    3    3    0    0 -0.43676825572E+02  0.89091325713E+02 -0.13002611006E+03  0.18235534378E+03  0.80633446524E+02 0.  0.
         -6    2    1    2    0  502  0.10686499576E+03 -0.58676321122E+02  0.16986350301E+03  0.27091512978E+03  0.17227408368E+03 0.  0.
        -24    2    5    5    0    0  0.76524656188E+02  0.38802079763E+01  0.32214436404E+02  0.11663223677E+03  0.81818272544E+02 0.  0.
          5    1    3    3  501    0 -0.63188170190E+02 -0.30415004591E+02 -0.25770232874E+02  0.74859950966E+02  0.47000000000E+01 0. -1.
        -11    1    4    4    0    0  0.96755998803E+01 -0.57966521151E+01 -0.38546375571E+02  0.40162687639E+02  0.00000000000E+00 0.  1.
         12    1    4    4    0    0 -0.53352425452E+02  0.94887977828E+02 -0.91479734485E+02  0.14219265614E+03  0.00000000000E+00 0. -1.
         -5    1    5    5    0  502  0.30340339574E+02 -0.62556529098E+02  0.13764906661E+03  0.15428289301E+03  0.47000000000E+01 0.  1.
         11    1    6    6    0    0  0.26716605973E+02 -0.24896603578E+02 -0.17598896078E+02  0.40538118452E+02  0.00000000000E+00 0. -1.
        -12    1    6    6    0    0  0.49808050215E+02  0.28776811555E+02  0.49813332482E+02  0.76094118317E+02  0.00000000000E+00 0.  1.
</event>
<event>
12    1  0.8053217E-002  0.2293817E+03  0.7818608E-02  0.1127110E+00
         21   -1    0    0  501  502  0.00000000000E+00  0.00000000000E+00  0.34565845479E+02  0.34565845479E+02  0.00000000000E+00 0. -1.
         21   -1    0    0  502  503 -0.00000000000E+00 -0.00000000000E+00 -0.19321445111E+04  0.19321445111E+04  0.00000000000E+00 0. -1.
         -6    2    1    2    0  503  0.67066352052E+02  0.13615065735E+03 -0.14027582862E+04  0.14213890369E+04  0.17199153340E+03 0.  0.
        -24    2    3    3    0    0  0.73200429003E+02  0.65987311983E+02 -0.49104159142E+03  0.50694388079E+03  0.78470539825E+02 0.  0.
          6    2    1    2  501    0 -0.67066352052E+02 -0.13615065735E+03 -0.49482037936E+03  0.54532131965E+03  0.17173595069E+03 0.  0.
         24    2    5    5    0    0  0.17933385295E+02 -0.74748295788E+02 -0.16721069585E+03  0.20130765701E+03  0.81587020609E+02 0.  0.
          5    1    5    5  501    0 -0.84999737347E+02 -0.61402361557E+02 -0.32760968351E+03  0.34401366264E+03  0.47000000000E+01 0. -1.
        -13    1    6    6    0    0 -0.20046754423E+02  0.27667381831E+01 -0.61994645204E+02  0.65213980380E+02  0.00000000000E+00 0.  1.
         14    1    6    6    0    0  0.37980139717E+02 -0.77515033971E+02 -0.10521605065E+03  0.13609367663E+03  0.00000000000E+00 0. -1.
         -5    1    3    3    0  503 -0.61340769507E+01  0.70163345362E+02 -0.91171669482E+03  0.91444515612E+03  0.47000000000E+01 0.  1.
         11    1    4    4    0    0  0.19451054049E+02  0.54959300962E+02 -0.36284259231E+03  0.36749641503E+03  0.00000000000E+00 0. -1.
        -12    1    4    4    0    0  0.53749374953E+02  0.11028011022E+02 -0.12819899911E+03  0.13944746577E+03  0.00000000000E+00 0.  1.
</event>
<event>
12    1  0.8053217E-002  0.2381753E+03  0.7818608E-02  0.1121274E+00
         21   -1    0    0  501  502  0.00000000000E+00  0.00000000000E+00  0.46878029395E+03  0.46878029395E+03  0.00000000000E+00 0. -1.
         21   -1    0    0  502  503 -0.00000000000E+00 -0.00000000000E+00 -0.22592938630E+03  0.22592938630E+03  0.00000000000E+00 0. -1.
         -6    2    1    2    0  503 -0.16111328739E+03 -0.32930558119E+02 -0.11595199197E+03  0.26490062504E+03  0.17229499028E+03 0.  0.
        -24    2    3    3    0    0 -0.11467095352E+03 -0.86733915155E+02 -0.98124121692E+02  0.19147301060E+03  0.79758202791E+02 0.  0.
          6    2    1    2  501    0  0.16111328739E+03  0.32930558119E+02  0.35880289962E+03  0.42980905521E+03  0.17015989579E+03 0.  0.
         24    2    5    5    0    0  0.18147673448E+03  0.91130374968E+01  0.33803453188E+03  0.39192291837E+03  0.79494506661E+02 0.  0.
          5    1    5    5  501    0 -0.20363447096E+02  0.23817520622E+02  0.20768367742E+02  0.37886136843E+02  0.47000000000E+01 0. -1.
        -13    1    6    6    0    0 -0.78132672953E+00 -0.14478447944E+02  0.22383593864E+02  0.26669480696E+02  0.00000000000E+00 0.  1.
         14    1    6    6    0    0  0.18225806121E+03  0.23591485441E+02  0.31565093802E+03  0.36525343767E+03  0.00000000000E+00 0. -1.
         -5    1    3    3    0  503 -0.46442333865E+02  0.53803357036E+02 -0.17827870276E+02  0.73427614436E+02  0.47000000000E+01 0.  1.
         13    1    4    4    0    0 -0.32183225375E+02 -0.69217396369E+02 -0.67059685800E+02  0.10160614851E+03  0.00000000000E+00 0. -1.
        -14    1    4    4    0    0 -0.82487728148E+02 -0.17516518786E+02 -0.31064435891E+02  0.89866862094E+02  0.00000000000E+00 0.  1.
</event>
<event>
12    1  0.8053217E-002  0.2619408E+03  0.7818608E-02  0.1105994E+00
         21   -1    0    0  503  502  0.00000000000E+00  0.00000000000E+00  0.10181325950E+03  0.10181325950E+03  0.00000000000E+00 0. -1.
         21   -1    0    0  501  503 -0.00000000000E+00 -0.00000000000E+00 -0.67399007851E+03  0.67399007851E+03  0.00000000000E+00 0.  1.
          6    2    1    2  501    0  0.81816133071E+02  0.17941236573E+03 -0.27825448740E+03  0.38214989819E+03  0.17242479033E+03 0.  0.
         24    2    3    3    0    0  0.10732554211E+03  0.14616801054E+03 -0.27614014847E+03  0.33993050063E+03  0.80096843678E+02 0.  0.
         -6    2    1    2    0  502 -0.81816133071E+02 -0.17941236573E+03 -0.29392233161E+03  0.39365343982E+03  0.17230791351E+03 0.  0.
        -24    2    5    5    0    0 -0.70355384512E+02 -0.16055336001E+03 -0.14011687449E+03  0.23820177694E+03  0.79875443528E+02 0.  0.
          5    1    3    3  501    0 -0.25509409035E+02  0.33244355191E+02 -0.21143389336E+01  0.42219397562E+02  0.47000000000E+01 0. -1.
        -13    1    4    4    0    0  0.31134172104E+02  0.23387249252E+01 -0.74625280603E+02  0.80893379284E+02  0.00000000000E+00 0.  1.
         14    1    4    4    0    0  0.76191370002E+02  0.14382928561E+03 -0.20151486786E+03  0.25903712134E+03  0.00000000000E+00 0. -1.
         -5    1    5    5    0  502 -0.11460748559E+02 -0.18859005719E+02 -0.15380545711E+03  0.15545166288E+03  0.47000000000E+01 0.  1.
         13    1    6    6    0    0  0.34358822157E+01 -0.82385554238E+02 -0.41450219204E+02  0.92289249134E+02  0.00000000000E+00 0. -1.
        -14    1    6    6    0    0 -0.73791266727E+02 -0.78167805773E+02 -0.98666655290E+02  0.14591252781E+03  0.00000000000E+00 0.  1.
</event>
<event>
12    1  0.8053217E-002  0.2051900E+03  0.7818608E-02  0.1145704E+00
         21   -1    0    0  501  502  0.00000000000E+00  0.00000000000E+00  0.48521276386E+03  0.48521276386E+03  0.00000000000E+00 0.  1.
         21   -1    0    0  502  503 -0.00000000000E+00 -0.00000000000E+00 -0.74475138101E+03  0.74475138101E+03  0.00000000000E+00 0.  1.
         -6    2    1    2    0  503 -0.10961137421E+03 -0.14440225494E+02 -0.70801257146E+03  0.73677874350E+03  0.17128322177E+03 0.  0.
        -24    2    3    3    0    0 -0.55172435254E+02 -0.32080778604E+02 -0.18920228461E+03  0.21480078331E+03  0.79175109972E+02 0.  0.
          6    2    1    2  501    0  0.10961137421E+03  0.14440225494E+02  0.44847395431E+03  0.49318540137E+03  0.17285768410E+03 0.  0.
         24    2    5    5    0    0  0.69165404071E+02 -0.62655802972E+02  0.21678939929E+03  0.24563844189E+03  0.68051434420E+02 0.  0.
          5    1    5    5  501    0  0.40445970141E+02  0.77096028466E+02  0.23168455503E+03  0.24754695947E+03  0.47000000000E+01 0. -1.
        -13    1    6    6    0    0  0.72341866222E+02 -0.27142484347E+02  0.17065502864E+03  0.18733178819E+03  0.00000000000E+00 0.  1.
         14    1    6    6    0    0 -0.31764621509E+01 -0.35513318625E+02  0.46134370644E+02  0.58306653705E+02  0.00000000000E+00 0. -1.
         -5    1    3    3    0  503 -0.54438938958E+02  0.17640553110E+02 -0.51881028685E+03  0.52197796020E+03  0.47000000000E+01 0.  1.
         13    1    4    4    0    0 -0.16957925734E+02 -0.42741289392E+02 -0.15732524287E+03  0.16390735526E+03  0.00000000000E+00 0. -1.
        -14    1    4    4    0    0 -0.38214509521E+02  0.10660510788E+02 -0.31877041742E+02  0.50893428047E+02  0.00000000000E+00 0.  1.
</event>
<event>
12    1  0.8053217E-002  0.2394946E+03  0.7818608E-02  0.1120227E+00
         21   -1    0    0  501  502  0.00000000000E+00  0.00000000000E+00  0.15658865980E+03  0.15658865980E+03  0.00000000000E+00 0. -1.
         21   -1    0    0  502  503 -0.00000000000E+00 -0.00000000000E+00 -0.41718632710E+03  0.41718632710E+03  0.00000000000E+00 0.  1.
         -6    2    1    2    0  503  0.28796632008E+02  0.16465077281E+03 -0.23122962317E+03  0.33248645494E+03  0.17070729651E+03 0.  0.
        -24    2    3    3    0    0 -0.13428586203E+02  0.17031716392E+03 -0.21551429040E+03  0.28683408671E+03  0.81480799435E+02 0.  0.
          6    2    1    2  501    0 -0.28796632008E+02 -0.16465077281E+03 -0.29368044130E+02  0.24128853196E+03  0.17151836822E+03 0.  0.
         24    2    5    5    0    0  0.44124250637E+02 -0.55618363335E+02  0.79529968053E+00  0.10661322334E+03  0.79532352258E+02 0.  0.
          5    1    5    5  501    0 -0.72920882644E+02 -0.10903240947E+03 -0.30163343811E+02  0.13467530862E+03  0.47000000000E+01 0. -1.
        -11    1    6    6    0    0  0.49751768385E+01  0.50192780787E+00 -0.30829521398E+02  0.31232414343E+02  0.00000000000E+00 0.  1.
         12    1    6    6    0    0  0.39149073798E+02 -0.56120291142E+02  0.31624821078E+02  0.75380808999E+02  0.00000000000E+00 0. -1.
         -5    1    3    3    0  503  0.42225218210E+02 -0.56663911086E+01 -0.15715332771E+02  0.45652368232E+02  0.47000000000E+01 0.  1.
         11    1    4    4    0    0 -0.29068282937E+02  0.11297576153E+03 -0.18820046845E+03  0.22142245616E+03  0.00000000000E+00 0. -1.
        -12    1    4    4    0    0  0.15639696735E+02  0.57341402384E+02 -0.27313821957E+02  0.65411630550E+02  0.00000000000E+00 0.  1.
</event>
<event>
12    1  0.8053217E-002  0.2694959E+03  0.7818608E-02  0.1101593E+00
         21   -1    0    0  503  502  0.00000000000E+00  0.00000000000E+00  0.37911023670E+03  0.37911023670E+03  0.00000000000E+00 0.  1.
         21   -1    0    0  501  503 -0.00000000000E+00 -0.00000000000E+00 -0.19462342023E+03  0.19462342023E+03  0.00000000000E+00 0.  1.
          6    2    1    2  501    0  0.67274057955E+02 -0.19827447614E+03  0.55666331230E+02  0.27518503620E+03  0.16967467977E+03 0.  0.
         24    2    3    3    0    0  0.78300460162E+02 -0.21909853937E+03  0.54779010284E+02  0.25114131575E+03  0.77046015442E+02 0.  0.
         -6    2    1    2    0  502 -0.67274057955E+02  0.19827447614E+03  0.12882048524E+03  0.29854862072E+03  0.16940482506E+03 0.  0.
        -24    2    5    5    0    0 -0.10487088725E+03  0.17371871302E+03  0.81148399090E+02  0.23288870240E+03  0.80473540890E+02 0.  0.
          5    1    3    3  501    0 -0.11026402207E+02  0.20824063222E+02  0.88732094637E+00  0.24043720452E+02  0.47000000000E+01 0. -1.
        -11    1    4    4    0    0  0.47663525063E+02 -0.16577778386E+03  0.59140258117E+01  0.17259507798E+03  0.00000000000E+00 0.  1.
         12    1    4    4    0    0  0.30636935100E+02 -0.53320755509E+02  0.48864984472E+02  0.78546237770E+02  0.00000000000E+00 0. -1.
         -5    1    5    5    0  502  0.37596829298E+02  0.24555763122E+02  0.47672086153E+02  0.65659918321E+02  0.47000000000E+01 0.  1.
         11    1    6    6    0    0 -0.29214905524E+02  0.82448752645E+01 -0.63203955413E+01  0.31007032633E+02  0.00000000000E+00 0. -1.
        -12    1    6    6    0    0 -0.75655981729E+02  0.16547383776E+03  0.87468794631E+02  0.20188166977E+03  0.00000000000E+00 0.  1.
</event>
<event>
12    1  0.8053217E-002  0.1932220E+03  0.7818608E-02  0.1155613E+00
         21   -1    0    0  503  502  0.00000000000E+00  0.00000000000E+00  0.53380881177E+03  0.53380881177E+03  0.00000000000E+00 0.  1.
         21   -1    0    0  501  503 -0.00000000000E+00 -0.00000000000E+00 -0.70093215029E+02  0.70093215029E+02  0.00000000000E+00 0.  1.
          6    2    1    2  501    0 -0.79665300407E+02 -0.38647440135E+02  0.24771291887E+03  0.31408847840E+03  0.17160914127E+03 0.  0.
         24    2    3    3    0    0 -0.60455198757E+02 -0.64017659104E+02  0.25507536247E+03  0.28108890883E+03  0.78704780006E+02 0.  0.
         -6    2    1    2    0  502  0.79665300407E+02  0.38647440135E+02  0.21600267787E+03  0.28981354840E+03  0.17173977779E+03 0.  0.
        -24    2    5    5    0    0 -0.54097104786E+01  0.21451619681E+02  0.17571067884E+03  0.19400650845E+03  0.79213923705E+02 0.  0.
          5    1    3    3  501    0 -0.19210101651E+02  0.25370218969E+02 -0.73624435920E+01  0.32999569567E+02  0.47000000000E+01 0. -1.
        -13    1    4    4    0    0 -0.66493392953E+02 -0.33305934703E+02  0.11070849016E+03  0.13336801111E+03  0.00000000000E+00 0.  1.
         14    1    4    4    0    0  0.60381941962E+01 -0.30711724401E+02  0.14436687230E+03  0.14772089772E+03  0.00000000000E+00 0. -1.
         -5    1    5    5    0  502  0.85075010886E+02  0.17195820453E+02  0.40291999026E+02  0.95807039949E+02  0.47000000000E+01 0.  1.
         11    1    6    6    0    0 -0.33685868943E+02 -0.12665180556E+01  0.13646180821E+03  0.14056374687E+03  0.00000000000E+00 0. -1.
        -12    1    6    6    0    0  0.28276158464E+02  0.22718137737E+02  0.39248870634E+02  0.53442761584E+02  0.00000000000E+00 0.  1.
</event>
<event>
12    1  0.8053217E-002  0.2520297E+03  0.7818608E-02  0.1112223E+00
         21   -1    0    0  501  502  0.00000000000E+00  0.00000000000E+00  0.20236742855E+03  0.20236742855E+03  0.00000000000E+00 0. -1.
         21   -1    0    0  502  503 -0.00000000000E+00 -0.00000000000E+00 -0.37091492871E+03  0.37091492871E+03  0.00000000000E+00 0. -1.
         -6    2    1    2    0  503  0.86495504356E+02  0.16140932750E+03 -0.19835987492E+03  0.32072670939E+03  0.17316044253E+03 0.  0.
        -24    2    3    3    0    0  0.79829055786E+01  0.46171311539E+02 -0.15416009222E+03  0.17437186908E+03  0.66668567577E+02 0.  0.
          6    2    1    2  501    0 -0.86495504356E+02 -0.16140932750E+03  0.29812374760E+02  0.25255564787E+03  0.17135090985E+03 0.  0.
         24    2    5    5    0    0 -0.65680521135E+02 -0.19585836475E+02  0.97348860550E+01  0.10773727305E+03  0.82553111093E+02 0.  0.
          5    1    5    5  501    0 -0.20814983221E+02 -0.14182349103E+03  0.20077488705E+02  0.14481837482E+03  0.47000000000E+01 0. -1.
        -11    1    6    6    0    0 -0.58399562010E+02 -0.32822067101E+02 -0.23690577495E+02  0.71056599932E+02  0.00000000000E+00 0.  1.
         12    1    6    6    0    0 -0.72809591240E+01  0.13236230626E+02  0.33425463550E+02  0.36680673119E+02  0.00000000000E+00 0. -1.
         -5    1    3    3    0  503  0.78512598777E+02  0.11523801596E+03 -0.44199782699E+02  0.14635484030E+03  0.47000000000E+01 0.  1.
         11    1    4    4    0    0  0.25524963100E+02  0.44515531240E+02 -0.14637431175E+03  0.15510833441E+03  0.00000000000E+00 0. -1.
        -12    1    4    4    0    0 -0.17542057522E+02  0.16557802991E+01 -0.77857804687E+01  0.19263534671E+02  0.00000000000E+00 0.  1.
</event>
<event>
12    1  0.8053217E-002  0.2446800E+03  0.7818608E-02  0.1116729E+00
         21   -1    0    0  501  502  0.00000000000E+00  0.00000000000E+00  0.27634340144E+04  0.27634340144E+04  0.00000000000E+00 0. -1.
         21   -1    0    0  502  503 -0.00000000000E+00 -0.00000000000E+00 -0.33139568016E+02  0.33139568016E+02  0.00000000000E+00 0. -1.
         -6    2    1    2    0  503 -0.17394718851E+03  0.13922704701E+02  0.54220514159E+03  0.59485689185E+03  0.17151338173E+03 0.  0.
        -24    2    3    3    0    0 -0.10068862074E+03  0.61363768057E+02  0.23154861721E+03  0.27213868910E+03  0.80876409389E+02 0.  0.
          6    2    1    2  501    0  0.17394718851E+03 -0.13922704701E+02  0.21880893048E+04  0.22017166905E+04  0.17137710961E+03 0.  0.
         24    2    5    5    0    0  0.56991015125E+02 -0.49175896284E+02  0.13977740436E+04  0.14020030943E+04  0.78575790464E+02 0.  0.
          5    1    5    5  501    0  0.11695617338E+03  0.35253191583E+02  0.79031526119E+03  0.79971359629E+03  0.47000000000E+01 0. -1.
        -13    1    6    6    0    0  0.31430074756E+02 -0.63540328974E+02  0.69227607800E+03  0.69589610660E+03  0.00000000000E+00 0.  1.
         14    1    6    6    0    0  0.25560940369E+02  0.14364432689E+02  0.70549796557E+03  0.70610698766E+03  0.00000000000E+00 0. -1.
         -5    1    3    3    0  503 -0.73258567768E+02 -0.47441063356E+02  0.31065652438E+03  0.32271820275E+03  0.47000000000E+01 0.  1.
         13    1    4    4    0    0 -0.42483452508E+02  0.84024313324E+01  0.22571107620E+02  0.48835432715E+02  0.00000000000E+00 0. -1.
        -14    1    4    4    0    0 -0.58205168231E+02  0.52961336724E+02  0.20897750959E+03  0.22330325638E+03  0.00000000000E+00 0.  1.
</event>
<event>
12    1  0.8053217E-002  0.2774196E+03  0.7818608E-02  0.1097141E+00
         21   -1    0    0  503  502  0.00000000000E+00  0.00000000000E+00  0.51202239952E+02  0.51202239952E+02  0.00000000000E+00 0. -1.
         21   -1    0    0  501  503 -0.00000000000E+00 -0.00000000000E+00 -0.17218673582E+04  0.17218673582E+04  0.00000000000E+00 0. -1.
          6    2    1    2  501    0  0.68152739498E+02 -0.20642632641E+03 -0.11519754747E+04  0.11848514775E+04  0.17195611445E+03 0.  0.
         24    2    3    3    0    0  0.10810718063E+03 -0.18836640248E+03 -0.10177688399E+04  0.10435856676E+04  0.77772553666E+02 0.  0.
         -6    2    1    2    0  502 -0.68152739498E+02  0.20642632641E+03 -0.51868964355E+03  0.58821812065E+03  0.17235134754E+03 0.  0.
        -24    2    5    5    0    0 -0.40111339659E+02  0.22350366193E+03 -0.48390888919E+03  0.54015829994E+03  0.77719813996E+02 0.  0.
          5    1    3    3  501    0 -0.39954441127E+02 -0.18059923933E+02 -0.13420663482E+03  0.14126580991E+03  0.47000000000E+01 0. -1.
        -11    1    4    4    0    0  0.10822956833E+02 -0.24984676798E+01 -0.12773058929E+02  0.16927190250E+02  0.00000000000E+00 0.  1.
         12    1    4    4    0    0  0.97284223793E+02 -0.18586793480E+03 -0.10049957810E+04  0.10266584774E+04  0.00000000000E+00 0. -1.
         -5    1    5    5    0  502 -0.28041399839E+02 -0.17077335518E+02 -0.34780754357E+02  0.48059820713E+02  0.47000000000E+01 0.  1.
         13    1    6    6    0    0  0.19875643082E+02  0.10683021761E+03 -0.20968985928E+03  0.23617276233E+03  0.00000000000E+00 0. -1.
        -14    1    6    6    0    0 -0.59986982741E+02  0.11667344432E+03 -0.27421902991E+03  0.30398553760E+03  0.00000000000E+00 0.  1.
</event>
<event>
12    1  0.8053217E-002  0.2086758E+03  0.7818608E-02  0.1143477E+00
         21   -1    0    0  503  502  0.00000000000E+00  0.00000000000E+00  0.10781085845E+04  0.10781085845E+04  0.00000000000E+00 0.  1.
         21   -1    0    0  501  503 -0.00000000000E+00 -0.00000000000E+00 -0.87467115318E+02  0.87467115318E+02  0.00000000000E+00 0. -1.
          6    2    1    2  501    0 -0.83394419539E+02 -0.55081413765E+02  0.66382228697E+02  0.21897988323E+03  0.18318569163E+03 0.  0.
         24    2    3    3    0    0 -0.54664156653E+02 -0.61988604778E+02  0.11515830070E+03  0.16175809985E+03  0.77932608716E+02 0.  0.
         -6    2    1    2    0  502  0.83394419539E+02  0.55081413765E+02  0.92425924047E+03  0.94659581657E+03  0.17832527867E+03 0.  0.
        -24    2    5    5    0    0  0.59382083948E+02 -0.34674193542E+02  0.37331953105E+03  0.38785677667E+03  0.79604493283E+02 0.  0.
          5    1    3    3  501    0 -0.28730262886E+02  0.69071910129E+01 -0.48776072002E+02  0.57221783380E+02  0.47000000000E+01 0. -1.
        -13    1    4    4    0    0  0.12514274818E+02 -0.22276210919E+02  0.62755913102E+02  0.67757960981E+02  0.00000000000E+00 0.  1.
         14    1    4    4    0    0 -0.67178431471E+02 -0.39712393859E+02  0.52402387597E+02  0.94000138866E+02  0.00000000000E+00 0. -1.
         -5    1    5    5    0  502  0.24012335591E+02  0.89755607307E+02  0.55093970942E+03  0.55873903991E+03  0.47000000000E+01 0.  1.
         13    1    6    6    0    0 -0.40466362638E+01 -0.26316163695E+02  0.22168573961E+03  0.22327893516E+03  0.00000000000E+00 0. -1.
        -14    1    6    6    0    0  0.63428720212E+02 -0.83580298473E+01  0.15163379144E+03  0.16457784151E+03  0.00000000000E+00 0.  1.
</event>
<event>
12    1  0.8053217E-002  0.1797033E+03  0.7818608E-02  0.1168106E+00
         21   -1    0    0  501  502  0.00000000000E+00  0.00000000000E+00  0.58288744068E+02  0.58288744068E+02  0.00000000000E+00 0. -1.
         21   -1    0    0  502  503 -0.00000000000E+00 -0.00000000000E+00 -0.55447657995E+03  0.55447657995E+03  0.00000000000E+00 0. -1.
         -6    2    1    2    0  503  0.19451350663E+02 -0.47963912117E+02 -0.25864794237E+03  0.31494766567E+03  0.17208829743E+03 0.  0.
        -24    2    3    3    0    0 -0.39750839936E+02 -0.61484496903E+02 -0.78757177395E+02  0.12502535812E+03  0.63782243185E+02 0.  0.
          6    2    1    2  501    0 -0.19451350663E+02  0.47963912117E+02 -0.23753989352E+03  0.29781765835E+03  0.17202111703E+03 0.  0.
         24    2    5    5    0    0  0.37178546357E+02  0.39460494680E+02 -0.21647450117E+03  0.23662048440E+03  0.78668094110E+02 0.  0.
          5    1    5    5  501    0 -0.56629897021E+02  0.85034174372E+01 -0.21065392347E+02  0.61197173950E+02  0.47000000000E+01 0. -1.
        -11    1    6    6    0    0  0.26551387182E+02  0.58358040244E+02 -0.19804747568E+03  0.20816685530E+03  0.00000000000E+00 0.  1.
         12    1    6    6    0    0  0.10627159176E+02 -0.18897545564E+02 -0.18427025490E+02  0.28453629099E+02  0.00000000000E+00 0. -1.
         -5    1    3    3    0  503  0.59202190599E+02  0.13520584786E+02 -0.17989076497E+03  0.18992230755E+03  0.47000000000E+01 0.  1.
         11    1    4    4    0    0 -0.49492320914E+01 -0.22410150462E+02  0.74943803049E+01  0.24142814214E+02  0.00000000000E+00 0. -1.
        -12    1    4    4    0    0 -0.34801607845E+02 -0.39074346441E+02 -0.86251557700E+02  0.10088254390E+03  0.00000000000E+00 0.  1.
</event>
<event>
12    1  0.8053217E-002  0.1961138E+03  0.7818608E-02  0.1153081E+00
         21   -1    0    0  503  502  0.00000000000E+00  0.00000000000E+00  0.17307047293E+02  0.17307047293E+02  0.00000000000E+00 0. -1.
         21   -1    0    0  501  503 -0.00000000000E+00 -0.00000000000E+00 -0.25851388323E+04  0.25851388323E+04  0.00000000000E+00 0. -1.
          6    2    1    2  501    0  0.88820750666E+02 -0.19832440449E+02 -0.17719008335E+04  0.17827101282E+04  0.17360986714E+03 0.  0.
         24    2    3    3    0    0  0.11268002648E+03 -0.57815595748E+02 -0.13371503281E+04  0.13456265240E+04  0.81855425108E+02 0.  0.
         -6    2    1    2    0  502 -0.88820750666E+02  0.19832440449E+02 -0.79593095153E+03  0.81973575142E+03  0.17371865505E+03 0.  0.
        -24    2    5    5    0    0 -0.10471242866E+03 -0.28342666063E+02 -0.43744444142E+03  0.45764728951E+03  0.79469508829E+02 0.  0.
          5    1    3    3  501    0 -0.23859275816E+02  0.37983155299E+02 -0.43475050539E+03  0.43708360421E+03  0.47000000000E+01 0. -1.
        -13    1    4    4    0    0  0.81416354370E+01 -0.44898623955E+01 -0.11483571951E+02  0.14775571619E+02  0.00000000000E+00 0.  1.
         14    1    4    4    0    0  0.10453839104E+03 -0.53325733352E+02 -0.13256667562E+04  0.13308509524E+04  0.00000000000E+00 0. -1.
         -5    1    5    5    0  502  0.15891677993E+02  0.48175106511E+02 -0.35848651011E+03  0.36208846190E+03  0.47000000000E+01 0.  1.
         11    1    6    6    0    0 -0.33634232996E+00  0.96247809856E+01 -0.44031034591E+01  0.10589469073E+02  0.00000000000E+00 0. -1.
        -12    1    6    6    0    0 -0.10437608633E+03 -0.37967447048E+02 -0.43304133796E+03  0.44705782044E+03  0.00000000000E+00 0.  1.
</event>
<event>
12    1  0.8053217E-002  0.3252553E+03  0.7818608E-02  0.1073278E+00
         21   -1    0    0  503  502  0.00000000000E+00  0.00000000000E+00  0.26009846449E+03  0.26009846449E+03  0.00000000000E+00 0.  1.
         21   -1    0    0  501  503 -0.00000000000E+00 -0.00000000000E+00 -0.50299680229E+03  0.50299680229E+03  0.00000000000E+00 0. -1.
          6    2    1    2  501    0 -0.27246558911E+03 -0.40366933905E+02 -0.28861016687E+03  0.43484112766E+03  0.17298552332E+03 0.  0.
         24    2    3    3    0    0 -0.16443949887E+03  0.16689535054E+02 -0.24272269582E+03  0.30425465507E+03  0.79609664604E+02 0.  0.
         -6    2    1    2    0  502  0.27246558911E+03  0.40366933905E+02  0.45711829075E+02  0.32825413912E+03  0.17261002847E+03 0.  0.
        -24    2    5    5    0    0  0.78248289954E+02  0.22341867422E+02  0.60900372136E+02  0.13255527823E+03  0.85088733329E+02 0.  0.
          5    1    3    3  501    0 -0.10802609024E+03 -0.57056468959E+02 -0.45887471052E+02  0.13058647259E+03  0.47000000000E+01 0. -1.
        -11    1    4    4    0    0 -0.12182560079E+03  0.21448619699E+02 -0.11268654250E+03  0.16733133943E+03  0.00000000000E+00 0.  1.
         12    1    4    4    0    0 -0.42613898079E+02 -0.47590846455E+01 -0.13003615332E+03  0.13692331564E+03  0.00000000000E+00 0. -1.
         -5    1    5    5    0  502  0.19421729916E+03  0.18025066483E+02 -0.15188543061E+02  0.19569886089E+03  0.47000000000E+01 0.  1.
         11    1    6    6    0    0  0.84057806688E+02  0.12423834131E+02  0.16329086431E+02  0.86525750984E+02  0.00000000000E+00 0. -1.
        -12    1    6    6    0    0 -0.58095167338E+01  0.99180332903E+01  0.44571285705E+02  0.46029527245E+02  0.00000000000E+00 0.  1.
</event>
<event>
12    1  0.8053217E-002  0.1937959E+03  0.7818608E-02  0.1155278E+00
         21   -1    0    0  501  502  0.00000000000E+00  0.00000000000E+00  0.60430815467E+03  0.60430815467E+03  0.00000000000E+00 0. -1.
         21   -1    0    0  502  503 -0.00000000000E+00 -0.00000000000E+00 -0.62939128050E+02  0.62939128050E+02  0.00000000000E+00 0. -1.
         -6    2    1    2    0  503 -0.37712686697E+02  0.79078502904E+02  0.31369273667E+03  0.36826010346E+03  0.17186248689E+03 0.  0.
        -24    2    3    3    0    0  0.15590285872E+02  0.64727247787E+02  0.83212279654E+02  0.13121475658E+03  0.76552957101E+02 0.  0.
          6    2    1    2  501    0  0.37712686697E+02 -0.79078502904E+02  0.22767628995E+03  0.29898717926E+03  0.17286174822E+03 0.  0.
         24    2    5    5    0    0  0.27068703148E+02  0.11458039271E+02  0.47968182329E+02  0.97425144642E+02  0.79540624454E+02 0.  0.
          5    1    5    5  501    0  0.10643983550E+02 -0.90536542175E+02  0.17970810762E+03  0.20156203462E+03  0.47000000000E+01 0. -1.
        -11    1    6    6    0    0 -0.12943963408E+02 -0.43675719707E+01 -0.15553995133E+02  0.20701416334E+02  0.00000000000E+00 0.  1.
         12    1    6    6    0    0  0.40012666555E+02  0.15825611242E+02  0.63522177462E+02  0.76723728309E+02  0.00000000000E+00 0. -1.
         -5    1    3    3    0  503 -0.53302972569E+02  0.14351255117E+02  0.23048045702E+03  0.23704534688E+03  0.47000000000E+01 0.  1.
         13    1    4    4    0    0  0.54176424563E+01  0.47818872296E+01 -0.14459081351E+02  0.16164229916E+02  0.00000000000E+00 0. -1.
        -14    1    4    4    0    0  0.10172643415E+02  0.59945360557E+02  0.97671361005E+02  0.11505052667E+03  0.00000000000E+00 0.  1.
</event>
<event>
12    1  0.8053217E-002  0.1993319E+03  0.7818608E-02  0.1150349E+00
         21   -1    0    0  501  502  0.00000000000E+00  0.00000000000E+00  0.79688378707E+03  0.79688378707E+03  0.00000000000E+00 0. -1.
         21   -1    0    0  502  503 -0.00000000000E+00 -0.00000000000E+00 -0.49820688262E+02  0.49820688262E+02  0.00000000000E+00 0. -1.
         -6    2    1    2    0  503 -0.10062295990E+03  0.49727348342E+01  0.36671604536E+03  0.41738935403E+03  0.17199856623E+03 0.  0.
        -24    2    3    3    0    0 -0.16684344106E+02  0.47705096389E+02  0.14944362043E+03  0.18053255641E+03  0.87775080040E+02 0.  0.
          6    2    1    2  501    0  0.10062295990E+03 -0.49727348342E+01  0.38034705345E+03  0.42931512130E+03  0.17174948081E+03 0.  0.
         24    2    5    5    0    0  0.78301199537E+02  0.36625433478E+02  0.35603762651E+03  0.37600745927E+03  0.84535895994E+02 0.  0.
          5    1    5    5  501    0  0.22321760366E+02 -0.41598168312E+02  0.24309426939E+02  0.53307662027E+02  0.47000000000E+01 0. -1.
        -11    1    6    6    0    0 -0.76584720896E+01 -0.16939941509E+02  0.75209877452E+02  0.77473475973E+02  0.00000000000E+00 0.  1.
         12    1    6    6    0    0  0.85959671627E+02  0.53565374986E+02  0.28082774906E+03  0.29853398330E+03  0.00000000000E+00 0. -1.
         -5    1    3    3    0  503 -0.83938615797E+02 -0.42732361555E+02  0.21727242493E+03  0.23685679763E+03  0.47000000000E+01 0.  1.
         13    1    4    4    0    0 -0.52191689068E+02  0.18726718014E+02  0.82589668401E+02  0.99477211973E+02  0.00000000000E+00 0. -1.
        -14    1    4    4    0    0  0.35507344962E+02  0.28978378375E+02  0.66853952028E+02  0.81055344433E+02  0.00000000000E+00 0.  1.
</event>
<event>
12    1  0.8053217E-002  0.2165299E+03  0.7818608E-02  0.1137174E+00
         21   -1    0    0  503  502  0.00000000000E+00  0.00000000000E+00  0.90268978365E+02  0.90268978365E+02  0.00000000000E+00 0.  1.
         21   -1    0    0  501  503 -0.00000000000E+00 -0.00000000000E+00 -0.14962930014E+04  0.14962930014E+04  0.00000000000E+00 0.  1.
          6    2    1    2  501    0 -0.93606422795E+02 -0.91618414841E+02 -0.13447701999E+04  0.13615347592E+04  0.16796997844E+03 0.  0.
         24    2    3    3    0    0 -0.52003914420E+02 -0.77861208760E+02 -0.12591326128E+04  0.12652232036E+04  0.81289872139E+02 0.  0.
         -6    2    1    2    0  502  0.93606422795E+02  0.91618414841E+02 -0.61253823155E+02  0.22502722058E+03  0.17242135258E+03 0.  0.
        -24    2    5    5    0    0  0.83054943564E+02  0.37450303366E+01 -0.72588770686E+02  0.13567602331E+03  0.78909471984E+02 0.  0.
          5    1    3    3  501    0 -0.41602508376E+02 -0.13757206081E+02 -0.85637587069E+02  0.96311555596E+02  0.47000000000E+01 0. -1.
        -11    1    4    4    0    0 -0.23583922085E+02 -0.16653912501E+02 -0.98855200931E+02  0.10298497431E+03  0.00000000000E+00 0.  1.
         12    1    4    4    0    0 -0.28419992335E+02 -0.61207296258E+02 -0.11602774119E+04  0.11622382293E+04  0.00000000000E+00 0. -1.
         -5    1    5    5    0  502  0.10551479231E+02  0.87873384504E+02  0.11334947530E+02  0.89351197271E+02  0.47000000000E+01 0.  1.
         13    1    6    6    0    0 -0.75423227338E+01  0.13406889262E+02 -0.32855082731E+02  0.36277924047E+02  0.00000000000E+00 0. -1.
        -14    1    6    6    0    0  0.90597266298E+02 -0.96618589253E+01 -0.39733687955E+02  0.99398099263E+02  0.00000000000E+00 0.  1.
</event>
<event>
12    1  0.8053217E-002  0.2514049E+03  0.7818608E-02  0.1112657E+00
         21   -1    0    0  501  502  0.00000000000E+00  0.00000000000E+00  0.26304394984E+03  0.26304394984E+03  0.00000000000E+00 0.  1.
         21   -1    0    0  502  503 -0.00000000000E+00 -0.00000000000E+00 -0.44827308818E+03  0.44827308818E+03  0.00000000000E+00 0.  1.
         -6    2    1    2    0  503 -0.15939449019E+03  0.89334676060E+02 -0.33585878621E+03  0.41953015839E+03  0.17267640740E+03 0.  0.
        -24    2    3    3    0    0 -0.18566259545E+03  0.52706430524E+02 -0.27337742206E+03  0.34234432684E+03  0.72220883854E+02 0.  0.
          6    2    1    2  501    0  0.15939449019E+03 -0.89334676060E+02  0.15062964787E+03  0.29178687964E+03  0.17047875076E+03 0.  0.
         24    2    5    5    0    0  0.12654740555E+03 -0.39199498895E+01  0.55548407564E+02  0.15973712131E+03  0.80004440389E+02 0.  0.
          5    1    5    5  501    0  0.32847084637E+02 -0.85414726170E+02  0.95081240308E+02  0.13204975833E+03  0.47000000000E+01 0. -1.
        -11    1    6    6    0    0  0.24636693378E+02 -0.23409146612E+02  0.43620120482E+02  0.55296199839E+02  0.00000000000E+00 0.  1.
         12    1    6    6    0    0  0.10191071217E+03  0.19489196723E+02  0.11928287081E+02  0.10444092147E+03  0.00000000000E+00 0. -1.
         -5    1    3    3    0  503  0.26268105256E+02  0.36628245536E+02 -0.62481364158E+02  0.77185831549E+02  0.47000000000E+01 0.  1.
         13    1    4    4    0    0 -0.25010209728E+02  0.79299920631E+01 -0.55221215897E+01  0.26812109048E+02  0.00000000000E+00 0. -1.
        -14    1    4    4    0    0 -0.16065238572E+03  0.44776438461E+02 -0.26785530047E+03  0.31553221779E+03  0.00000000000E+00 0.  1.
</event>
<event>
12    1  0.8053217E-002  0.1749192E+03  0.7818608E-02  0.1173231E+00
         21   -1    0    0  503  502  0.00000000000E+00  0.00000000000E+00  0.53217708425E+02  0.53217708425E+02  0.00000000000E+00 0.  1.
         21   -1    0    0  501  503 -0.00000000000E+00 -0.00000000000E+00 -0.73353213931E+03  0.73353213931E+03  0.00000000000E+00 0.  1.
          6    2    1    2  501    0 -0.31983893089E+02  0.10177404495E+02 -0.52742526745E+03  0.55567448127E+03  0.17166877238E+03 0.  0.
         24    2    3    3    0    0 -0.75643580957E+02 -0.25471955628E+02 -0.25398492995E+03  0.27644562639E+03  0.74451782041E+02 0.  0.
         -6    2    1    2    0  502  0.31983893089E+02 -0.10177404495E+02 -0.15288916344E+03  0.23107536647E+03  0.16998288064E+03 0.  0.
        -24    2    5    5    0    0  0.34307407720E+02 -0.27309903967E+02 -0.13865171361E+02  0.90901611322E+02  0.78409380082E+02 0.  0.
          5    1    3    3  501    0  0.43659687868E+02  0.35649360123E+02 -0.27344033750E+03  0.27922885487E+03  0.47000000000E+01 0. -1.
        -11    1    4    4    0    0 -0.33718898501E+02 -0.48829020331E+02 -0.16496543163E+03  0.17531352194E+03  0.00000000000E+00 0.  1.
         12    1    4    4    0    0 -0.41924682456E+02  0.23357064703E+02 -0.89019498318E+02  0.10113210445E+03  0.00000000000E+00 0. -1.
         -5    1    5    5    0  502 -0.23235146319E+01  0.17132499471E+02 -0.13902399208E+03  0.14017375515E+03  0.47000000000E+01 0.  1.
         13    1    6    6    0    0 -0.74272237466E+01 -0.23315068444E+02  0.24097290446E+02  0.34342910126E+02  0.00000000000E+00 0. -1.
        -14    1    6    6    0    0  0.41734631467E+02 -0.39948355229E+01 -0.37962461806E+02  0.56558701196E+02  0.00000000000E+00 0.  1.
</event>
<event>
12    1  0.8053217E-002  0.1809369E+03  0.7818608E-02  0.1168104E+00
         21   -1    0    0  503  502  0.00000000000E+00  0.00000000000E+00  0.55429604346E+02  0.55429604346E+02  0.00000000000E+00 0. -1.
         21   -1    0    0  501  503 -0.00000000000E+00 -0.00000000000E+00 -0.78850734810E+03  0.78850734810E+03  0.00000000000E+00 0.  1.
          6    2    1    2  501    0 -0.52844492086E+02 -0.92256794748E+00 -0.58260268717E+03  0.60860546829E+03  0.16787296823E+03 0.  0.
         24    2    3    3    0    0 -0.47924588909E+02 -0.13387218021E+02 -0.58643133397E+03  0.59389759676E+03  0.79603154135E+02 0.  0.
         -6    2    1    2    0  502  0.52844492086E+02  0.92256794748E+00 -0.15047505658E+03  0.23533148416E+03  0.17304558158E+03 0.  0.
        -24    2    5    5    0    0 -0.19383055368E+02  0.38459760160E+02 -0.47495722990E+02  0.10398197880E+03  0.81863008893E+02 0.  0.
          5    1    3    3  501    0 -0.49199031766E+01  0.12464650073E+02  0.38286467982E+01  0.14707871533E+02  0.47000000000E+01 0. -1.
        -11    1    4    4    0    0 -0.92252713404E+01 -0.40933191643E+02 -0.36654829629E+03  0.36894211649E+03  0.00000000000E+00 0.  1.
         12    1    4    4    0    0 -0.38699317569E+02  0.27545973623E+02 -0.21988303768E+03  0.22495548027E+03  0.00000000000E+00 0. -1.
         -5    1    5    5    0  502  0.72227547454E+02 -0.37537192213E+02 -0.10297933359E+03  0.13134950536E+03  0.47000000000E+01 0.  1.
         11    1    6    6    0    0 -0.36800139338E+02  0.83527565163E+00 -0.50410574021E+02  0.62419339262E+02  0.00000000000E+00 0. -1.
        -12    1    6    6    0    0  0.17417083970E+02  0.37624484508E+02  0.29148510317E+01  0.41562639534E+02  0.00000000000E+00 0.  1.
</event>
<event>
12    1  0.8053217E-002  0.2405047E+03  0.7818608E-02  0.1119675E+00
         21   -1    0    0  503  502  0.00000000000E+00  0.00000000000E+00  0.25805631168E+03  0.25805631168E+03  0.00000000000E+00 0. -1.
         21   -1    0    0  501  503 -0.00000000000E+00 -0.00000000000E+00 -0.23737426384E+03  0.23737426384E+03  0.00000000000E+00 0. -1.
          6    2    1    2  501    0  0.11394422408E+03  0.12505764080E+03  0.71477038264E+02  0.25090128280E+03  0.17093796239E+03 0.  0.
         24    2    3    3    0    0 -0.77465011198E+01  0.17365642566E+02  0.21550980699E+02  0.80839822410E+02  0.75558310574E+02 0.  0.
         -6    2    1    2    0  502 -0.11394422408E+03 -0.12505764080E+03 -0.50794990432E+02  0.24452929272E+03  0.16909093477E+03 0.  0.
        -24    2    5    5    0    0 -0.87115699864E+02 -0.15676474096E+03 -0.56316375986E+02  0.20236668357E+03  0.74942719765E+02 0.  0.
          5    1    3    3  501    0  0.12169072520E+03  0.10769199824E+03  0.49926057565E+02  0.17006146039E+03  0.47000000000E+01 0. -1.
        -13    1    4    4    0    0 -0.34538394774E+02  0.19043595432E+02  0.33222077393E+02  0.51568068287E+02  0.00000000000E+00 0.  1.
         14    1    4    4    0    0  0.26791893654E+02 -0.16779528658E+01 -0.11671096694E+02  0.29271754123E+02  0.00000000000E+00 0. -1.
         -5    1    5    5    0  502 -0.26828524217E+02  0.31707100154E+02  0.55213855537E+01  0.42162609149E+02  0.47000000000E+01 0.  1.
         13    1    6    6    0    0 -0.62524217603E+02 -0.65327373766E+02 -0.58421240163E+02  0.10765679195E+03  0.00000000000E+00 0. -1.
        -14    1    6    6    0    0 -0.24591482262E+02 -0.91437367193E+02  0.21048641770E+01  0.94709891628E+02  0.00000000000E+00 0.  1.
</event>
<event>
12    1  0.8053217E-002  0.2754412E+03  0.7818608E-02  0.1098601E+00
         21   -1    0    0  503  502  0.00000000000E+00  0.00000000000E+00  0.75030258413E+02  0.75030258413E+02  0.00000000000E+00 0. -1.
         21   -1    0    0  501  503 -0.00000000000E+00 -0.00000000000E+00 -0.11202295992E+04  0.11202295992E+04  0.00000000000E+00 0.  1.
          6    2    1    2  501    0 -0.21182753872E+03  0.19081234703E+02 -0.71530964053E+03  0.76549819758E+03  0.17054210327E+03 0.  0.
         24    2    3    3    0    0 -0.88781646468E+02  0.48207980359E+02 -0.49234469984E+03  0.50913105131E+03  0.81270743954E+02 0.  0.
         -6    2    1    2    0  502  0.21182753872E+03 -0.19081234703E+02 -0.32988970024E+03  0.42976166001E+03  0.17502248545E+03 0.  0.
        -24    2    5    5    0    0  0.89702651073E+02  0.50199454969E+02 -0.20108839309E+03  0.23916740808E+03  0.78727100577E+02 0.  0.
          5    1    3    3  501    0 -0.12304589226E+03 -0.29126745656E+02 -0.22296494069E+03  0.25636714628E+03  0.47000000000E+01 0. -1.
        -11    1    4    4    0    0 -0.22046025317E+02  0.56802557192E+02 -0.19644730917E+03  0.20567961254E+03  0.00000000000E+00 0.  1.
         12    1    4    4    0    0 -0.66735621151E+02 -0.85945768334E+01 -0.29589739068E+03  0.30345143877E+03  0.00000000000E+00 0. -1.
         -5    1    5    5    0  502  0.12212488765E+03 -0.69280689671E+02 -0.12880130715E+03  0.19059425193E+03  0.47000000000E+01 0.  1.
         13    1    6    6    0    0  0.59959794979E+02  0.67809230204E+02 -0.11465493020E+03  0.14607882028E+03  0.00000000000E+00 0. -1.
        -14    1    6    6    0    0  0.29742856095E+02 -0.17609775235E+02 -0.86433462888E+02  0.93088587804E+02  0.00000000000E+00 0.  1.
</event>
<event>
12    1  0.8053217E-002  0.1821019E+03  0.7818608E-02  0.1166041E+00
         21   -1    0    0  501  502  0.00000000000E+00  0.00000000000E+00  0.73572224041E+03  0.73572224041E+03  0.00000000000E+00 0.  1.
         21   -1    0    0  502  503 -0.00000000000E+00 -0.00000000000E+00 -0.65230809847E+02  0.65230809847E+02  0.00000000000E+00 0. -1.
         -6    2    1    2    0  503  0.29548541853E+02  0.51116819271E+02  0.11047543438E+03  0.21207357755E+03  0.17112666407E+03 0.  0.
        -24    2    3    3    0    0 -0.63190815499E+00 -0.29999193467E+02  0.20289242711E+02  0.86988381573E+02  0.79088395118E+02 0.  0.
          6    2    1    2  501    0 -0.29548541853E+02 -0.51116819271E+02  0.56001599618E+03  0.58887947271E+03  0.17226454033E+03 0.  0.
         24    2    5    5    0    0  0.43085183506E+02 -0.45809942786E+02  0.22628507355E+03  0.24726237753E+03  0.77323120296E+02 0.  0.
          5    1    5    5  501    0 -0.72633725358E+02 -0.53068764856E+01  0.33373092263E+03  0.34161709518E+03  0.47000000000E+01 0. -1.
        -11    1    6    6    0    0  0.42444730794E+02 -0.50898964138E+02  0.23098553553E+03  0.24030517545E+03  0.00000000000E+00 0.  1.
         12    1    6    6    0    0  0.64045271208E+00  0.50890213522E+01 -0.47004619772E+01  0.69572020812E+01  0.00000000000E+00 0. -1.
         -5    1    3    3    0  503  0.30180450008E+02  0.81116012738E+02  0.90186191668E+02  0.12508519598E+03  0.47000000000E+01 0.  1.
         13    1    4    4    0    0  0.34311918998E+02 -0.15413193811E+02 -0.95155118242E+01  0.38799733170E+02  0.00000000000E+00 0. -1.
        -14    1    4    4    0    0 -0.34943827153E+02 -0.14585999656E+02  0.29804754535E+02  0.48188648404E+02  0.00000000000E+00 0.  1.
</event>
<event>
12    1  0.8053217E-002  0.2454016E+03  0.7818608E-02  0.1116412E+00
         21   -1    0    0  503  502  0.00000000000E+00  0.00000000000E+00  0.76389168812E+03  0.76389168812E+03  0.00000000000E+00 0.  1.
         21   -1    0    0  501  503 -0.00000000000E+00 -0.00000000000E+00 -0.79380741844E+02  0.79380741844E+02  0.00000000000E+00 0. -1.
          6    2    1    2  501    0  0.16300391909E+03  0.62987551737E+02  0.38578894185E+03  0.45667602385E+03  0.17082790697E+03 0.  0.
         24    2    3    3    0    0  0.12708339873E+02  0.41152811595E+02  0.13504443586E+03  0.16348595872E+03  0.81459212110E+02 0.  0.
         -6    2    1    2    0  502 -0.16300391909E+03 -0.62987551737E+02  0.29872200443E+03  0.38659640611E+03  0.17229113725E+03 0.  0.
        -24    2    5    5    0    0 -0.12418654423E+03 -0.25310265461E+02  0.99339017751E+02  0.17995170652E+03  0.80321036629E+02 0.  0.
          5    1    3    3  501    0  0.15029557922E+03  0.21834740142E+02  0.25074450598E+03  0.29319006513E+03  0.47000000000E+01 0. -1.
        -11    1    4    4    0    0  0.24406904855E+02  0.61661417349E+02  0.82265652896E+02  0.10566676412E+03  0.00000000000E+00 0.  1.
         12    1    4    4    0    0 -0.11698564981E+02 -0.20508605755E+02  0.52778782966E+02  0.57819194598E+02  0.00000000000E+00 0. -1.
         -5    1    5    5    0  502 -0.38817374862E+02 -0.37677286276E+02  0.19938298668E+03  0.20664469959E+03  0.47000000000E+01 0.  1.
         13    1    6    6    0    0 -0.73865965747E+02 -0.34939659477E+01  0.10088381324E+03  0.12508370185E+03  0.00000000000E+00 0. -1.
        -14    1    6    6    0    0 -0.50320578485E+02 -0.21816299514E+02 -0.15447954899E+01  0.54868004671E+02  0.00000000000E+00 0.  1.
</event>
<event>
12    1  0.8053217E-002  0.3258957E+03  0.7818608E-02  0.1072983E+00
         21   -1    0    0  501  502  0.00000000000E+00  0.00000000000E+00  0.10144512126E+03  0.10144512126E+03  0.00000000000E+00 0. -1.
         21   -1    0    0  502  503 -0.00000000000E+00 -0.00000000000E+00 -0.11954154350E+04  0.11954154350E+04  0.00000000000E+00 0.  1.
         -6    2    1    2    0  503 -0.18748611906E+03 -0.20362074357E+03 -0.77574102862E+03  0.84136317074E+03  0.17177132923E+03 0.  0.
        -24    2    3    3    0    0 -0.97582917273E+02 -0.35120678640E+02 -0.37919616989E+03  0.40119868721E+03  0.80092219056E+02 0.  0.
          6    2    1    2  501    0  0.18748611906E+03  0.20362074357E+03 -0.31822928517E+03  0.45549738557E+03  0.17203353821E+03 0.  0.
         24    2    5    5    0    0  0.59754516313E+02  0.10397108571E+03 -0.22833050190E+03  0.27016174980E+03  0.80448518162E+02 0.  0.
          5    1    5    5  501    0  0.12773160274E+03  0.99649657864E+02 -0.89898783273E+02  0.18533563577E+03  0.47000000000E+01 0. -1.
        -13    1    6    6    0    0  0.58709402579E+02  0.49604868891E+02 -0.18598918751E+03  0.20124466413E+03  0.00000000000E+00 0.  1.
         14    1    6    6    0    0  0.10451137341E+01  0.54366216814E+02 -0.42341314390E+02  0.68917085673E+02  0.00000000000E+00 0. -1.
         -5    1    3    3    0  503 -0.89903201784E+02 -0.16850006493E+03 -0.39654485873E+03  0.44016448353E+03  0.47000000000E+01 0.  1.
         13    1    4    4    0    0 -0.27012946051E+02  0.20327882200E+02 -0.52859513522E+02  0.62745917946E+02  0.00000000000E+00 0. -1.
        -14    1    4    4    0    0 -0.70569971221E+02 -0.55448560840E+02 -0.32633665636E+03  0.33845276927E+03  0.00000000000E+00 0.  1.
</event>
<event>
12    1  0.8053217E-002  0.1872477E+03  0.7818608E-02  0.1161016E+00
         21   -1    0    0  503  502  0.00000000000E+00  0.00000000000E+00  0.90407548331E+03  0.90407548331E+03  0.00000000000E+00 0. -1.
         21   -1    0    0  501  503 -0.00000000000E+00 -0.00000000000E+00 -0.83948930547E+02  0.83948930547E+02  0.00000000000E+00 0. -1.
          6    2    1    2  501    0  0.25969532529E+02  0.68268105924E+02  0.47417368486E+02  0.19295133438E+03  0.17218263472E+03 0.  0.
         24    2    3    3    0    0  0.42195080927E+02  0.97970308178E+02 -0.16718312600E+01  0.13314055968E+03  0.79655555186E+02 0.  0.
         -6    2    1    2    0  502 -0.25969532529E+02 -0.68268105924E+02  0.77270918428E+03  0.79507307947E+03  0.17241452181E+03 0.  0.
        -24    2    5    5    0    0 -0.22338328881E+01 -0.24743906589E+02  0.71203740262E+03  0.71658171399E+03  0.76647499503E+02 0.  0.
          5    1    3    3  501    0 -0.16225548399E+02 -0.29702202253E+02  0.49089199746E+02  0.59810774709E+02  0.47000000000E+01 0. -1.
        -11    1    4    4    0    0  0.13245802149E+02  0.10635307041E+02 -0.32028180380E+02  0.36254177261E+02  0.00000000000E+00 0.  1.
         12    1    4    4    0    0  0.28949278778E+02  0.87335001137E+02  0.30356349120E+02  0.96886382414E+02  0.00000000000E+00 0. -1.
         -5    1    5    5    0  502 -0.23735699641E+02 -0.43524199336E+02  0.60671781657E+02  0.78491365479E+02  0.47000000000E+01 0.  1.
         13    1    6    6    0    0 -0.32793053751E+02 -0.19626253238E+01  0.16623677063E+03  0.16945176358E+03  0.00000000000E+00 0. -1.
        -14    1    6    6    0    0  0.30559220862E+02 -0.22781281265E+02  0.54580063199E+03  0.54712995041E+03  0.00000000000E+00 0.  1.
</event>
<event>
12    1  0.8053217E-002  0.1824640E+03  0.7818608E-02  0.1166237E+00
         21   -1    0    0  501  502  0.00000000000E+00  0.00000000000E+00  0.25484087435E+03  0.25484087435E+03  0.00000000000E+00 0. -1.
         21   -1    0    0  502  503 -0.00000000000E+00 -0.00000000000E+00 -0.14282421122E+03  0.14282421122E+03  0.00000000000E+00 0. -1.
         -6    2    1    2    0  503 -0.49508169849E+02 -0.10949922187E+02  0.11900786621E+03  0.21506718235E+03  0.17181403036E+03 0.  0.
        -24    2    3    3    0    0 -0.71206906755E+02  0.36062826221E+02  0.11679470368E+03  0.16302852572E+03  0.81032995649E+02 0.  0.
          6    2    1    2  501    0  0.49508169849E+02  0.10949922187E+02 -0.69912030842E+01  0.18259790322E+03  0.17527737350E+03 0.  0.
         24    2    5    5    0    0  0.63016391961E+02 -0.23729938996E+02 -0.58222708694E+02  0.11910048592E+03  0.79125636039E+02 0.  0.
          5    1    5    5  501    0 -0.13508222112E+02  0.34679861182E+02  0.51231505610E+02  0.63497417296E+02  0.47000000000E+01 0. -1.
        -13    1    6    6    0    0 -0.56094364794E+01  0.21148538483E+02 -0.13268292171E+02  0.25588552806E+02  0.00000000000E+00 0.  1.
         14    1    6    6    0    0  0.68625828440E+02 -0.44878477479E+02 -0.44954416523E+02  0.93511933115E+02  0.00000000000E+00 0. -1.
         -5    1    3    3    0  503  0.21698736905E+02 -0.47012748408E+02  0.22131625223E+01  0.52038656636E+02  0.47000000000E+01 0.  1.
         11    1    4    4    0    0 -0.60003084844E+02  0.13810928471E+02  0.22589994983E+02  0.65585210295E+02  0.00000000000E+00 0. -1.
        -12    1    4    4    0    0 -0.11203821911E+02  0.22251897750E+02  0.94204708701E+02  0.97443315421E+02  0.00000000000E+00 0.  1.
</event>
<event>
12    1  0.8053217E-002  0.2040961E+03  0.7818608E-02  0.1146983E+00
         21   -1    0    0  503  502  0.00000000000E+00  0.00000000000E+00  0.33236681678E+03  0.33236681678E+03  0.00000000000E+00 0. -1.
         21   -1    0    0  501  503 -0.00000000000E+00 -0.00000000000E+00 -0.21343440612E+03  0.21343440612E+03  0.00000000000E+00 0. -1.
          6    2    1    2  501    0 -0.65444286518E+01  0.10322939010E+03 -0.11804951925E+03  0.23304630081E+03  0.17226651677E+03 0.  0.
         24    2    3    3    0    0  0.41810872302E+02  0.50105462953E+01 -0.43738062485E+02  0.10064743747E+03  0.80272248893E+02 0.  0.
         -6    2    1    2    0  502  0.65444286518E+01 -0.10322939010E+03  0.23698192991E+03  0.31275492209E+03  0.17594337061E+03 0.  0.
        -24    2    5    5    0    0  0.55279564253E+02 -0.83761582246E+02  0.22548243407E+03  0.25882499172E+03  0.77950082643E+02 0.  0.
          5    1    3    3  501    0 -0.48355300954E+02  0.98218843804E+02 -0.74311456765E+02  0.13239886335E+03  0.47000000000E+01 0. -1.
        -13    1    4    4    0    0 -0.95540880811E+01  0.30498657003E+02 -0.75427327809E+01  0.32838110419E+02  0.00000000000E+00 0.  1.
         14    1    4    4    0    0  0.51364960383E+02 -0.25488110708E+02 -0.36195329704E+02  0.67809327050E+02  0.00000000000E+00 0. -1.
         -5    1    5    5    0  502 -0.48735135602E+02 -0.19467807854E+02  0.11499495841E+02  0.53929930367E+02  0.47000000000E+01 0.  1.
         13    1    6    6    0    0 -0.56888664755E+01 -0.11768364907E+01  0.83067733517E+02  0.83270622056E+02  0.00000000000E+00 0. -1.
        -14    1    6    6    0    0  0.60968430729E+02 -0.82584745755E+02  0.14241470055E+03  0.17555436967E+03  0.00000000000E+00 0.  1.
</event>
<event>
12    1  0.8053217E-002  0.2243809E+03  0.7818608E-02  0.1130862E+00
         21   -1    0    0  503  502  0.00000000000E+00  0.00000000000E+00  0.83615580349E+02  0.83615580349E+02  0.00000000000E+00 0. -1.
         21   -1    0    0  501  503 -0.00000000000E+00 -0.00000000000E+00 -0.11791534678E+04  0.11791534678E+04  0.00000000000E+00 0. -1.
          6    2    1    2  501    0  0.90632159636E+02  0.10912867596E+03 -0.98989932521E+03  0.10147644359E+04  0.17240339341E+03 0.  0.
         24    2    3    3    0    0  0.85839525181E+02  0.82536865240E+02 -0.97109588663E+03  0.98151157070E+03  0.78466452544E+02 0.  0.
         -6    2    1    2    0  502 -0.90632159636E+02 -0.10912867596E+03 -0.10563856224E+03  0.24800461224E+03  0.17384914605E+03 0.  0.
        -24    2    5    5    0    0 -0.11716701892E+03 -0.10424897290E+03 -0.52326109831E+02  0.18806949865E+03  0.89644608759E+02 0.  0.
          5    1    3    3  501    0  0.47926344553E+01  0.26591810721E+02 -0.18803438578E+02  0.33252865212E+02  0.47000000000E+01 0. -1.
        -13    1    4    4    0    0  0.34405793047E+02 -0.83342790887E+01 -0.33973357009E+03  0.34157300457E+03  0.00000000000E+00 0.  1.
         14    1    4    4    0    0  0.51433732134E+02  0.90871144329E+02 -0.63136231654E+03  0.63993856613E+03  0.00000000000E+00 0. -1.
         -5    1    5    5    0  502  0.26534859282E+02 -0.48797030612E+01 -0.53312452413E+02  0.59935113593E+02  0.47000000000E+01 0.  1.
         11    1    6    6    0    0 -0.11074298277E+03 -0.45832562193E+02 -0.48116285337E+02  0.12915033451E+03  0.00000000000E+00 0. -1.
        -12    1    6    6    0    0 -0.64240361463E+01 -0.58416410707E+02 -0.42098244945E+01  0.58919164136E+02  0.00000000000E+00 0.  1.
</event>
<event>
12    1  0.8053217E-002  0.1951804E+03  0.7818608E-02  0.1155608E+00
         21   -1    0    0  501  502  0.00000000000E+00  0.00000000000E+00  0.50980617361E+03  0.50980617361E+03  0.00000000000E+00 0.  1.
         21   -1    0    0  502  503 -0.00000000000E+00 -0.00000000000E+00 -0.77292467253E+02  0.77292467253E+02  0.00000000000E+00 0.  1.
         -6    2    1    2    0  503 -0.29177534044E+02 -0.69224959521E+02  0.13366877426E+03  0.23016209617E+03  0.17165030087E+03 0.  0.
        -24    2    3    3    0    0  0.13575676922E+02 -0.39315136336E+02  0.15312049437E+03  0.17427923667E+03  0.72092909427E+02 0.  0.
          6    2    1    2  501    0  0.29177534044E+02  0.69224959521E+02  0.29884493209E+03  0.35693654469E+03  0.18014433098E+03 0.  0.
         24    2    5    5    0    0  0.80627402293E+02  0.35343849741E+02  0.25460839939E+03  0.28094983948E+03  0.79733365350E+02 0.  0.
          5    1    5    5  501    0 -0.51449868249E+02  0.33881109780E+02  0.44236532704E+02  0.75986705208E+02  0.47000000000E+01 0. -1.
        -11    1    6    6    0    0  0.33410949580E+02  0.46675594936E+02  0.72464231447E+02  0.92444402500E+02  0.00000000000E+00 0.  1.
         12    1    6    6    0    0  0.47216452713E+02 -0.11331745195E+02  0.18214416794E+03  0.18850543698E+03  0.00000000000E+00 0. -1.
         -5    1    3    3    0  503 -0.42753210966E+02 -0.29909823185E+02 -0.19451720106E+02  0.55882859501E+02  0.47000000000E+01 0.  1.
         13    1    4    4    0    0  0.38213743303E+02 -0.77697624229E+01  0.48303734632E+02  0.62079869238E+02  0.00000000000E+00 0. -1.
        -14    1    4    4    0    0 -0.24638066381E+02 -0.31545373913E+02  0.10481675974E+03  0.11219936743E+03  0.00000000000E+00 0.  1.
</event>
<event>
12    1  0.8053217E-002  0.1808104E+03  0.7818608E-02  0.1167212E+00
         21   -1    0    0  501  502  0.00000000000E+00  0.00000000000E+00  0.75112626616E+03  0.75112626616E+03  0.00000000000E+00 0. -1.
         21   -1    0    0  502  503 -0.00000000000E+00 -0.00000000000E+00 -0.65759090587E+02  0.65759090587E+02  0.00000000000E+00 0. -1.
         -6    2    1    2    0  503 -0.48241189426E+02 -0.23268011476E+02  0.10466344766E+03  0.20891824730E+03  0.17269563996E+03 0.  0.
        -24    2    3    3    0    0 -0.44517769138E+02 -0.69762564049E+02  0.11153068414E+03  0.16153833368E+03  0.82503894651E+02 0.  0.
          6    2    1    2  501    0  0.48241189426E+02  0.23268011476E+02  0.58070372791E+03  0.60796710945E+03  0.17186789651E+03 0.  0.
         24    2    5    5    0    0  0.11048752131E+02  0.42360095514E+01  0.10266930824E+03  0.12808744653E+03  0.75666296360E+02 0.  0.
          5    1    5    5  501    0  0.37192437295E+02  0.19032001924E+02  0.47803441967E+03  0.47987966292E+03  0.47000000000E+01 0. -1.
        -13    1    6    6    0    0  0.39742202048E+02 -0.15056815530E+00  0.29874165902E+02  0.49718518509E+02  0.00000000000E+00 0.  1.
         14    1    6    6    0    0 -0.28693449917E+02  0.43865777067E+01  0.72795142333E+02  0.78368928022E+02  0.00000000000E+00 0. -1.
         -5    1    3    3    0  503 -0.37234202879E+01  0.46494552573E+02 -0.68672364729E+01  0.47379913617E+02  0.47000000000E+01 0.  1.
         11    1    4    4    0    0 -0.67741902756E+01 -0.70663485106E+02  0.42170518380E+02  0.82568579990E+02  0.00000000000E+00 0. -1.
        -12    1    4    4    0    0 -0.37743578862E+02  0.90092105680E+00  0.69360165758E+02  0.78969753691E+02  0.00000000000E+00 0.  1.
</event>
<event>
12    1  0.8053217E-002  0.1930694E+03  0.7818608E-02  0.1155859E+00
         21   -1    0    0  501  502  0.00000000000E+00  0.00000000000E+00  0.11062169068E+04  0.11062169068E+04  0.00000000000E+00 0. -1.
         21   -1    0    0  502  503 -0.00000000000E+00 -0.00000000000E+00 -0.34477991784E+02  0.34477991784E+02  0.00000000000E+00 0. -1.
         -6    2    1    2    0  503 -0.54500088460E+02 -0.68868220953E+02  0.44509202731E+03  0.48516255761E+03  0.17193807907E+03 0.  0.
        -24    2    3    3    0    0 -0.98158345521E+02 -0.54047280457E+02  0.38651535822E+03  0.41046972095E+03  0.80839967575E+02 0.  0.
          6    2    1    2  501    0  0.54500088460E+02  0.68868220953E+02  0.62664688769E+03  0.65553234095E+03  0.17124028933E+03 0.  0.
         24    2    5    5    0    0 -0.15705366914E+02  0.33150954719E+02  0.16123585287E+03  0.18347932443E+03  0.79511118071E+02 0.  0.
          5    1    5    5  501    0  0.70205455375E+02  0.35717266234E+02  0.46541103482E+03  0.47205301652E+03  0.47000000000E+01 0. -1.
        -11    1    6    6    0    0 -0.32079827032E+02 -0.15248513910E+02  0.53163013916E+02  0.63936988727E+02  0.00000000000E+00 0.  1.
         12    1    6    6    0    0  0.16374460117E+02  0.48399468629E+02  0.10807283895E+03  0.11954233571E+03  0.00000000000E+00 0. -1.
         -5    1    3    3    0  503  0.43658257060E+02 -0.14820940496E+02  0.58576669091E+02  0.74692836661E+02  0.47000000000E+01 0.  1.
         11    1    4    4    0    0 -0.42898782739E+02 -0.66648108280E+02  0.26058235167E+03  0.27237003855E+03  0.00000000000E+00 0. -1.
        -12    1    4    4    0    0 -0.55259562781E+02  0.12600827823E+02  0.12593300655E+03  0.13809968241E+03  0.00000000000E+00 0.  1.
</event>
<event>
12    1  0.8053217E-002  0.1809471E+03  0.7818608E-02  0.1166968E+00
         21   -1    0    0  503  502  0.00000000000E+00  0.00000000000E+00  0.59114780630E+02  0.59114780630E+02  0.00000000000E+00 0. -1.
         21   -1    0    0  501  503 -0.00000000000E+00 -0.00000000000E+00 -0.55724265677E+03  0.55724265677E+03  0.00000000000E+00 0. -1.
          6    2    1    2  501    0  0.56188673161E+02  0.12682148616E+02 -0.27657552548E+03  0.33050852027E+03  0.17153383571E+03 0.  0.
         24    2    3    3    0    0  0.82166284385E+02 -0.52214418853E+01 -0.10204917911E+03  0.15309118624E+03  0.79020975708E+02 0.  0.
         -6    2    1    2    0  502 -0.56188673161E+02 -0.12682148616E+02 -0.22155235066E+03  0.28584891713E+03  0.17119040702E+03 0.  0.
        -24    2    5    5    0    0 -0.17973833250E+02 -0.35293955641E+02 -0.22448417071E+03  0.24110125378E+03  0.78536295346E+02 0.  0.
          5    1    3    3  501    0 -0.25977611224E+02  0.17903590501E+02 -0.17452634637E+03  0.17741733403E+03  0.47000000000E+01 0. -1.
        -11    1    4    4    0    0  0.11696734775E+02 -0.26136393914E+02 -0.16805874344E+01  0.28683602726E+02  0.00000000000E+00 0.  1.
         12    1    4    4    0    0  0.70469549610E+02  0.20914952028E+02 -0.10036859167E+03  0.12440758351E+03  0.00000000000E+00 0. -1.
         -5    1    5    5    0  502 -0.38214839912E+02  0.22611807025E+02  0.29318200523E+01  0.44747663350E+02  0.47000000000E+01 0.  1.
         13    1    6    6    0    0  0.25348206138E+02 -0.36705946307E+02 -0.11519929827E+03  0.12353435300E+03  0.00000000000E+00 0. -1.
        -14    1    6    6    0    0 -0.43322039388E+02  0.14119906661E+01 -0.10928487244E+03  0.11756690078E+03  0.00000000000E+00 0.  1.
</event>
<event>
12    1  0.8053217E-002  0.1969328E+03  0.7818608E-02  0.1153477E+00
         21   -1    0    0  503  502  0.00000000000E+00  0.00000000000E+00  0.17885181943E+03  0.17885181943E+03  0.00000000000E+00 0.  1.
         21   -1    0    0  501  503 -0.00000000000E+00 -0.00000000000E+00 -0.23021685331E+03  0.23021685331E+03  0.00000000000E+00 0.  1.
          6    2    1    2  501    0 -0.12382057243E+02 -0.89313371153E+02  0.32771180707E+02  0.19964082430E+03  0.17507802499E+03 0.  0.
         24    2    3    3    0    0 -0.74167544041E+02 -0.74588097318E+02  0.32085904410E+02  0.13594749912E+03  0.79925017394E+02 0.  0.
         -6    2    1    2    0  502  0.12382057243E+02  0.89313371153E+02 -0.84136214590E+02  0.20942784845E+03  0.16926584857E+03 0.  0.
        -24    2    5    5    0    0  0.69677963079E+02  0.36046431031E+02 -0.40665967065E+02  0.11980675631E+03  0.80904723296E+02 0.  0.
          5    1    3    3  501    0  0.61785486797E+02 -0.14725273834E+02  0.68527629658E+00  0.63693325175E+02  0.47000000000E+01 0. -1.
        -11    1    4    4    0    0 -0.16150225462E+02 -0.72234870728E+02  0.19253535511E+02  0.76481402715E+02  0.00000000000E+00 0.  1.
         12    1    4    4    0    0 -0.58017318579E+02 -0.23532265901E+01  0.12832368899E+02  0.59466096408E+02  0.00000000000E+00 0. -1.
         -5    1    5    5    0  502 -0.57295905836E+02  0.53266940122E+02 -0.43470247525E+02  0.89621092135E+02  0.47000000000E+01 0.  1.
         11    1    6    6    0    0 -0.19052517422E+01 -0.20669953173E+02 -0.12513123364E+02  0.24237475213E+02  0.00000000000E+00 0. -1.
        -12    1    6    6    0    0  0.71583214822E+02  0.56716384203E+02 -0.28152843701E+02  0.95569281099E+02  0.00000000000E+00 0.  1.
</event>
<event>
12    1  0.8053217E-002  0.2104919E+03  0.7818608E-02  0.1141200E+00
         21   -1    0    0  501  502  0.00000000000E+00  0.00000000000E+00  0.63785942095E+03  0.63785942095E+03  0.00000000000E+00 0. -1.
         21   -1    0    0  502  503 -0.00000000000E+00 -0.00000000000E+00 -0.76940865777E+02  0.76940865777E+02  0.00000000000E+00 0. -1.
         -6    2    1    2    0  503  0.37040364970E+02  0.11436416344E+03  0.16867852172E+03  0.26964965105E+03  0.17264802376E+03 0.  0.
        -24    2    3    3    0    0 -0.39611288038E+02  0.88644185940E+02  0.13180169394E+03  0.18066097998E+03  0.76418959185E+02 0.  0.
          6    2    1    2  501    0 -0.37040364970E+02 -0.11436416344E+03  0.39224003345E+03  0.44515063567E+03  0.17278800329E+03 0.  0.
         24    2    5    5    0    0 -0.55537602352E+02 -0.73828046264E+00  0.16215469907E+03  0.18782916325E+03  0.76815869476E+02 0.  0.
          5    1    5    5  501    0  0.18497237382E+02 -0.11362588298E+03  0.23008533438E+03  0.25732147242E+03  0.47000000000E+01 0. -1.
        -13    1    6    6    0    0 -0.18562466373E+02  0.34994941665E+02  0.97361230880E+02  0.10511146645E+03  0.00000000000E+00 0.  1.
         14    1    6    6    0    0 -0.36975135979E+02 -0.35733222127E+02  0.64793468187E+02  0.82717696801E+02  0.00000000000E+00 0. -1.
         -5    1    3    3    0  503  0.76651653008E+02  0.25719977499E+02  0.36876827784E+02  0.88988671070E+02  0.47000000000E+01 0.  1.
         13    1    4    4    0    0 -0.44249356066E+02  0.10766913425E+02  0.47994316399E+02  0.66161819379E+02  0.00000000000E+00 0. -1.
        -14    1    4    4    0    0  0.46380680280E+01  0.77877272515E+02  0.83807377539E+02  0.11449916061E+03  0.00000000000E+00 0.  1.
</event>
<event>
12    1  0.8053217E-002  0.1915619E+03  0.7818608E-02  0.1157145E+00
         21   -1    0    0  501  502  0.00000000000E+00  0.00000000000E+00  0.27894628849E+03  0.27894628849E+03  0.00000000000E+00 0.  1.
         21   -1    0    0  502  503 -0.00000000000E+00 -0.00000000000E+00 -0.28420774979E+03  0.28420774979E+03  0.00000000000E+00 0.  1.
         -6    2    1    2    0  503  0.32402453517E+02 -0.77839020919E+02 -0.20917223914E+03  0.28363529082E+03  0.17200907069E+03 0.  0.
        -24    2    3    3    0    0  0.16284629965E+02 -0.11222879943E+03 -0.10869280719E+03  0.17611483998E+03  0.79635531850E+02 0.  0.
          6    2    1    2  501    0 -0.32402453517E+02  0.77839020919E+02  0.20391077784E+03  0.27951874746E+03  0.17158756566E+03 0.  0.
         24    2    5    5    0    0  0.34550166629E+02  0.84548210834E+02  0.99264098948E+02  0.15501700459E+03  0.76385839026E+02 0.  0.
          5    1    5    5  501    0 -0.66952620147E+02 -0.67091899147E+01  0.10464667889E+03  0.12450174287E+03  0.47000000000E+01 0. -1.
        -11    1    6    6    0    0 -0.13183795397E+02  0.61389552989E+02  0.35729610808E+02  0.72243302566E+02  0.00000000000E+00 0.  1.
         12    1    6    6    0    0  0.47733962027E+02  0.23158657845E+02  0.63534488141E+02  0.82773702027E+02  0.00000000000E+00 0. -1.
         -5    1    3    3    0  503  0.16117823553E+02  0.34389778512E+02 -0.10047943195E+03  0.10752045084E+03  0.47000000000E+01 0.  1.
         11    1    4    4    0    0 -0.26936359915E+02 -0.36100979311E+02 -0.62771669534E+02  0.77260149423E+02  0.00000000000E+00 0. -1.
        -12    1    4    4    0    0  0.43220989880E+02 -0.76127820119E+02 -0.45921137654E+02  0.98854690560E+02  0.00000000000E+00 0.  1.
</event>
<event>
12    1  0.8053217E-002  0.1941876E+03  0.7818608E-02  0.1155031E+00
         21   -1    0    0  503  502  0.00000000000E+00  0.00000000000E+00  0.16525424253E+03  0.16525424253E+03  0.00000000000E+00 0. -1.
         21   -1    0    0  501  503 -0.00000000000E+00 -0.00000000000E+00 -0.22729734384E+03  0.22729734384E+03  0.00000000000E+00 0. -1.
          6    2    1    2  501    0 -0.86214678510E+02  0.14224707622E+02 -0.20435080033E+02  0.19525987048E+03  0.17341716013E+03 0.  0.
         24    2    3    3    0    0  0.68922614158E+01  0.36023887947E+02 -0.40464459023E+02  0.97446923754E+02  0.80705060156E+02 0.  0.
         -6    2    1    2    0  502  0.86214678510E+02 -0.14224707622E+02 -0.41608021277E+02  0.19729171589E+03  0.17192289151E+03 0.  0.
        -24    2    5    5    0    0  0.96621707982E+02 -0.16475799795E+02  0.25691722206E+02  0.12899296662E+03  0.79824272100E+02 0.  0.
          5    1    3    3  501    0 -0.93106939926E+02 -0.21799180324E+02  0.20029378990E+02  0.97812946729E+02  0.47000000000E+01 0. -1.
        -13    1    4    4    0    0  0.37673207697E+02 -0.26747585427E+01 -0.89609697963E+01  0.38816541463E+02  0.00000000000E+00 0.  1.
         14    1    4    4    0    0 -0.30780946281E+02  0.38698646490E+02 -0.31503489227E+02  0.58630382291E+02  0.00000000000E+00 0. -1.
         -5    1    5    5    0  502 -0.10407029472E+02  0.22510921727E+01 -0.67299743483E+02  0.68298749266E+02  0.47000000000E+01 0.  1.
         11    1    6    6    0    0  0.66220189431E+02  0.52734961418E+01 -0.20546670346E+02  0.69534803603E+02  0.00000000000E+00 0. -1.
        -12    1    6    6    0    0  0.30401518551E+02 -0.21749295937E+02  0.46238392552E+02  0.59458163021E+02  0.00000000000E+00 0.  1.
</event>
<event>
12    1  0.8053217E-002  0.2515453E+03  0.7818608E-02  0.1112485E+00
         21   -1    0    0  503  502  0.00000000000E+00  0.00000000000E+00  0.73330025370E+03  0.73330025370E+03  0.00000000000E+00 0.  1.
         21   -1    0    0  501  503 -0.00000000000E+00 -0.00000000000E+00 -0.13141302489E+03  0.13141302489E+03  0.00000000000E+00 0.  1.
          6    2    1    2  501    0 -0.17640408341E+03  0.47453323105E+02  0.46272255314E+02  0.25480913835E+03  0.17151197293E+03 0.  0.
         24    2    3    3    0    0 -0.13783911205E+03 -0.19424366270E+02  0.69350221196E+02  0.17409628398E+03  0.78250470279E+02 0.  0.
         -6    2    1    2    0  502  0.17640408341E+03 -0.47453323105E+02  0.55561497349E+03  0.60990414023E+03  0.17293016796E+03 0.  0.
        -24    2    5    5    0    0  0.13914991196E+02 -0.21390681179E+02  0.17325883353E+03  0.19361064502E+03  0.82554650064E+02 0.  0.
          5    1    3    3  501    0 -0.38564971354E+02  0.66877689376E+02 -0.23077965882E+02  0.80712854373E+02  0.47000000000E+01 0. -1.
        -11    1    4    4    0    0 -0.35253111845E+02  0.95906110197E+01 -0.13634342477E+02  0.38995602435E+02  0.00000000000E+00 0.  1.
         12    1    4    4    0    0 -0.10258600021E+03 -0.29014977290E+02  0.82984563673E+02  0.13510068154E+03  0.00000000000E+00 0. -1.
         -5    1    5    5    0  502  0.16248909221E+03 -0.26062641927E+02  0.38235613996E+03  0.41629349522E+03  0.47000000000E+01 0.  1.
         13    1    6    6    0    0 -0.28775278618E+02  0.68082253066E+01  0.32990884783E+02  0.44303127092E+02  0.00000000000E+00 0. -1.
        -14    1    6    6    0    0  0.42690269814E+02 -0.28198906485E+02  0.14026794875E+03  0.14930751793E+03  0.00000000000E+00 0.  1.
</event>
<event>
12    1  0.8053217E-002  0.1730660E+03  0.7818608E-02  0.1174997E+00
         21   -1    0    0  503  502  0.00000000000E+00  0.00000000000E+00  0.11126108632E+03  0.11126108632E+03  0.00000000000E+00 0. -1.
         21   -1    0    0  501  503 -0.00000000000E+00 -0.00000000000E+00 -0.31900858297E+03  0.31900858297E+03  0.00000000000E+00 0. -1.
          6    2    1    2  501    0 -0.24609124006E+00 -0.39118006421E+00 -0.19016148525E+03  0.25631243443E+03  0.17185592800E+03 0.  0.
         24    2    3    3    0    0  0.94778204770E+01 -0.60365849843E+02 -0.15814487083E+03  0.18747444294E+03  0.80018758277E+02 0.  0.
         -6    2    1    2    0  502  0.24609124006E+00  0.39118006421E+00 -0.17586011399E+02  0.17395723486E+03  0.17306541590E+03 0.  0.
        -24    2    5    5    0    0  0.20070491847E+02  0.40897418757E+02  0.41336795137E+02  0.99608399210E+02  0.78343340860E+02 0.  0.
          5    1    3    3  501    0 -0.97239117171E+01  0.59974669778E+02 -0.32016614419E+02  0.68837991494E+02  0.47000000000E+01 0. -1.
        -11    1    4    4    0    0 -0.10374198145E+02 -0.40852665979E+02 -0.20183154836E+02  0.46732473120E+02  0.00000000000E+00 0.  1.
         12    1    4    4    0    0  0.19852018622E+02 -0.19513183864E+02 -0.13796171599E+03  0.14074196982E+03  0.00000000000E+00 0. -1.
         -5    1    5    5    0  502 -0.19824400607E+02 -0.40506238692E+02 -0.58922806536E+02  0.74348835650E+02  0.47000000000E+01 0.  1.
         13    1    6    6    0    0  0.91805666085E+01 -0.65817665956E+01  0.49010665195E+02  0.50295603760E+02  0.00000000000E+00 0. -1.
        -14    1    6    6    0    0  0.10889925238E+02  0.47479185352E+02 -0.76738700576E+01  0.49312795450E+02  0.00000000000E+00 0.  1.
</event>
<event>
12    1  0.8053217E-002  0.2180354E+03  0.7818608E-02  0.1135511E+00
         21   -1    0    0  501  502  0.00000000000E+00  0.00000000000E+00  0.66634415454E+02  0.66634415454E+02  0.00000000000E+00 0.  1.
         21   -1    0    0  502  503 -0.00000000000E+00 -0.00000000000E+00 -0.84411946234E+03  0.84411946234E+03  0.00000000000E+00 0.  1.
         -6    2    1    2    0  503 -0.10240406277E+03 -0.84930150155E+02 -0.56912722093E+03  0.60917067649E+03  0.17170730043E+03 0.  0.
        -24    2    3    3    0    0 -0.31688843567E+02  0.22782335980E+01 -0.13030217198E+03  0.15618562375E+03  0.80036990755E+02 0.  0.
          6    2    1    2  501    0  0.10240406277E+03  0.84930150155E+02 -0.20835782596E+03  0.30158320130E+03  0.17274177605E+03 0.  0.
         24    2    5    5    0    0 -0.19039819729E+01  0.21293505227E+02 -0.36996313869E+02  0.91068003272E+02  0.80421486357E+02 0.  0.
          5    1    5    5  501    0  0.10430804474E+03  0.63636644928E+02 -0.17136151209E+03  0.21051519803E+03  0.47000000000E+01 0. -1.
        -13    1    6    6    0    0  0.10711425442E+01  0.51956758598E+02 -0.27697014531E+02  0.58887831717E+02  0.00000000000E+00 0.  1.
         14    1    6    6    0    0 -0.29751245171E+01 -0.30663253371E+02 -0.92992993377E+01  0.32180171556E+02  0.00000000000E+00 0. -1.
         -5    1    3    3    0  503 -0.70715219203E+02 -0.87208383753E+02 -0.43882504894E+03  0.45298505274E+03  0.47000000000E+01 0.  1.
         11    1    4    4    0    0 -0.10735301921E+02  0.39526492042E+02 -0.82208717957E+02  0.91846957427E+02  0.00000000000E+00 0. -1.
        -12    1    4    4    0    0 -0.20953541646E+02 -0.37248258444E+02 -0.48093454025E+02  0.64338666326E+02  0.00000000000E+00 0.  1.
</event>
<event>
12    1  0.8053217E-002  0.2204493E+03  0.7818608E-02  0.1133748E+00
         21   -1    0    0  501  502  0.00000000000E+00  0.00000000000E+00  0.60993946544E+03  0.60993946544E+03  0.00000000000E+00 0.  1.
         21   -1    0    0  502  503 -0.00000000000E+00 -0.00000000000E+00 -0.34715436694E+03  0.34715436694E+03  0.00000000000E+00 0.  1.
         -6    2    1    2    0  503  0.95527404089E+02  0.99087752083E+02 -0.28903859523E+03  0.36286552549E+03  0.17083387403E+03 0.  0.
        -24    2    3    3    0    0 -0.12734961687E+02  0.44085062602E+02 -0.85053154715E+02  0.12542461572E+03  0.79947627280E+02 0.  0.
          6    2    1    2  501    0 -0.95527404089E+02 -0.99087752083E+02  0.55182369373E+03  0.59422830689E+03  0.17220343840E+03 0.  0.
         24    2    5    5    0    0 -0.93621517895E+02 -0.21685598320E+01  0.31227798971E+03  0.33576903245E+03  0.80334357712E+02 0.  0.
          5    1    5    5  501    0 -0.19058861939E+01 -0.96919192251E+02  0.23954570403E+03  0.25845927444E+03  0.47000000000E+01 0. -1.
        -13    1    6    6    0    0 -0.10342309649E+03 -0.94931141619E+01  0.30330995482E+03  0.32059847910E+03  0.00000000000E+00 0.  1.
         14    1    6    6    0    0  0.98015786000E+01  0.73245543299E+01  0.89680348841E+01  0.15170553347E+02  0.00000000000E+00 0. -1.
         -5    1    3    3    0  503  0.10826236578E+03  0.55002689481E+02 -0.20398544051E+03  0.23744090978E+03  0.47000000000E+01 0.  1.
         11    1    4    4    0    0 -0.32918683305E+02  0.10643906767E+02 -0.78543870627E+02  0.85825824056E+02  0.00000000000E+00 0. -1.
        -12    1    4    4    0    0  0.20183721618E+02  0.33441155834E+02 -0.65092840875E+01  0.39598791664E+02  0.00000000000E+00 0.  1.
</event>
<event>
12    1  0.8053217E-002  0.2052487E+03  0.7818608E-02  0.1147164E+00
         21   -1    0    0  503  502  0.00000000000E+00  0.00000000000E+00  0.66625669337E+02  0.66625669337E+02  0.00000000000E+00 0. -1.
         21   -1    0    0  501  503 -0.00000000000E+00 -0.00000000000E+00 -0.80359457000E+03  0.80359457000E+03  0.00000000000E+00 0. -1.
          6    2    1    2  501    0  0.49369476301E+02 -0.10145970142E+03 -0.58994188808E+03  0.62462667278E+03  0.17145154661E+03 0.  0.
         24    2    3    3    0    0  0.28182977816E+02 -0.13540095997E+03 -0.40012659139E+03  0.43058334358E+03  0.78568609695E+02 0.  0.
         -6    2    1    2    0  502 -0.49369476301E+02  0.10145970142E+03 -0.14702701259E+03  0.24559356656E+03  0.16114540423E+03 0.  0.
        -24    2    5    5    0    0  0.13454723463E+02  0.81286032604E+02 -0.13625384490E+03  0.17857112158E+03  0.80833696760E+02 0.  0.
          5    1    3    3  501    0  0.21186498485E+02  0.33941258551E+02 -0.18981529669E+03  0.19404332920E+03  0.47000000000E+01 0. -1.
        -13    1    4    4    0    0 -0.43132351217E+01 -0.79664112729E+02 -0.30763956427E+03  0.31781610462E+03  0.00000000000E+00 0.  1.
         14    1    4    4    0    0  0.32496212938E+02 -0.55736847244E+02 -0.92487027124E+02  0.11276723896E+03  0.00000000000E+00 0. -1.
         -5    1    5    5    0  502 -0.62824199765E+02  0.20173668818E+02 -0.10773167688E+02  0.67022444984E+02  0.47000000000E+01 0.  1.
         11    1    6    6    0    0  0.17513277692E+02  0.95460144647E+02 -0.99616335458E+02  0.13907828156E+03  0.00000000000E+00 0. -1.
        -12    1    6    6    0    0 -0.40585542285E+01 -0.14174112043E+02 -0.36637509441E+02  0.39492840018E+02  0.00000000000E+00 0.  1.
</event>
<event>
12    1  0.8053217E-002  0.2173564E+03  0.7818608E-02  0.1135894E+00
         21   -1    0    0  501  502  0.00000000000E+00  0.00000000000E+00  0.99984390688E+03  0.99984390688E+03  0.00000000000E+00 0. -1.
         21   -1    0    0  502  503 -0.00000000000E+00 -0.00000000000E+00 -0.60813363846E+02  0.60813363846E+02  0.00000000000E+00 0.  1.
         -6    2    1    2    0  503  0.22816592052E+02  0.13124863551E+03  0.72011329291E+03  0.75216324427E+03  0.17157969054E+03 0.  0.
        -24    2    3    3    0    0  0.76869912730E+02  0.11870098334E+03  0.52832962666E+03  0.55245778693E+03  0.77964767689E+02 0.  0.
          6    2    1    2  501    0 -0.22816592052E+02 -0.13124863551E+03  0.21891725012E+03  0.30849402645E+03  0.17174690903E+03 0.  0.
         24    2    5    5    0    0  0.26430278888E+02 -0.11324692792E+03  0.21273633120E+03  0.25548827646E+03  0.80585894998E+02 0.  0.
          5    1    5    5  501    0 -0.49246870941E+02 -0.18001707588E+02  0.61809189236E+01  0.53005749993E+02  0.47000000000E+01 0. -1.
        -11    1    6    6    0    0 -0.26028907745E+02 -0.18229459583E+02  0.35372763326E+02  0.47550495480E+02  0.00000000000E+00 0.  1.
         12    1    6    6    0    0  0.52459186634E+02 -0.95017468340E+02  0.17736356787E+03  0.20793778098E+03  0.00000000000E+00 0. -1.
         -5    1    3    3    0  503 -0.54053320678E+02  0.12547652173E+02  0.19178366625E+03  0.19970545734E+03  0.47000000000E+01 0.  1.
         13    1    4    4    0    0  0.20074491327E+02  0.75596701681E+02  0.17037644325E+03  0.18747260846E+03  0.00000000000E+00 0. -1.
        -14    1    4    4    0    0  0.56795421403E+02  0.43104281657E+02  0.35795318341E+03  0.36498517847E+03  0.00000000000E+00 0.  1.
</event>
<event>
12    1  0.8053217E-002  0.1762465E+03  0.7818608E-02  0.1171489E+00
         21   -1    0    0  503  502  0.00000000000E+00  0.00000000000E+00  0.49079219783E+03  0.49079219783E+03  0.00000000000E+00 0.  1.
         21   -1    0    0  501  503 -0.00000000000E+00 -0.00000000000E+00 -0.63916843731E+02  0.63916843731E+02  0.00000000000E+00 0.  1.
          6    2    1    2  501    0  0.28121648484E+02  0.22132047751E+02  0.24096921780E+03  0.29853738628E+03  0.17256231463E+03 0.  0.
         24    2    3    3    0    0 -0.10020501605E+02 -0.24530324118E+02  0.48546669537E+02  0.96842746686E+02  0.79495856551E+02 0.  0.
         -6    2    1    2    0  502 -0.28121648484E+02 -0.22132047751E+02  0.18590613630E+03  0.25617165528E+03  0.17257511641E+03 0.  0.
        -24    2    5    5    0    0 -0.48285013346E+02 -0.22378936211E+02  0.39556065573E+02  0.10836416075E+03  0.85707932611E+02 0.  0.
          5    1    3    3  501    0  0.38142150089E+02  0.46662371869E+02  0.19242254827E+03  0.20169463960E+03  0.47000000000E+01 0. -1.
        -11    1    4    4    0    0 -0.32652247515E+02  0.59589697237E+01  0.48623049464E+02  0.58871720946E+02  0.00000000000E+00 0.  1.
         12    1    4    4    0    0  0.22631745910E+02 -0.30489293842E+02 -0.76379926819E-01  0.37971025740E+02  0.00000000000E+00 0. -1.
         -5    1    5    5    0  502  0.20163364862E+02  0.24688846016E+00  0.14635007073E+03  0.14780749452E+03  0.47000000000E+01 0.  1.
         13    1    6    6    0    0  0.20185016092E+02 -0.40778836906E+01  0.30660937979E+02  0.36934497801E+02  0.00000000000E+00 0. -1.
        -14    1    6    6    0    0 -0.68470029438E+02 -0.18301052521E+02  0.88951275937E+01  0.71429662953E+02  0.00000000000E+00 0.  1.
</event>
<event>
12    1  0.8053217E-002  0.2104037E+03  0.7818608E-02  0.1143776E+00
         21   -1    0    0  501  502  0.00000000000E+00  0.00000000000E+00  0.14646679172E+03  0.14646679172E+03  0.00000000000E+00 0.  1.
         21   -1    0    0  502  503 -0.00000000000E+00 -0.00000000000E+00 -0.98824198890E+03  0.98824198890E+03  0.00000000000E+00 0.  1.
         -6    2    1    2    0  503  0.10054123185E+02  0.12174607869E+03 -0.89584710854E+03  0.91746819520E+03  0.15582892622E+03 0.  0.
        -24    2    3    3    0    0  0.28602879836E+02  0.12921427541E+03 -0.54793656518E+03  0.56895181607E+03  0.77183131889E+02 0.  0.
          6    2    1    2  501    0 -0.10054123185E+02 -0.12174607869E+03  0.54071911364E+02  0.21724058542E+03  0.17130822306E+03 0.  0.
         24    2    5    5    0    0 -0.17375850404E+02 -0.14296413635E+03  0.67485621614E+01  0.16465348587E+03  0.79527120268E+02 0.  0.
          5    1    5    5  501    0  0.73217272193E+01  0.21218057657E+02  0.47323349202E+02  0.52587099558E+02  0.47000000000E+01 0. -1.
        -11    1    6    6    0    0  0.27066535489E+02 -0.34076919817E+02  0.16729596300E+02  0.46623097279E+02  0.00000000000E+00 0.  1.
         12    1    6    6    0    0 -0.44442385893E+02 -0.10888721653E+03 -0.99810341390E+01  0.11803038859E+03  0.00000000000E+00 0. -1.
         -5    1    3    3    0  503 -0.18548756651E+02 -0.74681967170E+01 -0.34791054336E+03  0.34851637912E+03  0.47000000000E+01 0.  1.
         11    1    4    4    0    0 -0.11498624179E+02  0.30114590516E-01 -0.11005178566E+03  0.11065086892E+03  0.00000000000E+00 0. -1.
        -12    1    4    4    0    0  0.40101504015E+02  0.12918416082E+03 -0.43788477952E+03  0.45830094715E+03  0.00000000000E+00 0.  1.
</event>
<event>
12    1  0.8053217E-002  0.2977300E+03  0.7818608E-02  0.1086468E+00
         21   -1    0    0  503  502  0.00000000000E+00  0.00000000000E+00  0.14540714825E+03  0.14540714825E+03  0.00000000000E+00 0. -1.
         21   -1    0    0  501  503 -0.00000000000E+00 -0.00000000000E+00 -0.79225937589E+03  0.79225937589E+03  0.00000000000E+00 0.  1.
          6    2    1    2  501    0 -0.16815591402E+03  0.17562425163E+03 -0.97741232362E+02  0.31336321544E+03  0.17182219620E+03 0.  0.
         24    2    3    3    0    0 -0.19505103787E+03  0.15956806408E+03 -0.78919447745E+02  0.27651897000E+03  0.82021869571E+02 0.  0.
         -6    2    1    2    0  502  0.16815591402E+03 -0.17562425163E+03 -0.54911099528E+03  0.62430330870E+03  0.17062076935E+03 0.  0.
        -24    2    5    5    0    0  0.14767513725E+03 -0.92722677991E+02 -0.29995719708E+03  0.36088000242E+03  0.99270412993E+02 0.  0.
          5    1    3    3  501    0  0.26895123854E+02  0.16056187551E+02 -0.18821784616E+02  0.36844245438E+02  0.47000000000E+01 0. -1.
        -13    1    4    4    0    0 -0.89468630762E+02  0.10037396214E+03 -0.78051340726E+02  0.15547211954E+03  0.00000000000E+00 0.  1.
         14    1    4    4    0    0 -0.10558240711E+03  0.59194101943E+02 -0.86810701949E+00  0.12104685046E+03  0.00000000000E+00 0. -1.
         -5    1    5    5    0  502  0.20480776771E+02 -0.82901573641E+02 -0.24915379821E+03  0.26342330628E+03  0.47000000000E+01 0.  1.
         13    1    6    6    0    0  0.27857944154E+02 -0.58154067353E+02 -0.50193357571E+02  0.81714954240E+02  0.00000000000E+00 0. -1.
        -14    1    6    6    0    0  0.11981719310E+03 -0.34568610638E+02 -0.24976383951E+03  0.27916504818E+03  0.00000000000E+00 0.  1.
</event>
<event>
12    1  0.8053217E-002  0.2306194E+03  0.7818608E-02  0.1126554E+00
         21   -1    0    0  503  502  0.00000000000E+00  0.00000000000E+00  0.26429309211E+04  0.26429309211E+04  0.00000000000E+00 0. -1.
         21   -1    0    0  501  503 -0.00000000000E+00 -0.00000000000E+00 -0.30400033243E+02  0.30400033243E+02  0.00000000000E+00 0.  1.
          6    2    1    2  501    0 -0.10074907483E+03  0.11296104508E+03  0.51889909635E+03  0.56703577917E+03  0.17135556273E+03 0.  0.
         24    2    3    3    0    0 -0.42954219992E+02  0.12066422627E+01  0.31434488892E+03  0.32684043040E+03  0.78520295135E+02 0.  0.
         -6    2    1    2    0  502  0.10074907483E+03 -0.11296104508E+03  0.20936317916E+04  0.21062951752E+04  0.17399630104E+03 0.  0.
        -24    2    5    5    0    0  0.14011004689E+03 -0.86946237242E+02  0.16587674420E+04  0.16688535805E+04  0.79827143504E+02 0.  0.
          5    1    3    3  501    0 -0.57794854843E+02  0.11175440282E+03  0.20455420742E+03  0.24019534877E+03  0.47000000000E+01 0. -1.
        -11    1    4    4    0    0 -0.62919759279E+02  0.11307077019E+02  0.18912503858E+03  0.19963723680E+03  0.00000000000E+00 0.  1.
         12    1    4    4    0    0  0.19965539288E+02 -0.10100434756E+02  0.12521985034E+03  0.12720319360E+03  0.00000000000E+00 0. -1.
         -5    1    5    5    0  502 -0.39360972060E+02 -0.26014807839E+02  0.43486434951E+03  0.43744159476E+03  0.47000000000E+01 0.  1.
         13    1    6    6    0    0  0.12154022025E+03 -0.10019859512E+03  0.13299349960E+04  0.13392307035E+04  0.00000000000E+00 0. -1.
        -14    1    6    6    0    0  0.18569826647E+02  0.13252357878E+02  0.32883244601E+03  0.32962287693E+03  0.00000000000E+00 0.  1.
</event>
<event>
12    1  0.8053217E-002  0.2801310E+03  0.7818608E-02  0.1096044E+00
         21   -1    0    0  501  502  0.00000000000E+00  0.00000000000E+00  0.11234839989E+04  0.11234839989E+04  0.00000000000E+00 0. -1.
         21   -1    0    0  502  503 -0.00000000000E+00 -0.00000000000E+00 -0.86558691296E+02  0.86558691296E+02  0.00000000000E+00 0.  1.
         -6    2    1    2    0  503 -0.97788181774E+02 -0.18856105340E+03  0.24886309274E+03  0.37470814871E+03  0.18263504163E+03 0.  0.
        -24    2    3    3    0    0  0.15849768052E+02 -0.42035666107E+02  0.95553903152E+02  0.13406511355E+03  0.82611705534E+02 0.  0.
          6    2    1    2  501    0  0.97788181774E+02  0.18856105340E+03  0.78806221484E+03  0.83533454146E+03  0.17783121867E+03 0.  0.
         24    2    5    5    0    0  0.71176472306E+02  0.20876043457E+03  0.74218191569E+03  0.77838465181E+03  0.80010380239E+02 0.  0.
          5    1    5    5  501    0  0.26611709468E+02 -0.20199381166E+02  0.45880299150E+02  0.56949889643E+02  0.47000000000E+01 0. -1.
        -11    1    6    6    0    0  0.16954223609E+02  0.32623233626E+02  0.49836999668E+02  0.61930990678E+02  0.00000000000E+00 0.  1.
         12    1    6    6    0    0  0.54222248698E+02  0.17613720094E+03  0.69234491602E+03  0.71645366113E+03  0.00000000000E+00 0. -1.
         -5    1    3    3    0  503 -0.11363794983E+03 -0.14652538729E+03  0.15330918958E+03  0.24064303517E+03  0.47000000000E+01 0.  1.
         11    1    4    4    0    0 -0.19544137024E+02 -0.14276146972E+02  0.84288516107E+02  0.87694558621E+02  0.00000000000E+00 0. -1.
        -12    1    4    4    0    0  0.35393905075E+02 -0.27759519135E+02  0.11265387045E+02  0.46370554928E+02  0.00000000000E+00 0.  1.
</event>
<event>
12    1  0.8053217E-002  0.1728734E+03  0.7818608E-02  0.1175036E+00
         21   -1    0    0  503  502  0.00000000000E+00  0.00000000000E+00  0.14401453964E+03  0.14401453964E+03  0.00000000000E+00 0. -1.
         21   -1    0    0  501  503 -0.00000000000E+00 -0.00000000000E+00 -0.21563178314E+03  0.21563178314E+03  0.00000000000E+00 0. -1.
          6    2    1    2  501    0  0.76550329095E+01  0.66587997146E+01  0.52284823829E+00  0.17287418639E+03  0.17257540905E+03 0.  0.
         24    2    3    3    0    0  0.39470447264E+02 -0.53282242995E+02  0.67496954366E+01  0.10456596714E+03  0.80570276584E+02 0.  0.
         -6    2    1    2    0  502 -0.76550329095E+01 -0.66587997146E+01 -0.72140091739E+02  0.18677213639E+03  0.17197877472E+03 0.  0.
        -24    2    5    5    0    0  0.21477588338E+02  0.33036595885E+02 -0.97674190798E+02  0.13110783663E+03  0.78078894781E+02 0.  0.
          5    1    3    3  501    0 -0.31815414355E+02  0.59941042710E+02 -0.62268471983E+01  0.68308219255E+02  0.47000000000E+01 0. -1.
        -13    1    4    4    0    0 -0.21513027698E+02  0.20142981954E+01  0.52309366510E+01  0.22231294523E+02  0.00000000000E+00 0.  1.
         14    1    4    4    0    0  0.60983474962E+02 -0.55296541191E+02  0.15187587856E+01  0.82334672613E+02  0.00000000000E+00 0. -1.
         -5    1    5    5    0  502 -0.29132621247E+02 -0.39695395600E+02  0.25534099059E+02  0.55664299756E+02  0.47000000000E+01 0.  1.
         11    1    6    6    0    0  0.16321737186E+02 -0.16155981719E+02 -0.71602249935E+02  0.75195059983E+02  0.00000000000E+00 0. -1.
        -12    1    6    6    0    0  0.51558511517E+01  0.49192577604E+02 -0.26071940862E+02  0.55912776650E+02  0.00000000000E+00 0.  1.
</event>
<event>
12    1  0.8053217E-002  0.2910457E+03  0.7818608E-02  0.1089858E+00
         21   -1    0    0  503  502  0.00000000000E+00  0.00000000000E+00  0.10778492828E+03  0.10778492828E+03  0.00000000000E+00 0. -1.
         21   -1    0    0  501  503 -0.00000000000E+00 -0.00000000000E+00 -0.81359973283E+03  0.81359973283E+03  0.00000000000E+00 0.  1.
          6    2    1    2  501    0  0.20458295309E+03 -0.11453221872E+03 -0.43984308342E+03  0.52741781534E+03  0.17244071470E+03 0.  0.
         24    2    3    3    0    0  0.21570113698E+03 -0.12364451553E+03 -0.35179643131E+03  0.43808164733E+03  0.79623199703E+02 0.  0.
         -6    2    1    2    0  502 -0.20458295309E+03  0.11453221872E+03 -0.26597172113E+03  0.39396684577E+03  0.17174721339E+03 0.  0.
        -24    2    5    5    0    0 -0.63812816245E+02  0.33032505829E+02 -0.38956991383E+02  0.11465302200E+03  0.80401780559E+02 0.  0.
          5    1    3    3  501    0 -0.11118183892E+02  0.91122968111E+01 -0.88046652115E+02  0.89336168011E+02  0.47000000000E+01 0. -1.
        -11    1    4    4    0    0  0.15804230308E+03 -0.50902371838E+02 -0.19754245333E+03  0.25805317647E+03  0.00000000000E+00 0.  1.
         12    1    4    4    0    0  0.57658833897E+02 -0.72742143693E+02 -0.15425397798E+03  0.18002847085E+03  0.00000000000E+00 0. -1.
         -5    1    5    5    0  502 -0.14077013684E+03  0.81499712891E+02 -0.22701472975E+03  0.27931382377E+03  0.47000000000E+01 0.  1.
         11    1    6    6    0    0 -0.61260121591E+02  0.56959693570E+02 -0.32477704445E+02  0.89732995464E+02  0.00000000000E+00 0. -1.
        -12    1    6    6    0    0 -0.25526946533E+01 -0.23927187741E+02 -0.64792869385E+01  0.24920026533E+02  0.00000000000E+00 0.  1.
</event>
<event>
12    1  0.8053217E-002  0.3216210E+03  0.7818608E-02  0.1075131E+00
         21   -1    0    0  501  502  0.00000000000E+00  0.00000000000E+00  0.76348957348E+03  0.76348957348E+03  0.00000000000E+00 0. -1.
         21   -1    0    0  502  503 -0.00000000000E+00 -0.00000000000E+00 -0.29367892117E+03  0.29367892117E+03  0.00000000000E+00 0.  1.
         -6    2    1    2    0  503  0.25724933636E+03  0.89667409793E+02 -0.15438250469E+03  0.35498819106E+03  0.16722796598E+03 0.  0.
        -24    2    3    3    0    0  0.79187391826E+02 -0.17856602679E+02 -0.69081479524E+02  0.13011973120E+03  0.74628361567E+02 0.  0.
          6    2    1    2  501    0 -0.25724933636E+03 -0.89667409793E+02  0.62419315700E+03  0.70218030358E+03  0.17094623732E+03 0.  0.
         24    2    5    5    0    0 -0.66789735887E+02 -0.18344309518E+02  0.31328130366E+03  0.33062934531E+03  0.79832363396E+02 0.  0.
          5    1    5    5  501    0 -0.19045960047E+03 -0.71323100275E+02  0.31091185334E+03  0.37155095827E+03  0.47000000000E+01 0. -1.
        -13    1    6    6    0    0 -0.15671691097E+02  0.76643594702E+01  0.66336274005E+01  0.18664118528E+02  0.00000000000E+00 0.  1.
         14    1    6    6    0    0 -0.51118044790E+02 -0.26008668988E+02  0.30664767626E+03  0.31196522678E+03  0.00000000000E+00 0. -1.
         -5    1    3    3    0  503  0.17806194453E+03  0.10752401247E+03 -0.85301025169E+02  0.22486845987E+03  0.47000000000E+01 0.  1.
         11    1    4    4    0    0  0.45926339861E+02 -0.13589105215E+02  0.56331843319E+01  0.48224736799E+02  0.00000000000E+00 0. -1.
        -12    1    4    4    0    0  0.33261051964E+02 -0.42674974638E+01 -0.74714663856E+02  0.81894994398E+02  0.00000000000E+00 0.  1.
</event>
<event>
12    1  0.8053217E-002  0.1850510E+03  0.7818608E-02  0.1163012E+00
         21   -1    0    0  503  502  0.00000000000E+00  0.00000000000E+00  0.12580342336E+04  0.12580342336E+04  0.00000000000E+00 0.  1.
         21   -1    0    0  501  503 -0.00000000000E+00 -0.00000000000E+00 -0.13378098695E+03  0.13378098695E+03  0.00000000000E+00 0.  1.
          6    2    1    2  501    0 -0.65709736814E+02  0.15307889019E+02 -0.58991849446E+02  0.19418722475E+03  0.17226879862E+03 0.  0.
         24    2    3    3    0    0 -0.32817355174E+02 -0.47519201495E+02 -0.72344885142E+02  0.12187162730E+03  0.79270787954E+02 0.  0.
         -6    2    1    2    0  502  0.65709736814E+02 -0.15307889019E+02  0.11832450961E+04  0.11976279958E+04  0.17231296501E+03 0.  0.
        -24    2    5    5    0    0 -0.13262810406E+02 -0.43563470954E+02  0.41912467614E+03  0.42890363212E+03  0.78861608867E+02 0.  0.
          5    1    3    3  501    0 -0.32892381640E+02  0.62827090513E+02  0.13353035696E+02  0.72315597451E+02  0.47000000000E+01 0. -1.
        -11    1    4    4    0    0 -0.39081783964E+02  0.67986724880E+00 -0.58746267752E+01  0.39526690944E+02  0.00000000000E+00 0.  1.
         12    1    4    4    0    0  0.62644287895E+01 -0.48199068743E+02 -0.66470258367E+02  0.82344936354E+02  0.00000000000E+00 0. -1.
         -5    1    5    5    0  502  0.78972547220E+02  0.28255581935E+02  0.76412041999E+03  0.76872436372E+03  0.47000000000E+01 0.  1.
         11    1    6    6    0    0 -0.43780550803E+02 -0.11442417630E+02  0.17284854092E+03  0.17867367923E+03  0.00000000000E+00 0. -1.
        -12    1    6    6    0    0  0.30517740397E+02 -0.32121053324E+02  0.24627613522E+03  0.25022995289E+03  0.00000000000E+00 0.  1.
</event>
<event>
12    1  0.8053217E-002  0.2151872E+03  0.7818608E-02  0.1138173E+00
         21   -1    0    0  503  502  0.00000000000E+00  0.00000000000E+00  0.45017852325E+03  0.45017852325E+03  0.00000000000E+00 0.  1.
         21   -1    0    0  501  503 -0.00000000000E+00 -0.00000000000E+00 -0.10460415612E+03  0.10460415612E+03  0.00000000000E+00 0.  1.
          6    2    1    2  501    0  0.91544277509E+02  0.91884677974E+02  0.22106837369E+03  0.30617198264E+03  0.16747211206E+03 0.  0.
         24    2    3    3    0    0  0.95792756230E+01 -0.91756686920E+01  0.71851306364E+02  0.10813340462E+03  0.79713659755E+02 0.  0.
         -6    2    1    2    0  502 -0.91544277509E+02 -0.91884677974E+02  0.12450599344E+03  0.24861069673E+03  0.17170436026E+03 0.  0.
        -24    2    5    5    0    0  0.11898657188E+02 -0.84696303186E+01  0.47456358040E+02  0.94931657069E+02  0.80911067937E+02 0.  0.
          5    1    3    3  501    0  0.81965001886E+02  0.10106034667E+03  0.14921706732E+03  0.19803857802E+03  0.47000000000E+01 0. -1.
        -11    1    4    4    0    0 -0.96513386737E+01 -0.14660317661E+02  0.83273903908E+02  0.85103562348E+02  0.00000000000E+00 0.  1.
         12    1    4    4    0    0  0.19230614297E+02  0.54846489687E+01 -0.11422597544E+02  0.23029842275E+02  0.00000000000E+00 0. -1.
         -5    1    5    5    0  502 -0.10344293470E+03 -0.83415047656E+02  0.77049635404E+02  0.15367903966E+03  0.47000000000E+01 0.  1.
         11    1    6    6    0    0 -0.15407894130E+02  0.23530272714E+02  0.44651018351E+02  0.52771113076E+02  0.00000000000E+00 0. -1.
        -12    1    6    6    0    0  0.27306551317E+02 -0.31999903033E+02  0.28053396891E+01  0.42160543992E+02  0.00000000000E+00 0.  1.
</event>
<event>
12    1  0.8053217E-002  0.2070327E+03  0.7818608E-02  0.1144015E+00
         21   -1    0    0  503  502  0.00000000000E+00  0.00000000000E+00  0.34525200187E+03  0.34525200187E+03  0.00000000000E+00 0.  1.
         21   -1    0    0  501  503 -0.00000000000E+00 -0.00000000000E+00 -0.18047669055E+03  0.18047669055E+03  0.00000000000E+00 0.  1.
          6    2    1    2  501    0  0.11483967853E+03  0.89449518831E+01 -0.64712848191E+02  0.21691080180E+03  0.17203016970E+03 0.  0.
         24    2    3    3    0    0  0.14999327596E+02  0.53710243621E+02 -0.40635854207E+02  0.10477776181E+03  0.78850089561E+02 0.  0.
         -6    2    1    2    0  502 -0.11483967853E+03 -0.89449518831E+01  0.22948815952E+03  0.30881789061E+03  0.17156780081E+03 0.  0.
        -24    2    5    5    0    0 -0.11472860066E+02  0.41338246293E+02  0.86949014848E+02  0.12564421090E+03  0.79911572530E+02 0.  0.
          5    1    3    3  501    0  0.99840350936E+02 -0.44765291737E+02 -0.24076993984E+02  0.11213304000E+03  0.47000000000E+01 0. -1.
        -11    1    4    4    0    0 -0.23408950450E+02  0.65127370415E+01 -0.36419807750E+02  0.43781241434E+02  0.00000000000E+00 0.  1.
         12    1    4    4    0    0  0.38408278047E+02  0.47197506579E+02 -0.42160464571E+01  0.60996520372E+02  0.00000000000E+00 0. -1.
         -5    1    5    5    0  502 -0.10336681847E+03 -0.50283198176E+02  0.14253914467E+03  0.18317367972E+03  0.47000000000E+01 0.  1.
         11    1    6    6    0    0 -0.11293758047E+02 -0.22752120347E+02  0.15935366220E+02  0.29985727400E+02  0.00000000000E+00 0. -1.
        -12    1    6    6    0    0 -0.17910201875E+00  0.64090366640E+02  0.71013648628E+02  0.95658483497E+02  0.00000000000E+00 0.  1.
</event>
<event>
12    1  0.8053217E-002  0.1733130E+03  0.7818608E-02  0.1175047E+00
         21   -1    0    0  503  502  0.00000000000E+00  0.00000000000E+00  0.17709387588E+03  0.17709387588E+03  0.00000000000E+00 0. -1.
         21   -1    0    0  501  503 -0.00000000000E+00 -0.00000000000E+00 -0.17780504474E+03  0.17780504474E+03  0.00000000000E+00 0. -1.
          6    2    1    2  501    0 -0.14264282537E+02  0.82324546222E+01 -0.43518740853E+02  0.17869320762E+03  0.17252866017E+03 0.  0.
         24    2    3    3    0    0  0.58299472587E+02  0.12070151759E+01 -0.30208010620E+02  0.10443608071E+03  0.81203975638E+02 0.  0.
         -6    2    1    2    0  502  0.14264282537E+02 -0.82324546222E+01  0.42807571993E+02  0.17620571300E+03  0.17013148447E+03 0.  0.
        -24    2    5    5    0    0  0.46804503547E+02  0.24289220566E+02 -0.17903449020E+02  0.99887671794E+02  0.82923975433E+02 0.  0.
          5    1    3    3  501    0 -0.72563755124E+02  0.70254394463E+01 -0.13310730233E+02  0.74257126907E+02  0.47000000000E+01 0. -1.
        -13    1    4    4    0    0  0.22053597144E+02  0.19979240501E+02  0.22831992511E+02  0.37507746934E+02  0.00000000000E+00 0.  1.
         14    1    4    4    0    0  0.36245875443E+02 -0.18772225325E+02 -0.53040003131E+02  0.66928333779E+02  0.00000000000E+00 0. -1.
         -5    1    5    5    0  502 -0.32540221010E+02 -0.32521675188E+02  0.60711021013E+02  0.76318041202E+02  0.47000000000E+01 0.  1.
         11    1    6    6    0    0  0.70326015266E+02  0.25129742252E+02 -0.15002983783E+02  0.76173104776E+02  0.00000000000E+00 0. -1.
        -12    1    6    6    0    0 -0.23521511719E+02 -0.84052168594E+00 -0.29004652377E+01  0.23714567018E+02  0.00000000000E+00 0.  1.
</event>
<event>
12    1  0.8053217E-002  0.1847258E+03  0.7818608E-02  0.1163729E+00
         21   -1    0    0  501  502  0.00000000000E+00  0.00000000000E+00  0.19384022086E+03  0.19384022086E+03  0.00000000000E+00 0. -1.
         21   -1    0    0  502  503 -0.00000000000E+00 -0.00000000000E+00 -0.18240677955E+03  0.18240677955E+03  0.00000000000E+00 0. -1.
         -6    2    1    2    0  503 -0.54548354807E+02  0.28808941013E+02 -0.33892923880E+02  0.18604158434E+03  0.17221284134E+03 0.  0.
        -24    2    3    3    0    0 -0.37200288884E+02 -0.44448269097E+02 -0.47262097949E+02  0.10943610778E+03  0.79893965130E+02 0.  0.
          6    2    1    2  501    0  0.54548354807E+02 -0.28808941013E+02  0.45326365188E+02  0.19020541607E+03  0.17412105796E+03 0.  0.
         24    2    5    5    0    0  0.99853790604E+02 -0.21582766553E+02  0.59055594906E+02  0.14208700110E+03  0.79148956294E+02 0.  0.
          5    1    5    5  501    0 -0.45305435796E+02 -0.72261744606E+01 -0.13729229718E+02  0.48118414964E+02  0.47000000000E+01 0. -1.
        -13    1    6    6    0    0 -0.40537846968E+00  0.18147572104E+02  0.20922693454E+02  0.27699418881E+02  0.00000000000E+00 0.  1.
         14    1    6    6    0    0  0.10025916907E+03 -0.39730338657E+02  0.38132901452E+02  0.11438758222E+03  0.00000000000E+00 0. -1.
         -5    1    3    3    0  503 -0.17348065923E+02  0.73257210111E+02  0.13369174068E+02  0.76605476565E+02  0.47000000000E+01 0.  1.
         11    1    4    4    0    0 -0.26620398695E+02  0.17688095115E+02 -0.23620952482E+01  0.32048304627E+02  0.00000000000E+00 0. -1.
        -12    1    4    4    0    0 -0.10579890189E+02 -0.62136364213E+02 -0.44900002701E+02  0.77387803151E+02  0.00000000000E+00 0.  1.
</event>
<event>
12    1  0.8053217E-002  0.1853481E+03  0.7818608E-02  0.1162972E+00
         21   -1    0    0  503  502  0.00000000000E+00  0.00000000000E+00  0.30641891852E+02  0.30641891852E+02  0.00000000000E+00 0.  1.
         21   -1    0    0  501  503 -0.00000000000E+00 -0.00000000000E+00 -0.11891520294E+04  0.11891520294E+04  0.00000000000E+00 0.  1.
          6    2    1    2  501    0 -0.40434619359E+02  0.50494394617E+02 -0.73334585184E+03  0.75640600655E+03  0.17369302234E+03 0.  0.
         24    2    3    3    0    0 -0.12633389749E+02  0.42655829052E+02 -0.16569957026E+03  0.18800584604E+03  0.76881260872E+02 0.  0.
         -6    2    1    2    0  502  0.40434619359E+02 -0.50494394617E+02 -0.42516428575E+03  0.46338791474E+03  0.17256606653E+03 0.  0.
        -24    2    5    5    0    0  0.62808078591E+02 -0.88621590804E+02 -0.36273062763E+03  0.38674389062E+03  0.78731744668E+02 0.  0.
          5    1    3    3  501    0 -0.27801229610E+02  0.78385655655E+01 -0.56764628158E+03  0.56840016051E+03  0.47000000000E+01 0. -1.
        -11    1    4    4    0    0 -0.30930792825E+02  0.52587253992E+02 -0.14999496696E+03  0.16192783374E+03  0.00000000000E+00 0.  1.
         12    1    4    4    0    0  0.18297403076E+02 -0.99314249407E+01 -0.15704603297E+02  0.26078012298E+02  0.00000000000E+00 0. -1.
         -5    1    5    5    0  502 -0.22373459231E+02  0.38127196187E+02 -0.62433658124E+02  0.76644024123E+02  0.47000000000E+01 0.  1.
         11    1    6    6    0    0  0.18243397073E+02  0.82293846278E+01 -0.22082620002E+02  0.29802456515E+02  0.00000000000E+00 0. -1.
        -12    1    6    6    0    0  0.44564681517E+02 -0.96850975432E+02 -0.34064800763E+03  0.35694143410E+03  0.00000000000E+00 0.  1.
</event>
<event>
12    1  0.8053217E-002  0.1844993E+03  0.7818608E-02  0.1165359E+00
         21   -1    0    0  503  502  0.00000000000E+00  0.00000000000E+00  0.25409699393E+03  0.25409699393E+03  0.00000000000E+00 0. -1.
         21   -1    0    0  501  503 -0.00000000000E+00 -0.00000000000E+00 -0.13781239639E+03  0.13781239639E+03  0.00000000000E+00 0. -1.
          6    2    1    2  501    0  0.39272995814E+02 -0.31870547703E+02  0.59163418002E+01  0.17691836978E+03  0.16943142109E+03 0.  0.
         24    2    3    3    0    0  0.38941418565E+02 -0.35314275040E+01  0.69205022631E+02  0.10741468068E+03  0.72247307268E+02 0.  0.
         -6    2    1    2    0  502 -0.39272995814E+02  0.31870547703E+02  0.11036825574E+03  0.21499102054E+03  0.17743135863E+03 0.  0.
        -24    2    5    5    0    0 -0.50555226952E+02  0.70699028551E+02  0.12368552031E+03  0.17216136726E+03  0.82384736647E+02 0.  0.
          5    1    3    3  501    0  0.33157724929E+00 -0.28339120199E+02 -0.63288680831E+02  0.69503689099E+02  0.47000000000E+01 0. -1.
        -11    1    4    4    0    0  0.49750819357E+02  0.11214963443E+02  0.19753170519E+02  0.54691015508E+02  0.00000000000E+00 0.  1.
         12    1    4    4    0    0 -0.10809400793E+02 -0.14746390947E+02  0.49451852112E+02  0.52723665168E+02  0.00000000000E+00 0. -1.
         -5    1    5    5    0  502  0.11282231138E+02 -0.38828480848E+02 -0.13317264566E+02  0.42829653278E+02  0.47000000000E+01 0.  1.
         11    1    6    6    0    0 -0.16528028380E+02  0.48125149528E+02  0.12097089974E+03  0.13123705393E+03  0.00000000000E+00 0. -1.
        -12    1    6    6    0    0 -0.34027198572E+02  0.22573879022E+02  0.27146205661E+01  0.40924313331E+02  0.00000000000E+00 0.  1.
</event>
<event>
12    1  0.8053217E-002  0.2055305E+03  0.7818608E-02  0.1145275E+00
         21   -1    0    0  503  502  0.00000000000E+00  0.00000000000E+00  0.16982927297E+03  0.16982927297E+03  0.00000000000E+00 0.  1.
         21   -1    0    0  501  503 -0.00000000000E+00 -0.00000000000E+00 -0.36083993828E+03  0.36083993828E+03  0.00000000000E+00 0.  1.
          6    2    1    2  501    0 -0.52856923759E+02  0.98778131437E+02 -0.24396060847E+03  0.31899774020E+03  0.17231310493E+03 0.  0.
         24    2    3    3    0    0 -0.79834631898E+02  0.12951610988E+02 -0.15386351996E+03  0.19158673712E+03  0.80561668226E+02 0.  0.
         -6    2    1    2    0  502  0.52856923759E+02 -0.98778131437E+02  0.52949943161E+02  0.21167147104E+03  0.17161043539E+03 0.  0.
        -24    2    5    5    0    0  0.20133752700E+02  0.96421505114E+01 -0.47948364527E+01  0.84461750368E+02  0.81317020078E+02 0.  0.
          5    1    3    3  501    0  0.26977708139E+02  0.85826520450E+02 -0.90097088510E+02  0.12741100308E+03  0.47000000000E+01 0. -1.
        -13    1    4    4    0    0  0.83539183539E+00  0.11985589662E+02  0.53099002136E+01  0.13135725307E+02  0.00000000000E+00 0.  1.
         14    1    4    4    0    0 -0.80670023733E+02  0.96602132530E+00 -0.15917342017E+03  0.17845101181E+03  0.00000000000E+00 0. -1.
         -5    1    5    5    0  502  0.32723171059E+02 -0.10842028195E+03  0.57744779614E+02  0.12720972068E+03  0.47000000000E+01 0.  1.
         13    1    6    6    0    0 -0.25814037821E+01  0.20318597039E+02  0.33149945640E+02  0.38967010754E+02  0.00000000000E+00 0. -1.
        -14    1    6    6    0    0  0.22715156482E+02 -0.10676446528E+02 -0.37944782093E+02  0.45494739614E+02  0.00000000000E+00 0.  1.
</event>
<event>
12    1  0.8053217E-002  0.1819124E+03  0.7818608E-02  0.1166025E+00
         21   -1    0    0  501  502  0.00000000000E+00  0.00000000000E+00  0.34110955821E+03  0.34110955821E+03  0.00000000000E+00 0.  1.
         21   -1    0    0  502  503 -0.00000000000E+00 -0.00000000000E+00 -0.16743581577E+03  0.16743581577E+03  0.00000000000E+00 0.  1.
         -6    2    1    2    0  503 -0.55380066440E+02  0.24254376271E+02 -0.78257591796E+02  0.19780187724E+03  0.17130705017E+03 0.  0.
        -24    2    3    3    0    0 -0.27619735453E+02 -0.49615920728E+02 -0.22253595288E+02  0.10092053549E+03  0.80406110486E+02 0.  0.
          6    2    1    2  501    0  0.55380066440E+02 -0.24254376271E+02  0.25193133423E+03  0.31074349674E+03  0.17157184229E+03 0.  0.
         24    2    5    5    0    0 -0.35023372682E+02 -0.47092309321E+01  0.14910010957E+03  0.17235583371E+03  0.78910564887E+02 0.  0.
          5    1    5    5  501    0  0.90403439122E+02 -0.19545145339E+02  0.10283122466E+03  0.13838766302E+03  0.47000000000E+01 0. -1.
        -11    1    6    6    0    0  0.22179354071E+02  0.31500115349E+00  0.77288515788E+02  0.80408566990E+02  0.00000000000E+00 0.  1.
         12    1    6    6    0    0 -0.57202726753E+02 -0.50242320856E+01  0.71811593784E+02  0.91947266723E+02  0.00000000000E+00 0. -1.
         -5    1    3    3    0  503 -0.27760330987E+02  0.73870296998E+02 -0.56003996508E+02  0.96881341754E+02  0.47000000000E+01 0.  1.
         11    1    4    4    0    0  0.12159104981E+02  0.68491231102E+01  0.16588624746E+02  0.21678025562E+02  0.00000000000E+00 0. -1.
        -12    1    4    4    0    0 -0.39778840434E+02 -0.56465043838E+02 -0.38842220034E+02  0.79242509924E+02  0.00000000000E+00 0.  1.
</event>
<event>
12    1  0.8053217E-002  0.2248681E+03  0.7818608E-02  0.1130428E+00
         21   -1    0    0  501  502  0.00000000000E+00  0.00000000000E+00  0.61661112056E+03  0.61661112056E+03  0.00000000000E+00 0.  1.
         21   -1    0    0  502  503 -0.00000000000E+00 -0.00000000000E+00 -0.92216761324E+02  0.92216761324E+02  0.00000000000E+00 0. -1.
         -6    2    1    2    0  503 -0.90983538153E+02 -0.11113311106E+03  0.38120210972E+03  0.44223891191E+03  0.17213841572E+03 0.  0.
        -24    2    3    3    0    0 -0.84106553566E+01 -0.75086566413E+02  0.96601685523E+02  0.14368049919E+03  0.74856319855E+02 0.  0.
          6    2    1    2  501    0  0.90983538153E+02  0.11113311106E+03  0.14319224952E+03  0.26658896998E+03  0.17302336837E+03 0.  0.
         24    2    5    5    0    0  0.36816129206E+02  0.34562638356E+02  0.14301819378E+03  0.17267802398E+03  0.82543884531E+02 0.  0.
          5    1    5    5  501    0  0.54167408946E+02  0.76570472706E+02  0.17405573946E+00  0.93910945996E+02  0.47000000000E+01 0. -1.
        -13    1    6    6    0    0  0.73262121604E+01  0.53717225072E+02  0.11694881587E+03  0.12890399213E+03  0.00000000000E+00 0.  1.
         14    1    6    6    0    0  0.29489917046E+02 -0.19154586716E+02  0.26069377911E+02  0.43774031849E+02  0.00000000000E+00 0. -1.
         -5    1    3    3    0  503 -0.82572882796E+02 -0.36046544649E+02  0.28460042420E+03  0.29855841272E+03  0.47000000000E+01 0.  1.
         11    1    4    4    0    0 -0.12979112402E+02  0.12311628798E+02  0.24212668563E+02  0.30104599007E+02  0.00000000000E+00 0. -1.
        -12    1    4    4    0    0  0.45684570458E+01 -0.87398195211E+02  0.72389016959E+02  0.11357590018E+03  0.00000000000E+00 0.  1.
</event>
<event>
12    1  0.8053217E-002  0.1834300E+03  0.7818608E-02  0.1164686E+00
         21   -1    0    0  503  502  0.00000000000E+00  0.00000000000E+00  0.18414052539E+03  0.18414052539E+03  0.00000000000E+00 0. -1.
         21   -1    0    0  501  503 -0.00000000000E+00 -0.00000000000E+00 -0.19006380470E+03  0.19006380470E+03  0.00000000000E+00 0. -1.
          6    2    1    2  501    0 -0.53884964771E+01 -0.62007769800E+02  0.35483045859E+02  0.18615899093E+03  0.17182003361E+03 0.  0.
         24    2    3    3    0    0 -0.32754369268E+02  0.21072950762E+02  0.43921805242E+02  0.98155583141E+02  0.78666864473E+02 0.  0.
         -6    2    1    2    0  502  0.53884964771E+01  0.62007769800E+02 -0.41406325166E+02  0.18804533916E+03  0.17254728745E+03 0.  0.
        -24    2    5    5    0    0  0.45517808684E+02  0.63926376537E+02 -0.75524456751E+02  0.13512861541E+03  0.79983414594E+02 0.  0.
          5    1    3    3  501    0  0.27365872791E+02 -0.83080720563E+02 -0.84387593830E+01  0.88003407790E+02  0.47000000000E+01 0. -1.
        -11    1    4    4    0    0 -0.42525017629E+02  0.82380070658E+01 -0.77685839681E+01  0.44006735639E+02  0.00000000000E+00 0.  1.
         12    1    4    4    0    0  0.97706483609E+01  0.12834943696E+02  0.51690389210E+02  0.54148847502E+02  0.00000000000E+00 0. -1.
         -5    1    5    5    0  502 -0.40129312206E+02 -0.19186067372E+01  0.34118131585E+02  0.52916723754E+02  0.47000000000E+01 0.  1.
         11    1    6    6    0    0 -0.15212258393E+02  0.91350190998E+01  0.68712556112E+01  0.19028282451E+02  0.00000000000E+00 0. -1.
        -12    1    6    6    0    0  0.60730067077E+02  0.54791357438E+02 -0.82395712362E+02  0.11610033296E+03  0.00000000000E+00 0.  1.
</event>
<event>
12    1  0.8053217E-002  0.2513648E+03  0.7818608E-02  0.1112582E+00
         21   -1    0    0  503  502  0.00000000000E+00  0.00000000000E+00  0.17227268518E+03  0.17227268518E+03  0.00000000000E+00 0.  1.
         21   -1    0    0  501  503 -0.00000000000E+00 -0.00000000000E+00 -0.40995349260E+03  0.40995349260E+03  0.00000000000E+00 0.  1.
          6    2    1    2  501    0 -0.13461241039E+03 -0.12410516411E+03 -0.21451509425E+03  0.32979612778E+03  0.17095662446E+03 0.  0.
         24    2    3    3    0    0 -0.12958302712E+03 -0.12242262272E+03 -0.23619081396E+03  0.30699146891E+03  0.81722713590E+02 0.  0.
         -6    2    1    2    0  502  0.13461241039E+03  0.12410516411E+03 -0.23165713164E+02  0.25243005000E+03  0.17222568648E+03 0.  0.
        -24    2    5    5    0    0  0.13820324428E+02  0.76854576282E+02 -0.48770633540E+02  0.12013852333E+03  0.77182011040E+02 0.  0.
          5    1    3    3  501    0 -0.50293832729E+01 -0.16825413919E+01  0.21675719702E+02  0.22804658872E+02  0.47000000000E+01 0. -1.
        -11    1    4    4    0    0 -0.70203941987E+02 -0.11528816853E+03 -0.14664777723E+03  0.19931263341E+03  0.00000000000E+00 0.  1.
         12    1    4    4    0    0 -0.59379085131E+02 -0.71344541959E+01 -0.89543036730E+02  0.10767883550E+03  0.00000000000E+00 0. -1.
         -5    1    5    5    0  502  0.12079208596E+03  0.47250587832E+02  0.25604920376E+02  0.13229152667E+03  0.47000000000E+01 0.  1.
         11    1    6    6    0    0 -0.21513823247E+02  0.31915522282E+02  0.82850331683E+01  0.39371143339E+02  0.00000000000E+00 0. -1.
        -12    1    6    6    0    0  0.35334147675E+02  0.44939054000E+02 -0.57055666708E+02  0.80767379986E+02  0.00000000000E+00 0.  1.
</event>
<event>
12    1  0.8053217E-002  0.2100769E+03  0.7818608E-02  0.1142380E+00
         21   -1    0    0  501  502  0.00000000000E+00  0.00000000000E+00  0.92159875061E+02  0.92159875061E+02  0.00000000000E+00 0.  1.
         21   -1    0    0  502  503 -0.00000000000E+00 -0.00000000000E+00 -0.47084314929E+03  0.47084314929E+03  0.00000000000E+00 0.  1.
         -6    2    1    2    0  503  0.11860974364E+03 -0.18609525301E+02 -0.20517525254E+03  0.29053776010E+03  0.16703508635E+03 0.  0.
        -24    2    3    3    0    0  0.31023492399E+02  0.50531950383E+02 -0.94604794056E+02  0.13337602381E+03  0.72959999849E+02 0.  0.
          6    2    1    2  501    0 -0.11860974364E+03  0.18609525301E+02 -0.17350802169E+03  0.27246526425E+03  0.17238822730E+03 0.  0.
         24    2    5    5    0    0 -0.14461190571E+03  0.33343819335E+02 -0.17352252734E+03  0.24221130478E+03  0.80819769285E+02 0.  0.
          5    1    5    5  501    0  0.26002162071E+02 -0.14734294034E+02  0.14505647957E-01  0.30253959468E+02  0.47000000000E+01 0. -1.
        -11    1    6    6    0    0 -0.47676406602E+02  0.49998678369E+02 -0.87956853506E+02  0.11184505203E+03  0.00000000000E+00 0.  1.
         12    1    6    6    0    0 -0.96935499111E+02 -0.16654859033E+02 -0.85565673835E+02  0.13036625275E+03  0.00000000000E+00 0. -1.
         -5    1    3    3    0  503  0.87586251243E+02 -0.69141475684E+02 -0.11057045848E+03  0.15716173630E+03  0.47000000000E+01 0.  1.
         13    1    4    4    0    0  0.22474894093E+02  0.60692331875E+02 -0.99940113230E+02  0.11906597434E+03  0.00000000000E+00 0. -1.
        -14    1    4    4    0    0  0.85485983058E+01 -0.10160381492E+02  0.53353191748E+01  0.14310049467E+02  0.00000000000E+00 0.  1.
</event>
<event>
12    1  0.8053217E-002  0.1864010E+03  0.7818608E-02  0.1162139E+00
         21   -1    0    0  501  502  0.00000000000E+00  0.00000000000E+00  0.24048382095E+03  0.24048382095E+03  0.00000000000E+00 0. -1.
         21   -1    0    0  502  503 -0.00000000000E+00 -0.00000000000E+00 -0.47588755016E+03  0.47588755016E+03  0.00000000000E+00 0. -1.
         -6    2    1    2    0  503 -0.42256638738E+02 -0.53008816356E+02 -0.41703363569E+03  0.45611234313E+03  0.17183089983E+03 0.  0.
        -24    2    3    3    0    0 -0.81299649172E+02 -0.74519191738E+02 -0.34708335244E+03  0.37303295316E+03  0.80771205917E+02 0.  0.
          6    2    1    2  501    0  0.42256638738E+02  0.53008816356E+02  0.18162990648E+03  0.26025902798E+03  0.17363692174E+03 0.  0.
         24    2    5    5    0    0  0.69683360641E+02  0.73747942719E+02  0.83314326923E+02  0.15599791529E+03  0.84258784109E+02 0.  0.
          5    1    5    5  501    0 -0.27426721903E+02 -0.20739126363E+02  0.98315579553E+02  0.10426111269E+03  0.47000000000E+01 0. -1.
        -11    1    6    6    0    0 -0.15707816247E+02  0.26105890215E+02  0.36624425646E+02  0.47640335316E+02  0.00000000000E+00 0.  1.
         12    1    6    6    0    0  0.85391176888E+02  0.47642052505E+02  0.46689901277E+02  0.10835757998E+03  0.00000000000E+00 0. -1.
         -5    1    3    3    0  503  0.39043010434E+02  0.21510375382E+02 -0.69950283246E+02  0.83079389977E+02  0.47000000000E+01 0.  1.
         13    1    4    4    0    0 -0.71579879410E+02 -0.52785581703E+02 -0.33446460739E+03  0.34608751836E+03  0.00000000000E+00 0. -1.
        -14    1    4    4    0    0 -0.97197697619E+01 -0.21733610035E+02 -0.12618745053E+02  0.26945434791E+02  0.00000000000E+00 0.  1.
</event>
<event>
12    1  0.8053217E-002  0.2027967E+03  0.7818608E-02  0.1147765E+00
         21   -1    0    0  503  502  0.00000000000E+00  0.00000000000E+00  0.20425749658E+03  0.20425749658E+03  0.00000000000E+00 0. -1.
         21   -1    0    0  501  503 -0.00000000000E+00 -0.00000000000E+00 -0.22997620236E+03  0.22997620236E+03  0.00000000000E+00 0. -1.
          6    2    1    2  501    0 -0.89757006818E+02  0.55674729264E+02 -0.91801675935E+02  0.22260734683E+03  0.17311986428E+03 0.  0.
         24    2    3    3    0    0 -0.35390243523E+02  0.31264285955E+02  0.21206151527E+02  0.94761839435E+02  0.79373675974E+02 0.  0.
         -6    2    1    2    0  502  0.89757006818E+02 -0.55674729264E+02  0.66082970158E+02  0.21162635210E+03  0.17106360866E+03 0.  0.
        -24    2    5    5    0    0  0.94795002549E+02 -0.91574829590E+02  0.24104465657E+02  0.15596232921E+03  0.79819677683E+02 0.  0.
          5    1    3    3  501    0 -0.54366763295E+02  0.24410443309E+02 -0.11300782746E+03  0.12784550740E+03  0.47000000000E+01 0. -1.
        -13    1    4    4    0    0 -0.26366079378E+02  0.41346561090E+02 -0.18808666173E+02  0.52521178385E+02  0.00000000000E+00 0.  1.
         14    1    4    4    0    0 -0.90241641456E+01 -0.10082275135E+02  0.40014817700E+02  0.42240661051E+02  0.00000000000E+00 0. -1.
         -5    1    5    5    0  502 -0.50379957304E+01  0.35900100326E+02  0.41978504501E+02  0.55664022892E+02  0.47000000000E+01 0.  1.
         13    1    6    6    0    0  0.14857677219E+02 -0.59090497886E+02  0.32873527982E+02  0.69232263828E+02  0.00000000000E+00 0. -1.
        -14    1    6    6    0    0  0.79937325330E+02 -0.32484331703E+02 -0.87690623248E+01  0.86730065382E+02  0.00000000000E+00 0.  1.
</event>
<event>
12    1  0.8053217E-002  0.1864862E+03  0.7818608E-02  0.1162637E+00
         21   -1    0    0  501  502  0.00000000000E+00  0.00000000000E+00  0.13878634372E+03  0.13878634372E+03  0.00000000000E+00 0. -1.
         21   -1    0    0  502  503 -0.00000000000E+00 -0.00000000000E+00 -0.25256401643E+03  0.25256401643E+03  0.00000000000E+00 0.  1.
         -6    2    1    2    0  503 -0.52935264348E+02  0.28081515098E+02 -0.91263639679E+02  0.20762024890E+03  0.17659672173E+03 0.  0.
        -24    2    3    3    0    0 -0.74860379233E+02  0.69206825363E+02 -0.37969863121E+02  0.13666731784E+03  0.82719914193E+02 0.  0.
          6    2    1    2  501    0  0.52935264348E+02 -0.28081515098E+02 -0.22514033025E+02  0.18373011125E+03  0.17221834511E+03 0.  0.
         24    2    5    5    0    0  0.62924399246E+02 -0.83199558064E+02 -0.12723788394E+02  0.12667119112E+03  0.70725167980E+02 0.  0.
          5    1    5    5  501    0 -0.99891348971E+01  0.55118042966E+02 -0.97902446302E+01  0.57058920129E+02  0.47000000000E+01 0. -1.
        -13    1    6    6    0    0  0.21658390991E+02  0.57172402268E+01 -0.17654840305E+02  0.28521327499E+02  0.00000000000E+00 0.  1.
         14    1    6    6    0    0  0.41266008255E+02 -0.88916798291E+02  0.49310519103E+01  0.98149863619E+02  0.00000000000E+00 0. -1.
         -5    1    3    3    0  503  0.21925114885E+02 -0.41125310265E+02 -0.53293776557E+02  0.70952931066E+02  0.47000000000E+01 0.  1.
         11    1    4    4    0    0 -0.71463235759E+02  0.14255424172E+02 -0.36712429269E+02  0.81596652176E+02  0.00000000000E+00 0. -1.
        -12    1    4    4    0    0 -0.33971434742E+01  0.54951401191E+02 -0.12574338527E+01  0.55070665663E+02  0.00000000000E+00 0.  1.
</event>
<event>
12    1  0.8053217E-002  0.1843442E+03  0.7818608E-02  0.1163979E+00
         21   -1    0    0  503  502  0.00000000000E+00  0.00000000000E+00  0.46969142937E+02  0.46969142937E+02  0.00000000000E+00 0. -1.
         21   -1    0    0  501  503 -0.00000000000E+00 -0.00000000000E+00 -0.10023821621E+04  0.10023821621E+04  0.00000000000E+00 0. -1.
          6    2    1    2  501    0  0.50647076560E+02 -0.36048460310E+02 -0.75828245360E+03  0.78036853423E+03  0.17354582081E+03 0.  0.
         24    2    3    3    0    0 -0.27028005738E+01 -0.44980492522E+01 -0.16093782070E+03  0.17979852309E+03  0.79993682213E+02 0.  0.
         -6    2    1    2    0  502 -0.50647076560E+02  0.36048460310E+02 -0.19713056552E+03  0.26898277077E+03  0.17212394735E+03 0.  0.
        -24    2    5    5    0    0 -0.39754746653E+02  0.83277116422E+02 -0.91633585178E+02  0.15278943331E+03  0.80202113419E+02 0.  0.
          5    1    3    3  501    0  0.53349877134E+02 -0.31550411058E+02 -0.59734463290E+03  0.60057001114E+03  0.47000000000E+01 0. -1.
        -13    1    4    4    0    0  0.21937412385E+02 -0.28877719636E+02 -0.40004852608E+02  0.53995934899E+02  0.00000000000E+00 0.  1.
         14    1    4    4    0    0 -0.24640212959E+02  0.24379670384E+02 -0.12093296809E+03  0.12580258819E+03  0.00000000000E+00 0. -1.
         -5    1    5    5    0  502 -0.10892329908E+02 -0.47228656111E+02 -0.10549698034E+03  0.11619333746E+03  0.47000000000E+01 0.  1.
         13    1    6    6    0    0 -0.51158834344E+02  0.25299671781E+02 -0.68926116281E+02  0.89488039587E+02  0.00000000000E+00 0. -1.
        -14    1    6    6    0    0  0.11404087691E+02  0.57977444641E+02 -0.22707468897E+02  0.63301393720E+02  0.00000000000E+00 0.  1.
</event>
<event>
12    1  0.8053217E-002  0.2339618E+03  0.7818608E-02  0.1123920E+00
         21   -1    0    0  501  502  0.00000000000E+00  0.00000000000E+00  0.10534983974E+03  0.10534983974E+03  0.00000000000E+00 0. -1.
         21   -1    0    0  502  503 -0.00000000000E+00 -0.00000000000E+00 -0.52798855856E+03  0.52798855856E+03  0.00000000000E+00 0. -1.
         -6    2    1    2    0  503 -0.96402198246E+02 -0.12713611515E+03 -0.17011930450E+03  0.28909404997E+03  0.17081515262E+03 0.  0.
        -24    2    3    3    0    0  0.84163156016E-01 -0.84863607111E+02 -0.13354153199E+03  0.17748488227E+03  0.80409600020E+02 0.  0.
          6    2    1    2  501    0  0.96402198246E+02  0.12713611515E+03 -0.25251941432E+03  0.34424434833E+03  0.17111733153E+03 0.  0.
         24    2    5    5    0    0  0.32699367595E+01  0.47950343843E+02 -0.17714141903E+03  0.20055044909E+03  0.80817524908E+02 0.  0.
          5    1    5    5  501    0  0.93132261487E+02  0.79185771302E+02 -0.75377995287E+02  0.14369389924E+03  0.47000000000E+01 0. -1.
        -11    1    6    6    0    0 -0.18238907799E+02 -0.14852780167E+02 -0.76105381253E+02  0.79657340478E+02  0.00000000000E+00 0.  1.
         12    1    6    6    0    0  0.21508844558E+02  0.62803124010E+02 -0.10103603778E+03  0.12089310861E+03  0.00000000000E+00 0. -1.
         -5    1    3    3    0  503 -0.96486361402E+02 -0.42272508034E+02 -0.36577772510E+02  0.11160916770E+03  0.47000000000E+01 0.  1.
         11    1    4    4    0    0  0.66819313730E+01 -0.91302758203E+02 -0.75352293315E+02  0.11856985270E+03  0.00000000000E+00 0. -1.
        -12    1    4    4    0    0 -0.65977682169E+01  0.64391510913E+01 -0.58189238672E+02  0.58915029571E+02  0.00000000000E+00 0.  1.
</event>
<event>
12    1  0.8053217E-002  0.1715404E+03  0.7818608E-02  0.1176813E+00
         21   -1    0    0  501  502  0.00000000000E+00  0.00000000000E+00  0.17242277341E+03  0.17242277341E+03  0.00000000000E+00 0.  1.
         21   -1    0    0  502  503 -0.00000000000E+00 -0.00000000000E+00 -0.39571999817E+03  0.39571999817E+03  0.00000000000E+00 0.  1.
         -6    2    1    2    0  503 -0.14626445463E+01 -0.70705370730E+00 -0.32659487287E+03  0.36790164422E+03  0.16936578634E+03 0.  0.
        -24    2    3    3    0    0 -0.63867005569E+02 -0.15747459107E+02 -0.17253087458E+03  0.20093361244E+03  0.79249208549E+02 0.  0.
          6    2    1    2  501    0  0.14626445463E+01  0.70705370730E+00  0.10329764811E+03  0.20024112736E+03  0.17153269580E+03 0.  0.
         24    2    5    5    0    0 -0.48515642782E+02 -0.33406093526E+02  0.97707289853E+02  0.13929132733E+03  0.79910103863E+02 0.  0.
          5    1    5    5  501    0  0.49978287328E+02  0.34113147233E+02  0.55903582563E+01  0.60949800031E+02  0.47000000000E+01 0. -1.
        -13    1    6    6    0    0 -0.35330234631E+02  0.14475065304E+02  0.11626625289E+02  0.39911544824E+02  0.00000000000E+00 0.  1.
         14    1    6    6    0    0 -0.13185408151E+02 -0.47881158829E+02  0.86080664564E+02  0.99379782505E+02  0.00000000000E+00 0. -1.
         -5    1    3    3    0  503  0.62404361023E+02  0.15040405399E+02 -0.15406399828E+03  0.16696803178E+03  0.47000000000E+01 0.  1.
         11    1    4    4    0    0 -0.71790877423E+02 -0.30491516307E+02 -0.16514575777E+03  0.18263839672E+03  0.00000000000E+00 0. -1.
        -12    1    4    4    0    0  0.79238718540E+01  0.14744057200E+02 -0.73851168146E+01  0.18295215720E+02  0.00000000000E+00 0.  1.
</event>
<event>
12    1  0.8053217E-002  0.2029889E+03  0.7818608E-02  0.1148237E+00
         21   -1    0    0  503  502  0.00000000000E+00  0.00000000000E+00  0.12908256866E+03  0.12908256866E+03  0.00000000000E+00 0.  1.
         21   -1    0    0  501  503 -0.00000000000E+00 -0.00000000000E+00 -0.32779052326E+03  0.32779052326E+03  0.00000000000E+00 0.  1.
          6    2    1    2  501    0  0.66355516152E+02  0.72752599131E+02 -0.14871361286E+03  0.24781821543E+03  0.17205270717E+03 0.  0.
         24    2    3    3    0    0  0.21448154223E+02  0.92263283067E+02 -0.15829185387E+03  0.19770663350E+03  0.71127105980E+02 0.  0.
         -6    2    1    2    0  502 -0.66355516152E+02 -0.72752599131E+02 -0.49994341741E+02  0.20905487649E+03  0.17750637164E+03 0.  0.
        -24    2    5    5    0    0  0.15454981171E+02 -0.69590459556E+02 -0.67226027886E+02  0.12525763545E+03  0.78028507026E+02 0.  0.
          5    1    3    3  501    0  0.44907361928E+02 -0.19510683936E+02  0.95782410136E+01  0.50111581934E+02  0.47000000000E+01 0. -1.
        -11    1    4    4    0    0  0.26803583669E+02  0.16023868555E+01 -0.46249840081E+02  0.53479411446E+02  0.00000000000E+00 0.  1.
         12    1    4    4    0    0 -0.53554294456E+01  0.90660896211E+02 -0.11204201379E+03  0.14422722205E+03  0.00000000000E+00 0. -1.
         -5    1    5    5    0  502 -0.81810497323E+02 -0.31621395752E+01  0.17231686145E+02  0.83797241042E+02  0.47000000000E+01 0.  1.
         11    1    6    6    0    0  0.33398583843E+02 -0.78430928044E+02 -0.49786475662E+02  0.98719648680E+02  0.00000000000E+00 0. -1.
        -12    1    6    6    0    0 -0.17943602672E+02  0.88404684884E+01 -0.17439552225E+02  0.26537986769E+02  0.00000000000E+00 0.  1.
</event>
<event>
12    1  0.8053217E-002  0.1829585E+03  0.7818608E-02  0.1165003E+00
         21   -1    0    0  501  502  0.00000000000E+00  0.00000000000E+00  0.51847985687E+03  0.51847985687E+03  0.00000000000E+00 0.  1.
         21   -1    0    0  502  503 -0.00000000000E+00 -0.00000000000E+00 -0.74080666044E+02  0.74080666044E+02  0.00000000000E+00 0.  1.
         -6    2    1    2    0  503  0.62389146650E+02  0.74479830877E+00  0.11565052824E+03  0.21632989588E+03  0.17184475211E+03 0.  0.
        -24    2    3    3    0    0  0.10921660246E+03  0.10876302698E+02  0.89148271173E+02  0.16137611869E+03  0.77770670669E+02 0.  0.
          6    2    1    2  501    0 -0.62389146650E+02 -0.74479830877E+00  0.32874866259E+03  0.37623062703E+03  0.17199081725E+03 0.  0.
         24    2    5    5    0    0 -0.52872039906E+01 -0.59588725385E+02  0.22587428925E+03  0.24459299450E+03  0.72303303482E+02 0.  0.
          5    1    5    5  501    0 -0.57101942659E+02  0.58843927076E+02  0.10287437334E+03  0.13163763253E+03  0.47000000000E+01 0. -1.
        -11    1    6    6    0    0 -0.45728496347E+01 -0.30272295048E+02  0.19839863231E+02  0.36482091144E+02  0.00000000000E+00 0.  1.
         12    1    6    6    0    0 -0.71435435582E+00 -0.29316430338E+02  0.20603442602E+03  0.20811090335E+03  0.00000000000E+00 0. -1.
         -5    1    3    3    0  503 -0.46827455808E+02 -0.10131504389E+02  0.26502257065E+02  0.54953777197E+02  0.47000000000E+01 0.  1.
         13    1    4    4    0    0  0.53315370529E+02 -0.32453141538E+02  0.53327825839E+02  0.82095018966E+02  0.00000000000E+00 0. -1.
        -14    1    4    4    0    0  0.55901231929E+02  0.43329444235E+02  0.35820445334E+02  0.79281099720E+02  0.00000000000E+00 0.  1.
</event>
<event>
12    1  0.8053217E-002  0.2081529E+03  0.7818608E-02  0.1143327E+00
         21   -1    0    0  503  502  0.00000000000E+00  0.00000000000E+00  0.22775456098E+03  0.22775456098E+03  0.00000000000E+00 0. -1.
         21   -1    0    0  501  503 -0.00000000000E+00 -0.00000000000E+00 -0.21497188798E+03  0.21497188798E+03  0.00000000000E+00 0.  1.
          6    2    1    2  501    0  0.11439151581E+03  0.22757703202E+02  0.83467715411E+02  0.22426433772E+03  0.17240737140E+03 0.  0.
         24    2    3    3    0    0  0.65023947394E+02  0.23760078123E+01 -0.13513185317E+02  0.11344937743E+03  0.91947789068E+02 0.  0.
         -6    2    1    2    0  502 -0.11439151581E+03 -0.22757703202E+02 -0.70685042409E+02  0.21846211124E+03  0.17066337300E+03 0.  0.
        -24    2    5    5    0    0  0.13898187202E+01 -0.70697475827E+01  0.96851976885E+01  0.76571678620E+02  0.75614191693E+02 0.  0.
          5    1    3    3  501    0  0.49367568412E+02  0.20381695390E+02  0.96980900728E+02  0.11081496029E+03  0.47000000000E+01 0. -1.
        -11    1    4    4    0    0  0.46627759880E+01  0.21544458900E+02 -0.39307370210E+02  0.45066334908E+02  0.00000000000E+00 0.  1.
         12    1    4    4    0    0  0.60361171406E+02 -0.19168451088E+02  0.25794184893E+02  0.68383042524E+02  0.00000000000E+00 0. -1.
         -5    1    5    5    0  502 -0.11578133453E+03 -0.15687955619E+02 -0.80370240097E+02  0.14189043262E+03  0.47000000000E+01 0.  1.
         11    1    6    6    0    0  0.22616840186E+02 -0.28079158309E+02  0.24141435754E+02  0.43390892035E+02  0.00000000000E+00 0. -1.
        -12    1    6    6    0    0 -0.21227021466E+02  0.21009410726E+02 -0.14456238066E+02  0.33180786585E+02  0.00000000000E+00 0.  1.
</event>
<event>
12    1  0.8053217E-002  0.2085010E+03  0.7818608E-02  0.1142945E+00
         21   -1    0    0  501  502  0.00000000000E+00  0.00000000000E+00  0.12662212871E+03  0.12662212871E+03  0.00000000000E+00 0. -1.
         21   -1    0    0  502  503 -0.00000000000E+00 -0.00000000000E+00 -0.34294116085E+03  0.34294116085E+03  0.00000000000E+00 0. -1.
         -6    2    1    2    0  503 -0.71834878285E+02 -0.91264640959E+02 -0.12149308117E+03  0.24051167902E+03  0.17203434118E+03 0.  0.
        -24    2    3    3    0    0 -0.25710978714E+02 -0.14637258225E+02 -0.12120567059E+03  0.15094973118E+03  0.84968835493E+02 0.  0.
          6    2    1    2  501    0  0.71834878285E+02  0.91264640959E+02 -0.94825950969E+02  0.22905161053E+03  0.17315656176E+03 0.  0.
         24    2    5    5    0    0  0.27141105545E+02  0.12405679275E+03 -0.89734189922E+02  0.17318682224E+03  0.76254331798E+02 0.  0.
          5    1    5    5  501    0  0.44693772740E+02 -0.32792151789E+02 -0.50917610470E+01  0.55864788295E+02  0.47000000000E+01 0. -1.
        -11    1    6    6    0    0  0.43519572644E+02  0.73678539666E+02 -0.24215711616E+02  0.88931890227E+02  0.00000000000E+00 0.  1.
         12    1    6    6    0    0 -0.16378467099E+02  0.50378253082E+02 -0.65518478306E+02  0.84254932008E+02  0.00000000000E+00 0. -1.
         -5    1    3    3    0  503 -0.46123899571E+02 -0.76627382734E+02 -0.28741057743E+00  0.89561947841E+02  0.47000000000E+01 0.  1.
         13    1    4    4    0    0  0.35643868277E+01  0.62288039949E+01  0.11447683722E+02  0.13511192222E+02  0.00000000000E+00 0. -1.
        -14    1    4    4    0    0 -0.29275365541E+02 -0.20866062219E+02 -0.13265335431E+03  0.13743853896E+03  0.00000000000E+00 0.  1.
</event>
<event>
12    1  0.8053217E-002  0.1763554E+03  0.7818608E-02  0.1171796E+00
         21   -1    0    0  503  502  0.00000000000E+00  0.00000000000E+00  0.42209605517E+03  0.42209605517E+03  0.00000000000E+00 0.  1.
         21   -1    0    0  501  503 -0.00000000000E+00 -0.00000000000E+00 -0.78306334672E+02  0.78306334672E+02  0.00000000000E+00 0.  1.
          6    2    1    2  501    0  0.12406051009E-01 -0.30459276815E+02  0.23788075476E+03  0.29612240594E+03  0.17370508950E+03 0.  0.
         24    2    3    3    0    0 -0.30581298923E+02 -0.43917663368E+02  0.54509124646E+02  0.10967040761E+03  0.78691655440E+02 0.  0.
         -6    2    1    2    0  502 -0.12406051009E-01  0.30459276815E+02  0.10590896574E+03  0.20427998390E+03  0.17200533451E+03 0.  0.
        -24    2    5    5    0    0  0.21861118530E+02  0.98060494742E+01 -0.10226336433E+02  0.84219560411E+02  0.80089258265E+02 0.  0.
          5    1    3    3  501    0  0.30593704974E+02  0.13458386552E+02  0.18337163011E+03  0.18645199833E+03  0.47000000000E+01 0. -1.
        -13    1    4    4    0    0 -0.44724384593E+01 -0.28372451477E+02 -0.16009858628E+02  0.32883343533E+02  0.00000000000E+00 0.  1.
         14    1    4    4    0    0 -0.26108860464E+02 -0.15545211890E+02  0.70518983273E+02  0.76787064076E+02  0.00000000000E+00 0. -1.
         -5    1    5    5    0  502 -0.21873524581E+02  0.20653227341E+02  0.11613530217E+03  0.12006042349E+03  0.47000000000E+01 0.  1.
         11    1    6    6    0    0  0.82276184473E+01  0.44362890166E+02 -0.13034926309E+02  0.46964550813E+02  0.00000000000E+00 0. -1.
        -12    1    6    6    0    0  0.13633500083E+02 -0.34556840692E+02  0.28085898767E+01  0.37255009598E+02  0.00000000000E+00 0.  1.
</event>
<event>
12    1  0.8053217E-002  0.1990135E+03  0.7818608E-02  0.1151140E+00
         21   -1    0    0  501  502  0.00000000000E+00  0.00000000000E+00  0.17449191813E+03  0.17449191813E+03  0.00000000000E+00 0. -1.
         21   -1    0    0  502  503 -0.00000000000E+00 -0.00000000000E+00 -0.53808571724E+03  0.53808571724E+03  0.00000000000E+00 0. -1.
         -6    2    1    2    0  503  0.66518654339E+02  0.72892487021E+02 -0.45350776053E+03  0.49419520055E+03  0.16976914132E+03 0.  0.
        -24    2    3    3    0    0  0.96820507786E+01 -0.10343750738E+02 -0.10550347113E+03  0.13185869091E+03  0.77813859049E+02 0.  0.
          6    2    1    2  501    0 -0.66518654339E+02 -0.72892487021E+02  0.89913961411E+02  0.21838243482E+03  0.17282453918E+03 0.  0.
         24    2    5    5    0    0  0.18041008264E+02 -0.52893335522E+02  0.48529976731E+01  0.96695294368E+02  0.78760684638E+02 0.  0.
          5    1    5    5  501    0 -0.84559662603E+02 -0.19999151499E+02  0.85060963737E+02  0.12168714046E+03  0.47000000000E+01 0. -1.
        -13    1    6    6    0    0  0.10265054129E+00 -0.37677618872E+02 -0.34344244652E+02  0.50981767738E+02  0.00000000000E+00 0.  1.
         14    1    6    6    0    0  0.17938357723E+02 -0.15215716650E+02  0.39197242326E+02  0.45713526629E+02  0.00000000000E+00 0. -1.
         -5    1    3    3    0  503  0.56836603560E+02  0.83236237759E+02 -0.34800428939E+03  0.36233650964E+03  0.47000000000E+01 0.  1.
         13    1    4    4    0    0  0.16680625677E+02 -0.13667250759E+02  0.41259235179E+01  0.21955870768E+02  0.00000000000E+00 0. -1.
        -14    1    4    4    0    0 -0.69985748989E+01  0.33235000207E+01 -0.10962939465E+03  0.10990282014E+03  0.00000000000E+00 0.  1.
</event>
<event>
12    1  0.8053217E-002  0.2090941E+03  0.7818608E-02  0.1143012E+00
         21   -1    0    0  501  502  0.00000000000E+00  0.00000000000E+00  0.47982999741E+03  0.47982999741E+03  0.00000000000E+00 0. -1.
         21   -1    0    0  502  503 -0.00000000000E+00 -0.00000000000E+00 -0.31573034833E+03  0.31573034833E+03  0.00000000000E+00 0. -1.
         -6    2    1    2    0  503 -0.73915731846E+02 -0.88408798968E+02 -0.25482841191E+03  0.32734984477E+03  0.17011981133E+03 0.  0.
        -24    2    3    3    0    0 -0.94953722316E+02 -0.44283060505E+02 -0.98384369849E+02  0.16337879204E+03  0.77691354914E+02 0.  0.
          6    2    1    2  501    0  0.73915731846E+02  0.88408798968E+02  0.41892806099E+03  0.46821050097E+03  0.17447263908E+03 0.  0.
         24    2    5    5    0    0  0.19422263417E+02  0.18588805976E+02  0.69938733482E+02  0.10812716307E+03  0.77956968437E+02 0.  0.
          5    1    5    5  501    0  0.54493468429E+02  0.69819992992E+02  0.34898932751E+03  0.36008333791E+03  0.47000000000E+01 0. -1.
        -11    1    6    6    0    0 -0.19165848075E+02  0.35307093129E+02  0.30098594272E+02  0.50198067043E+02  0.00000000000E+00 0.  1.
         12    1    6    6    0    0  0.38588111492E+02 -0.16718287153E+02  0.39840139210E+02  0.57929096024E+02  0.00000000000E+00 0. -1.
         -5    1    3    3    0  503  0.21037990470E+02 -0.44125738463E+02 -0.15644404206E+03  0.16397105273E+03  0.47000000000E+01 0.  1.
         11    1    4    4    0    0 -0.26512005936E+02 -0.55074480252E+02 -0.44560530640E+02  0.75642089637E+02  0.00000000000E+00 0. -1.
        -12    1    4    4    0    0 -0.68441716380E+02  0.10791419747E+02 -0.53823839208E+02  0.87736702402E+02  0.00000000000E+00 0.  1.
</event>
<event>
12    1  0.8053217E-002  0.1834978E+03  0.7818608E-02  0.1164523E+00
         21   -1    0    0  501  502  0.00000000000E+00  0.00000000000E+00  0.19090895856E+04  0.19090895856E+04  0.00000000000E+00 0. -1.
         21   -1    0    0  502  503 -0.00000000000E+00 -0.00000000000E+00 -0.18475577265E+02  0.18475577265E+02  0.00000000000E+00 0. -1.
         -6    2    1    2    0  503 -0.33866854610E+02  0.53853590909E+02  0.73759236303E+03  0.76007495520E+03  0.17211702538E+03 0.  0.
        -24    2    3    3    0    0  0.10392031914E+02  0.87740848657E+02  0.39432628553E+03  0.41228064064E+03  0.81704689830E+02 0.  0.
          6    2    1    2  501    0  0.33866854610E+02 -0.53853590909E+02  0.11530216453E+04  0.11674902076E+04  0.17183508768E+03 0.  0.
         24    2    5    5    0    0  0.42305340369E+01 -0.76211313435E+02  0.10798168680E+04  0.10852758009E+04  0.77414688263E+02 0.  0.
          5    1    5    5  501    0  0.29636320573E+02  0.22357722526E+02  0.73204777265E+02  0.82214406694E+02  0.47000000000E+01 0. -1.
        -13    1    6    6    0    0  0.37388209619E+02 -0.61433670236E+02  0.66697498551E+03  0.67084096875E+03  0.00000000000E+00 0.  1.
         14    1    6    6    0    0 -0.33157675582E+02 -0.14777643199E+02  0.41284188248E+03  0.41443483217E+03  0.00000000000E+00 0. -1.
         -5    1    3    3    0  503 -0.44258886524E+02 -0.33887257748E+02  0.34326607751E+03  0.34779431456E+03  0.47000000000E+01 0.  1.
         11    1    4    4    0    0  0.31693062765E+02  0.48873138948E+02  0.32369779125E+03  0.32889708724E+03  0.00000000000E+00 0. -1.
        -12    1    4    4    0    0 -0.21301030851E+02  0.38867709709E+02  0.70628494280E+02  0.83383553400E+02  0.00000000000E+00 0.  1.
</event>
<event>
12    1  0.8053217E-002  0.2120094E+03  0.7818608E-02  0.1140084E+00
         21   -1    0    0  501  502  0.00000000000E+00  0.00000000000E+00  0.14852170286E+03  0.14852170286E+03  0.00000000000E+00 0.  1.
         21   -1    0    0  502  503 -0.00000000000E+00 -0.00000000000E+00 -0.30534404270E+03  0.30534404270E+03  0.00000000000E+00 0. -1.
         -6    2    1    2    0  503  0.11854674257E+03  0.37153418036E+02 -0.54266523076E+02  0.21835424126E+03  0.17117246421E+03 0.  0.
        -24    2    3    3    0    0  0.86974157385E+02  0.39292065612E+02  0.23414586993E+02  0.13434324906E+03  0.91605104720E+02 0.  0.
          6    2    1    2  501    0 -0.11854674257E+03 -0.37153418036E+02 -0.10255581676E+03  0.23551150431E+03  0.17179716663E+03 0.  0.
         24    2    5    5    0    0 -0.12260808677E+03 -0.51742594072E+02 -0.13089169067E+03  0.20304074324E+03  0.79892864167E+02 0.  0.
          5    1    5    5  501    0  0.40613441951E+01  0.14589176037E+02  0.28335873912E+02  0.32470761070E+02  0.47000000000E+01 0. -1.
        -11    1    6    6    0    0 -0.11065151117E+03 -0.10546875514E+02 -0.82834148037E+02  0.13862355352E+03  0.00000000000E+00 0.  1.
         12    1    6    6    0    0 -0.11956575595E+02 -0.41195718559E+02 -0.48057542634E+02  0.64417189721E+02  0.00000000000E+00 0. -1.
         -5    1    3    3    0  503  0.31572585188E+02 -0.21386475764E+01 -0.77681110069E+02  0.84010992200E+02  0.47000000000E+01 0.  1.
         13    1    4    4    0    0  0.60512750594E+02  0.30580316595E+02 -0.29968119914E+02  0.74128516502E+02  0.00000000000E+00 0. -1.
        -14    1    4    4    0    0  0.26461406791E+02  0.87117490164E+01  0.53382706907E+02  0.60214732557E+02  0.00000000000E+00 0.  1.
</event>
<event>
12    1  0.8053217E-002  0.1904264E+03  0.7818608E-02  0.1158814E+00
         21   -1    0    0  503  502  0.00000000000E+00  0.00000000000E+00  0.23650179514E+02  0.23650179514E+02  0.00000000000E+00 0.  1.
         21   -1    0    0  501  503 -0.00000000000E+00 -0.00000000000E+00 -0.24195970426E+04  0.24195970426E+04  0.00000000000E+00 0.  1.
          6    2    1    2  501    0  0.54587399693E+02 -0.39151129837E+02 -0.19545159075E+04  0.19637705169E+04  0.17818421775E+03 0.  0.
         24    2    3    3    0    0  0.38459863105E+02  0.43408317510E+02 -0.13620541012E+04  0.13653482231E+04  0.74973013984E+02 0.  0.
         -6    2    1    2    0  502 -0.54587399693E+02  0.39151129837E+02 -0.44143095565E+03  0.47947670521E+03  0.17471126770E+03 0.  0.
        -24    2    5    5    0    0 -0.95889422644E+02  0.63949818418E+02 -0.32386470541E+03  0.35233605377E+03  0.77252745719E+02 0.  0.
          5    1    3    3  501    0  0.16127536588E+02 -0.82559447347E+02 -0.59246180631E+03  0.59842229381E+03  0.47000000000E+01 0. -1.
        -13    1    4    4    0    0 -0.58468069194E+01  0.12758357524E+01 -0.79236169154E+03  0.79238429005E+03  0.00000000000E+00 0.  1.
         14    1    4    4    0    0  0.44306670025E+02  0.42132481758E+02 -0.56969240963E+03  0.57296393309E+03  0.00000000000E+00 0. -1.
         -5    1    5    5    0  502  0.41302022951E+02 -0.24798688582E+02 -0.11756625024E+03  0.12714065144E+03  0.47000000000E+01 0.  1.
         13    1    6    6    0    0 -0.52226265167E+02  0.76885090961E+02 -0.22744169664E+03  0.24570027545E+03  0.00000000000E+00 0. -1.
        -14    1    6    6    0    0 -0.43663157477E+02 -0.12935272543E+02 -0.96423008775E+02  0.10663577832E+03  0.00000000000E+00 0.  1.
</event>
<event>
12    1  0.8053217E-002  0.1854604E+03  0.7818608E-02  0.1162655E+00
         21   -1    0    0  503  502  0.00000000000E+00  0.00000000000E+00  0.37250649994E+03  0.37250649994E+03  0.00000000000E+00 0. -1.
         21   -1    0    0  501  503 -0.00000000000E+00 -0.00000000000E+00 -0.18579009478E+03  0.18579009478E+03  0.00000000000E+00 0.  1.
          6    2    1    2  501    0  0.68713363350E+02  0.18494071752E+02 -0.10471933460E+03  0.21285431944E+03  0.17110600595E+03 0.  0.
         24    2    3    3    0    0  0.82938796808E+02  0.55189611108E+02 -0.11528366263E+03  0.17183456088E+03  0.79448450291E+02 0.  0.
         -6    2    1    2    0  502 -0.68713363350E+02 -0.18494071752E+02  0.29143573976E+03  0.34544227528E+03  0.17126592816E+03 0.  0.
        -24    2    5    5    0    0 -0.20743910041E+01 -0.44580910128E+02  0.24170801187E+03  0.25817135978E+03  0.78980550519E+02 0.  0.
          5    1    3    3  501    0 -0.14225433458E+02 -0.36695539356E+02  0.10564328030E+02  0.41019758561E+02  0.47000000000E+01 0. -1.
        -11    1    4    4    0    0  0.12096566838E+02  0.46611148636E+02 -0.77095585308E+02  0.90899149503E+02  0.00000000000E+00 0.  1.
         12    1    4    4    0    0  0.70842229970E+02  0.85784624725E+01 -0.38188077325E+02  0.80935411380E+02  0.00000000000E+00 0. -1.
         -5    1    5    5    0  502 -0.66638972346E+02  0.26086838376E+02  0.49727727890E+02  0.87270915504E+02  0.47000000000E+01 0.  1.
         11    1    6    6    0    0  0.14663943002E+00 -0.30591622414E+02  0.24207671482E+03  0.24400205885E+03  0.00000000000E+00 0. -1.
        -12    1    6    6    0    0 -0.22210304341E+01 -0.13989287715E+02 -0.36870294641E+00  0.14169300929E+02  0.00000000000E+00 0.  1.
</event>
<event>
12    1  0.8053217E-002  0.1946075E+03  0.7818608E-02  0.1154504E+00
         21   -1    0    0  503  502  0.00000000000E+00  0.00000000000E+00  0.12926064193E+03  0.12926064193E+03  0.00000000000E+00 0.  1.
         21   -1    0    0  501  503 -0.00000000000E+00 -0.00000000000E+00 -0.45792300016E+03  0.45792300016E+03  0.00000000000E+00 0. -1.
          6    2    1    2  501    0 -0.70428561542E+02 -0.60004434511E+02 -0.34085515672E+03  0.39219452102E+03  0.17050979447E+03 0.  0.
         24    2    3    3    0    0 -0.79378036499E+02  0.17161965274E+01 -0.28708465781E+03  0.30971491171E+03  0.84864054700E+02 0.  0.
         -6    2    1    2    0  502  0.70428561542E+02  0.60004434511E+02  0.12192798482E+02  0.19498912107E+03  0.17120566159E+03 0.  0.
        -24    2    5    5    0    0  0.48540219237E+02  0.15357558427E+02  0.70933477280E+02  0.11788529225E+03  0.79204649143E+02 0.  0.
          5    1    3    3  501    0  0.89494749563E+01 -0.61720631038E+02 -0.53770498915E+02  0.82479609306E+02  0.47000000000E+01 0. -1.
        -13    1    4    4    0    0 -0.27304697660E+02 -0.71130482784E+01 -0.13867712450E+02  0.31439710856E+02  0.00000000000E+00 0.  1.
         14    1    4    4    0    0 -0.52073338839E+02  0.88292448058E+01 -0.27321694536E+03  0.27827520086E+03  0.00000000000E+00 0. -1.
         -5    1    5    5    0  502  0.21888342306E+02  0.44646876084E+02 -0.58740678799E+02  0.77103828820E+02  0.47000000000E+01 0.  1.
         11    1    6    6    0    0  0.26194321920E+02 -0.21938758521E+02 -0.60213517702E+00  0.34173296491E+02  0.00000000000E+00 0. -1.
        -12    1    6    6    0    0  0.22345897316E+02  0.37296316947E+02  0.71535612457E+02  0.83711995761E+02  0.00000000000E+00 0.  1.
</event>
<event>
12    1  0.8053217E-002  0.2350704E+03  0.7818608E-02  0.1123243E+00
         21   -1    0    0  503  502  0.00000000000E+00  0.00000000000E+00  0.42618241412E+03  0.42618241412E+03  0.00000000000E+00 0.  1.
         21   -1    0    0  501  503 -0.00000000000E+00 -0.00000000000E+00 -0.23921285895E+03  0.23921285895E+03  0.00000000000E+00 0. -1.
          6    2    1    2  501    0 -0.14827300400E+03  0.59194865062E+02 -0.13199145128E+03  0.26959196957E+03  0.17253744835E+03 0.  0.
         24    2    3    3    0    0 -0.54894143125E+02  0.28981996929E+02  0.58790640139E+01  0.10029105981E+03  0.78551958530E+02 0.  0.
         -6    2    1    2    0  502  0.14827300400E+03 -0.59194865062E+02  0.31896100645E+03  0.39580330350E+03  0.17156694222E+03 0.  0.
        -24    2    5    5    0    0  0.26939004327E+02  0.18961190953E+02  0.93562179729E+02  0.12811499660E+03  0.81082267855E+02 0.  0.
          5    1    3    3  501    0 -0.93378860870E+02  0.30212868133E+02 -0.13787051530E+03  0.16930090976E+03  0.47000000000E+01 0. -1.
        -11    1    4    4    0    0  0.94864995551E+01  0.33282288212E+02 -0.46318697282E+01  0.34916451704E+02  0.00000000000E+00 0.  1.
         12    1    4    4    0    0 -0.64380642680E+02 -0.43002912832E+01  0.10510933742E+02  0.65374608107E+02  0.00000000000E+00 0. -1.
         -5    1    5    5    0  502  0.12133399967E+03 -0.78156056014E+02  0.22539882672E+03  0.26768830691E+03  0.47000000000E+01 0.  1.
         13    1    6    6    0    0  0.30470319714E+02  0.28756610125E+02  0.89219776606E+01  0.42836721336E+02  0.00000000000E+00 0. -1.
        -14    1    6    6    0    0 -0.35313153871E+01 -0.97954191725E+01  0.84640202069E+02  0.85278275260E+02  0.00000000000E+00 0.  1.
</event>
<event>
12    1  0.8053217E-002  0.2866215E+03  0.7818608E-02  0.1092349E+00
         21   -1    0    0  503  502  0.00000000000E+00  0.00000000000E+00  0.12423291096E+03  0.12423291096E+03  0.00000000000E+00 0.  1.
         21   -1    0    0  501  503 -0.00000000000E+00 -0.00000000000E+00 -0.10402433085E+04  0.10402433085E+04  0.00000000000E+00 0. -1.
          6    2    1    2  501    0  0.13768033762E+03 -0.18422048913E+03 -0.81206198756E+03  0.86116002180E+03  0.17105217778E+03 0.  0.
         24    2    3    3    0    0  0.15131297251E+03 -0.16726204485E+03 -0.57185148982E+03  0.61992028463E+03  0.80092606300E+02 0.  0.
         -6    2    1    2    0  502 -0.13768033762E+03  0.18422048913E+03 -0.10394840998E+03  0.30331619766E+03  0.16823311161E+03 0.  0.
        -24    2    5    5    0    0 -0.99249077536E+02  0.40274282509E+02 -0.30331981129E+02  0.13706656383E+03  0.79967597292E+02 0.  0.
          5    1    3    3  501    0 -0.13632634894E+02 -0.16958444280E+02 -0.24021049774E+03  0.24123973718E+03  0.47000000000E+01 0. -1.
        -13    1    4    4    0    0  0.74665061759E+01 -0.12642957884E+02 -0.58528464372E+01  0.15806609692E+02  0.00000000000E+00 0.  1.
         14    1    4    4    0    0  0.14384646634E+03 -0.15461908697E+03 -0.56599864338E+03  0.60411367493E+03  0.00000000000E+00 0. -1.
         -5    1    5    5    0  502 -0.38431260084E+02  0.14394620662E+03 -0.73616428849E+02  0.16624963383E+03  0.47000000000E+01 0.  1.
         13    1    6    6    0    0 -0.33297347133E+02  0.85790803181E+01  0.27315188374E+02  0.43913932426E+02  0.00000000000E+00 0. -1.
        -14    1    6    6    0    0 -0.65951730403E+02  0.31695202191E+02 -0.57647169503E+02  0.93152631401E+02  0.00000000000E+00 0.  1.
</event>
<event>
12    1  0.8053217E-002  0.1832102E+03  0.7818608E-02  0.1166165E+00
         21   -1    0    0  501  502  0.00000000000E+00  0.00000000000E+00  0.34054520536E+03  0.34054520536E+03  0.00000000000E+00 0.  1.
         21   -1    0    0  502  503 -0.00000000000E+00 -0.00000000000E+00 -0.18268880588E+03  0.18268880588E+03  0.00000000000E+00 0.  1.
         -6    2    1    2    0  503  0.64084090927E+02  0.11554093245E+02 -0.10122781006E+03  0.20931566520E+03  0.17124751206E+03 0.  0.
        -24    2    3    3    0    0  0.74924917322E+02  0.50326621981E+02 -0.25558316616E+02  0.12347398103E+03  0.80287510414E+02 0.  0.
          6    2    1    2  501    0 -0.64084090927E+02 -0.11554093245E+02  0.25908420955E+03  0.31391834604E+03  0.16486307217E+03 0.  0.
         24    2    5    5    0    0  0.18133689643E+02 -0.29262487794E+02  0.94827570703E+02  0.12932234369E+03  0.80912771063E+02 0.  0.
          5    1    5    5  501    0 -0.82217780570E+02  0.17708394549E+02  0.16425663884E+03  0.18459600235E+03  0.47000000000E+01 0. -1.
        -11    1    6    6    0    0  0.19877850389E+02 -0.64983890405E+00  0.98440777632E+02  0.10042976614E+03  0.00000000000E+00 0.  1.
         12    1    6    6    0    0 -0.17441607463E+01 -0.28612648890E+02 -0.36132069297E+01  0.28892577550E+02  0.00000000000E+00 0. -1.
         -5    1    3    3    0  503 -0.10840826394E+02 -0.38772528736E+02 -0.75669493447E+02  0.85841684163E+02  0.47000000000E+01 0.  1.
         13    1    4    4    0    0  0.70857873161E+02  0.68225479184E+02 -0.32877402368E+02  0.10371344072E+03  0.00000000000E+00 0. -1.
        -14    1    4    4    0    0  0.40670441611E+01 -0.17898857204E+02  0.73190857519E+01  0.19760540318E+02  0.00000000000E+00 0.  1.
</event>
<event>
12    1  0.8053217E-002  0.1922720E+03  0.7818608E-02  0.1156654E+00
         21   -1    0    0  503  502  0.00000000000E+00  0.00000000000E+00  0.14974567677E+03  0.14974567677E+03  0.00000000000E+00 0.  1.
         21   -1    0    0  501  503 -0.00000000000E+00 -0.00000000000E+00 -0.29079853780E+03  0.29079853780E+03  0.00000000000E+00 0.  1.
          6    2    1    2  501    0 -0.72525084814E+01  0.85451254444E+02 -0.15723654181E+03  0.24759236193E+03  0.17095067079E+03 0.  0.
         24    2    3    3    0    0 -0.16608741219E+02  0.12467862507E+03 -0.11216946410E+03  0.18693383252E+03  0.80880524423E+02 0.  0.
         -6    2    1    2    0  502  0.72525084814E+01 -0.85451254444E+02  0.16183680769E+02  0.19295185264E+03  0.17208715858E+03 0.  0.
        -24    2    5    5    0    0 -0.31898372896E+02  0.84556170128E+01 -0.72014150927E+01  0.88451877864E+02  0.81748826694E+02 0.  0.
          5    1    3    3  501    0  0.93562327379E+01 -0.39227370626E+02 -0.45067077707E+02  0.60658529412E+02  0.47000000000E+01 0. -1.
        -13    1    4    4    0    0  0.91963843301E+01  0.17862096377E+02 -0.63766789860E+02  0.66856798164E+02  0.00000000000E+00 0.  1.
         14    1    4    4    0    0 -0.25805125549E+02  0.10681652869E+03 -0.48402674239E+02  0.12007703436E+03  0.00000000000E+00 0. -1.
         -5    1    5    5    0  502  0.39150881378E+02 -0.93906871457E+02  0.23385095862E+02  0.10449997477E+03  0.47000000000E+01 0.  1.
         13    1    6    6    0    0  0.15473192592E+02  0.12900564094E+02 -0.29646748885E+02  0.35843743699E+02  0.00000000000E+00 0. -1.
        -14    1    6    6    0    0 -0.47371565488E+02 -0.44449470812E+01  0.22445333792E+02  0.52608134165E+02  0.00000000000E+00 0.  1.
</event>
<event>
12    1  0.8053217E-002  0.1822244E+03  0.7818608E-02  0.1165885E+00
         21   -1    0    0  501  502  0.00000000000E+00  0.00000000000E+00  0.10149241719E+03  0.10149241719E+03  0.00000000000E+00 0.  1.
         21   -1    0    0  502  503 -0.00000000000E+00 -0.00000000000E+00 -0.10052276752E+04  0.10052276752E+04  0.00000000000E+00 0.  1.
         -6    2    1    2    0  503 -0.26771774643E+02  0.52096156610E+02 -0.90725285415E+03  0.92537206708E+03  0.17255429211E+03 0.  0.
        -24    2    3    3    0    0 -0.83967488647E+01  0.95363728526E+02 -0.42135735498E+03  0.43718537077E+03  0.66515274213E+02 0.  0.
          6    2    1    2  501    0  0.26771774643E+02 -0.52096156610E+02  0.35175961813E+01  0.18134802527E+03  0.17159252704E+03 0.  0.
         24    2    5    5    0    0  0.41947543174E+02  0.29809234184E+02  0.15560599031E+02  0.97051400725E+02  0.80800094799E+02 0.  0.
          5    1    5    5  501    0 -0.15175768532E+02 -0.81905390794E+02 -0.12043002849E+02  0.84296624543E+02  0.47000000000E+01 0. -1.
        -11    1    6    6    0    0  0.10192454968E+02 -0.54403429433E+01  0.41431559167E+02  0.43012295505E+02  0.00000000000E+00 0.  1.
         12    1    6    6    0    0  0.31755088206E+02  0.35249577127E+02 -0.25870960136E+02  0.54039105220E+02  0.00000000000E+00 0. -1.
         -5    1    3    3    0  503 -0.18375025778E+02 -0.43267571916E+02 -0.48589549916E+03  0.48818669631E+03  0.47000000000E+01 0.  1.
         13    1    4    4    0    0 -0.20730416724E+02  0.90080128564E+02 -0.40767104322E+03  0.41801896993E+03  0.00000000000E+00 0. -1.
        -14    1    4    4    0    0  0.12333667860E+02  0.52835999624E+01 -0.13686311766E+02  0.19166400841E+02  0.00000000000E+00 0.  1.
</event>
<event>
12    1  0.8053217E-002  0.1821891E+03  0.7818608E-02  0.1165818E+00
         21   -1    0    0  501  502  0.00000000000E+00  0.00000000000E+00  0.16764059389E+03  0.16764059389E+03  0.00000000000E+00 0. -1.
         21   -1    0    0  502  503 -0.00000000000E+00 -0.00000000000E+00 -0.21904664816E+03  0.21904664816E+03  0.00000000000E+00 0. -1.
         -6    2    1    2    0  503 -0.11629859458E+02 -0.58613849581E+02 -0.86416946447E+02  0.20164514295E+03  0.17211054020E+03 0.  0.
        -24    2    3    3    0    0  0.76620336571E+01  0.30579761797E+02 -0.61029588945E+02  0.10680693666E+03  0.81788033359E+02 0.  0.
          6    2    1    2  501    0  0.11629859458E+02  0.58613849581E+02  0.35010892175E+02  0.18504209910E+03  0.17159247907E+03 0.  0.
         24    2    5    5    0    0 -0.50898244646E+02  0.40264868942E+02  0.55094839395E+02  0.11669077263E+03  0.79808546605E+02 0.  0.
          5    1    5    5  501    0  0.62528104104E+02  0.18348980639E+02 -0.20083947220E+02  0.68351326463E+02  0.47000000000E+01 0. -1.
        -13    1    6    6    0    0 -0.25773131090E+02 -0.22954131866E+02  0.14227696036E+02  0.37330601259E+02  0.00000000000E+00 0.  1.
         14    1    6    6    0    0 -0.25125113556E+02  0.63219000808E+02  0.40867143359E+02  0.79360171375E+02  0.00000000000E+00 0. -1.
         -5    1    3    3    0  503 -0.19291893115E+02 -0.89193611378E+02 -0.25387357502E+02  0.94838206286E+02  0.47000000000E+01 0.  1.
         11    1    4    4    0    0 -0.58552211249E+01  0.41387250547E+02 -0.74129084305E+02  0.85101758279E+02  0.00000000000E+00 0. -1.
        -12    1    4    4    0    0  0.13517254782E+02 -0.10807488750E+02  0.13099495360E+02  0.21705178382E+02  0.00000000000E+00 0.  1.
</event>
<event>
12    1  0.8053217E-002  0.2116982E+03  0.7818608E-02  0.1140330E+00
         21   -1    0    0  501  502  0.00000000000E+00  0.00000000000E+00  0.65605803709E+02  0.65605803709E+02  0.00000000000E+00 0.  1.
         21   -1    0    0  502  503 -0.00000000000E+00 -0.00000000000E+00 -0.70195201222E+03  0.70195201222E+03  0.00000000000E+00 0. -1.
         -6    2    1    2    0  503 -0.11040036276E+03  0.52561794984E+02 -0.38339240136E+03  0.43770668359E+03  0.17218137256E+03 0.  0.
        -24    2    3    3    0    0 -0.10287664014E+03  0.93767147285E+02 -0.35206478425E+03  0.38519004762E+03  0.71034354233E+02 0.  0.
          6    2    1    2  501    0  0.11040036276E+03 -0.52561794984E+02 -0.25295380715E+03  0.32985113234E+03  0.17281538867E+03 0.  0.
         24    2    5    5    0    0  0.10620409601E+03 -0.96686307003E+02 -0.17003772585E+03  0.23571427582E+03  0.77594069633E+02 0.  0.
          5    1    5    5  501    0  0.41962667429E+01  0.44124512019E+02 -0.82916081301E+02  0.94136856511E+02  0.47000000000E+01 0. -1.
        -11    1    6    6    0    0  0.55148921756E+02 -0.92178114436E+01 -0.31730071522E+02  0.64289727464E+02  0.00000000000E+00 0.  1.
         12    1    6    6    0    0  0.51055174259E+02 -0.87468495559E+02 -0.13830765433E+03  0.17142454836E+03  0.00000000000E+00 0. -1.
         -5    1    3    3    0  503 -0.75237226151E+01 -0.41205352300E+02 -0.31327617109E+02  0.52516635973E+02  0.47000000000E+01 0.  1.
         11    1    4    4    0    0 -0.14197632218E+02  0.36205336467E+02 -0.17235866812E+03  0.17669156637E+03  0.00000000000E+00 0. -1.
        -12    1    4    4    0    0 -0.88679007924E+02  0.57561810818E+02 -0.17970611613E+03  0.20849848125E+03  0.00000000000E+00 0.  1.
</event>
<event>
12    1  0.8053217E-002  0.2249760E+03  0.7818608E-02  0.1130351E+00
         21   -1    0    0  503  502  0.00000000000E+00  0.00000000000E+00  0.15628195947E+03  0.15628195947E+03  0.00000000000E+00 0. -1.
         21   -1    0    0  501  503 -0.00000000000E+00 -0.00000000000E+00 -0.33532739260E+03  0.33532739260E+03  0.00000000000E+00 0.  1.
          6    2    1    2  501    0  0.84171092103E+02  0.11749183338E+03 -0.42038319399E+02  0.22819873270E+03  0.17151774734E+03 0.  0.
         24    2    3    3    0    0  0.10426503710E+01  0.59254166674E+01 -0.34824105584E+02  0.88801680924E+02  0.81466695789E+02 0.  0.
         -6    2    1    2    0  502 -0.84171092103E+02 -0.11749183338E+03 -0.13700711373E+03  0.26341061938E+03  0.17240969094E+03 0.  0.
        -24    2    5    5    0    0  0.13063860143E+02 -0.18543427212E+02 -0.30107459184E+02  0.88210593225E+02  0.79750401404E+02 0.  0.
          5    1    3    3  501    0  0.83128441732E+02  0.11156641671E+03 -0.72142138155E+01  0.13939705177E+03  0.47000000000E+01 0. -1.
        -13    1    4    4    0    0 -0.36993504473E+02  0.17687149783E+02 -0.24129402390E+02  0.47577123709E+02  0.00000000000E+00 0.  1.
         14    1    4    4    0    0  0.38036154844E+02 -0.11761733116E+02 -0.10694703194E+02  0.41224557216E+02  0.00000000000E+00 0. -1.
         -5    1    5    5    0  502 -0.97234952246E+02 -0.98948406166E+02 -0.10689965455E+03  0.17520002615E+03  0.47000000000E+01 0.  1.
         11    1    6    6    0    0 -0.24300815968E+02 -0.27228044974E+02 -0.33709400470E+02  0.49681181244E+02  0.00000000000E+00 0. -1.
        -12    1    6    6    0    0  0.37364676111E+02  0.86846177615E+01  0.36019412858E+01  0.38529411981E+02  0.00000000000E+00 0.  1.
</event>
<event>
12    1  0.8053217E-002  0.2335638E+03  0.7818608E-02  0.1124311E+00
         21   -1    0    0  501  502  0.00000000000E+00  0.00000000000E+00  0.83209754547E+02  0.83209754547E+02  0.00000000000E+00 0.  1.
         21   -1    0    0  502  503 -0.00000000000E+00 -0.00000000000E+00 -0.70138282516E+03  0.70138282516E+03  0.00000000000E+00 0. -1.
         -6    2    1    2    0  503 -0.15713203555E+03 -0.90742487942E+00 -0.41258069831E+03  0.47410429669E+03  0.17280263743E+03 0.  0.
        -24    2    3    3    0    0 -0.91192179747E+02  0.71665434180E+02 -0.25003181749E+03  0.28421192425E+03  0.69343781426E+02 0.  0.
          6    2    1    2  501    0  0.15713203555E+03  0.90742487942E+00 -0.20559237231E+03  0.31048828302E+03  0.17159093894E+03 0.  0.
         24    2    5    5    0    0  0.17260304096E+03  0.20964892917E+02 -0.13379014875E+03  0.23420392460E+03  0.81977667147E+02 0.  0.
          5    1    5    5  501    0 -0.15471005409E+02 -0.20057468037E+02 -0.71802223562E+02  0.76284358428E+02  0.47000000000E+01 0. -1.
        -13    1    6    6    0    0  0.70790425141E+02  0.29974027462E+02 -0.16495986912E+02  0.78624704757E+02  0.00000000000E+00 0.  1.
         14    1    6    6    0    0  0.10181261582E+03 -0.90091345455E+01 -0.11729416183E+03  0.15557921984E+03  0.00000000000E+00 0. -1.
         -5    1    3    3    0  503 -0.65939855804E+02 -0.72572859060E+02 -0.16254888082E+03  0.18989237244E+03  0.47000000000E+01 0.  1.
         11    1    4    4    0    0 -0.31340753604E+02  0.23213875592E+01 -0.12696575672E+03  0.13079730524E+03  0.00000000000E+00 0. -1.
        -12    1    4    4    0    0 -0.59851426143E+02  0.69344046621E+02 -0.12306606077E+03  0.15341461901E+03  0.00000000000E+00 0.  1.
</event>
<event>
12    1  0.8053217E-002  0.2478726E+03  0.7818608E-02  0.1116708E+00
         21   -1    0    0  503  502  0.00000000000E+00  0.00000000000E+00  0.12025589787E+04  0.12025589787E+04  0.00000000000E+00 0. -1.
         21   -1    0    0  501  503 -0.00000000000E+00 -0.00000000000E+00 -0.75468305065E+02  0.75468305065E+02  0.00000000000E+00 0.  1.
          6    2    1    2  501    0  0.13396406956E+03 -0.89761667183E+02  0.19135610087E+03  0.31314207659E+03  0.18824790559E+03 0.  0.
         24    2    3    3    0    0 -0.11487522041E+02 -0.72192735913E+02  0.42422776719E+02  0.10417304087E+03  0.60898080247E+02 0.  0.
         -6    2    1    2    0  502 -0.13396406956E+03  0.89761667183E+02  0.93573457278E+03  0.96488520719E+03  0.17146645019E+03 0.  0.
        -24    2    5    5    0    0  0.13487069952E+01  0.44629084198E+02  0.29304008688E+03  0.30653515612E+03  0.78087996848E+02 0.  0.
          5    1    3    3  501    0  0.14545159160E+03 -0.17568931270E+02  0.14893332416E+03  0.20896903572E+03  0.47000000000E+01 0. -1.
        -13    1    4    4    0    0  0.37612041405E+00 -0.32792606678E+02 -0.12887227452E+02  0.35236020642E+02  0.00000000000E+00 0.  1.
         14    1    4    4    0    0 -0.11863642455E+02 -0.39400129235E+02  0.55310004171E+02  0.68937020225E+02  0.00000000000E+00 0. -1.
         -5    1    5    5    0  502 -0.13531277656E+03  0.45132582985E+02  0.64269448590E+03  0.65835005107E+03  0.47000000000E+01 0.  1.
         13    1    6    6    0    0 -0.14684655764E+02  0.42441615855E+02  0.28490598450E+03  0.28842390656E+03  0.00000000000E+00 0. -1.
        -14    1    6    6    0    0  0.16033362759E+02  0.21874683435E+01  0.81341023812E+01  0.18111249561E+02  0.00000000000E+00 0.  1.
</event>
<event>
12    1  0.8053217E-002  0.1851523E+03  0.7818608E-02  0.1162931E+00
         21   -1    0    0  503  502  0.00000000000E+00  0.00000000000E+00  0.13304217777E+03  0.13304217777E+03  0.00000000000E+00 0. -1.
         21   -1    0    0  501  503 -0.00000000000E+00 -0.00000000000E+00 -0.39136124662E+03  0.39136124662E+03  0.00000000000E+00 0. -1.
          6    2    1    2  501    0  0.13449936405E+02 -0.68040227696E+02 -0.28246338228E+03  0.33768352002E+03  0.17156405214E+03 0.  0.
         24    2    3    3    0    0  0.58427974164E+02 -0.65082577049E+02 -0.11670517552E+03  0.16584160230E+03  0.78954221278E+02 0.  0.
         -6    2    1    2    0  502 -0.13449936405E+02  0.68040227696E+02  0.24144313429E+02  0.18671990437E+03  0.17167120156E+03 0.  0.
        -24    2    5    5    0    0 -0.48051354134E+02  0.20027029693E+02  0.63303063567E+02  0.11560012510E+03  0.81523594830E+02 0.  0.
          5    1    3    3  501    0 -0.44978037759E+02 -0.29576506463E+01 -0.16575820676E+03  0.17184191772E+03  0.47000000000E+01 0. -1.
        -11    1    4    4    0    0  0.67425422176E+02 -0.28537758796E+02 -0.48135000939E+02  0.87621741298E+02  0.00000000000E+00 0.  1.
         12    1    4    4    0    0 -0.89974480124E+01 -0.36544818253E+02 -0.68570174584E+02  0.78219860997E+02  0.00000000000E+00 0. -1.
         -5    1    5    5    0  502  0.34601417730E+02  0.48013198003E+02 -0.39158750138E+02  0.71119779273E+02  0.47000000000E+01 0.  1.
         11    1    6    6    0    0 -0.98088054817E+01  0.36215146805E+02  0.63862511276E+02  0.74068683460E+02  0.00000000000E+00 0. -1.
        -12    1    6    6    0    0 -0.38242548653E+02 -0.16188117112E+02 -0.55944770850E+00  0.41531441641E+02  0.00000000000E+00 0.  1.
</event>
<event>
12    1  0.8053217E-002  0.2530097E+03  0.7818608E-02  0.1111445E+00
         21   -1    0    0  503  502  0.00000000000E+00  0.00000000000E+00  0.53979668411E+02  0.53979668411E+02  0.00000000000E+00 0. -1.
         21   -1    0    0  501  503 -0.00000000000E+00 -0.00000000000E+00 -0.12384820707E+04  0.12384820707E+04  0.00000000000E+00 0.  1.
          6    2    1    2  501    0  0.18489867892E+03 -0.35043502555E+00 -0.45781748452E+03  0.52299121794E+03  0.17243932452E+03 0.  0.
         24    2    3    3    0    0  0.53147895878E+02 -0.31443921088E+02 -0.11090905270E+03  0.15057663206E+03  0.80988179033E+02 0.  0.
         -6    2    1    2    0  502 -0.18489867892E+03  0.35043502555E+00 -0.72668491779E+03  0.76947052119E+03  0.17270283426E+03 0.  0.
        -24    2    5    5    0    0 -0.18617736821E+03  0.50272908724E+02 -0.61299055635E+03  0.64520312301E+03  0.57795068852E+02 0.  0.
          5    1    3    3  501    0  0.13175078305E+03  0.31093486063E+02 -0.34690843182E+03  0.37241458588E+03  0.47000000000E+01 0. -1.
        -11    1    4    4    0    0 -0.53322217401E+01 -0.15154078783E+02 -0.81597894947E+02  0.83164266078E+02  0.00000000000E+00 0.  1.
         12    1    4    4    0    0  0.58480117618E+02 -0.16289842306E+02 -0.29311157753E+02  0.67412365986E+02  0.00000000000E+00 0. -1.
         -5    1    5    5    0  502  0.12786892890E+01 -0.49922473699E+02 -0.11369436144E+03  0.12426739818E+03  0.47000000000E+01 0.  1.
         13    1    6    6    0    0 -0.67104485300E+02  0.47260552455E+02 -0.26163811352E+03  0.27420990903E+03  0.00000000000E+00 0. -1.
        -14    1    6    6    0    0 -0.11907288291E+03  0.30123562688E+01 -0.35135244283E+03  0.37099321398E+03  0.00000000000E+00 0.  1.
</event>
<event>
12    1  0.8053217E-002  0.1896397E+03  0.7818608E-02  0.1159648E+00
         21   -1    0    0  501  502  0.00000000000E+00  0.00000000000E+00  0.18446067843E+03  0.18446067843E+03  0.00000000000E+00 0.  1.
         21   -1    0    0  502  503 -0.00000000000E+00 -0.00000000000E+00 -0.93200624737E+03  0.93200624737E+03  0.00000000000E+00 0. -1.
         -6    2    1    2    0  503  0.68623548946E+02 -0.10325948623E+02 -0.87071876738E+03  0.89033674160E+03  0.17243121786E+03 0.  0.
        -24    2    3    3    0    0  0.40453303354E+02 -0.70328832244E+02 -0.45248237970E+03  0.46685395003E+03  0.81422922576E+02 0.  0.
          6    2    1    2  501    0 -0.68623548946E+02  0.10325948623E+02  0.12317319844E+03  0.22613018419E+03  0.17648627908E+03 0.  0.
         24    2    5    5    0    0 -0.41531720896E+02 -0.94215369903E+01 -0.71193225629E+01  0.91511606853E+02  0.80684820352E+02 0.  0.
          5    1    5    5  501    0 -0.27091828051E+02  0.19747485613E+02  0.13029252100E+03  0.13461857734E+03  0.47000000000E+01 0. -1.
        -11    1    6    6    0    0  0.22821786249E+02 -0.27083487856E+01  0.92447333350E+01  0.24771640542E+02  0.00000000000E+00 0.  1.
         12    1    6    6    0    0 -0.64353507144E+02 -0.67131882047E+01 -0.16364055898E+02  0.66739966310E+02  0.00000000000E+00 0. -1.
         -5    1    3    3    0  503  0.28170245593E+02  0.60002883622E+02 -0.41823638768E+03  0.42348279157E+03  0.47000000000E+01 0.  1.
         13    1    4    4    0    0  0.17162319418E+02  0.13643107878E+02 -0.16512218639E+03  0.16657135420E+03  0.00000000000E+00 0. -1.
        -14    1    4    4    0    0  0.23290983936E+02 -0.83971940123E+02 -0.28736019331E+03  0.30028259583E+03  0.00000000000E+00 0.  1.
</event>
<event>
12    1  0.8053217E-002  0.2342358E+03  0.7818608E-02  0.1124391E+00
         21   -1    0    0  503  502  0.00000000000E+00  0.00000000000E+00  0.35970472403E+02  0.35970472403E+02  0.00000000000E+00 0.  1.
         21   -1    0    0  501  503 -0.00000000000E+00 -0.00000000000E+00 -0.14993199395E+04  0.14993199395E+04  0.00000000000E+00 0. -1.
          6    2    1    2  501    0  0.12078741151E+03 -0.92682641427E+02 -0.73282903766E+03  0.76935350243E+03  0.17800770339E+03 0.  0.
         24    2    3    3    0    0  0.10262088407E+03 -0.10301698747E+03 -0.72892601189E+03  0.74757863073E+03  0.79982077689E+02 0.  0.
         -6    2    1    2    0  502 -0.12078741151E+03  0.92682641427E+02 -0.73052042947E+03  0.76593690951E+03  0.17268346958E+03 0.  0.
        -24    2    5    5    0    0 -0.14889068481E+03  0.10263058929E+03 -0.58409774332E+03  0.61643624510E+03  0.78243189129E+02 0.  0.
          5    1    3    3  501    0  0.18166527442E+02  0.10334346047E+02 -0.39030257635E+01  0.21774871702E+02  0.47000000000E+01 0. -1.
        -11    1    4    4    0    0  0.65771212151E+02 -0.11583848606E+02 -0.26395276075E+03  0.27227026610E+03  0.00000000000E+00 0.  1.
         12    1    4    4    0    0  0.36849671917E+02 -0.91433138868E+02 -0.46497325114E+03  0.47530836462E+03  0.00000000000E+00 0. -1.
         -5    1    5    5    0  502  0.28103273300E+02 -0.99479478608E+01 -0.14642268615E+03  0.14950066440E+03  0.47000000000E+01 0.  1.
         11    1    6    6    0    0 -0.10527473308E+03  0.10941715200E+03 -0.47752806331E+03  0.50108675279E+03  0.00000000000E+00 0. -1.
        -12    1    6    6    0    0 -0.43615951731E+02 -0.67865627110E+01 -0.10656968001E+03  0.11534949231E+03  0.00000000000E+00 0.  1.
</event>
<event>
12    1  0.8053217E-002  0.2142543E+03  0.7818608E-02  0.1138680E+00
         21   -1    0    0  503  502  0.00000000000E+00  0.00000000000E+00  0.37807870143E+03  0.37807870143E+03  0.00000000000E+00 0.  1.
         21   -1    0    0  501  503 -0.00000000000E+00 -0.00000000000E+00 -0.14430663797E+03  0.14430663797E+03  0.00000000000E+00 0. -1.
          6    2    1    2  501    0 -0.90457254188E+02 -0.85353391386E+02  0.10510206599E+02  0.21451190667E+03  0.17446253869E+03 0.  0.
         24    2    3    3    0    0 -0.41615485273E+02 -0.10665836138E+03 -0.35445755065E+02  0.14398914049E+03  0.79803611197E+02 0.  0.
         -6    2    1    2    0  502  0.90457254188E+02  0.85353391386E+02  0.22326185686E+03  0.30787343272E+03  0.17167550085E+03 0.  0.
        -24    2    5    5    0    0  0.32784282034E+02  0.85870386777E+02  0.21887495806E+03  0.24984090837E+03  0.77882602388E+02 0.  0.
          5    1    3    3  501    0 -0.48841768915E+02  0.21304969999E+02  0.45955961664E+02  0.70522766181E+02  0.47000000000E+01 0. -1.
        -11    1    4    4    0    0 -0.44413086937E+02 -0.61609384809E+02  0.13795202297E+02  0.77191619974E+02  0.00000000000E+00 0.  1.
         12    1    4    4    0    0  0.27976016642E+01 -0.45048976576E+02 -0.49240957362E+02  0.66797520519E+02  0.00000000000E+00 0. -1.
         -5    1    5    5    0  502  0.57672972154E+02 -0.51699539178E+00  0.43868987935E+01  0.58032524349E+02  0.47000000000E+01 0.  1.
         11    1    6    6    0    0 -0.19036178145E+02  0.35446360851E+02  0.39244549223E+02  0.56204583618E+02  0.00000000000E+00 0. -1.
        -12    1    6    6    0    0  0.51820460179E+02  0.50424025927E+02  0.17963040884E+03  0.19363632475E+03  0.00000000000E+00 0.  1.
</event>
<event>
12    1  0.8053217E-002  0.2352750E+03  0.7818608E-02  0.1122995E+00
         21   -1    0    0  501  502  0.00000000000E+00  0.00000000000E+00  0.15458592567E+04  0.15458592567E+04  0.00000000000E+00 0. -1.
         21   -1    0    0  502  503 -0.00000000000E+00 -0.00000000000E+00 -0.44034152529E+02  0.44034152529E+02  0.00000000000E+00 0.  1.
         -6    2    1    2    0  503  0.89809047924E+02 -0.13242647138E+03  0.40696716149E+03  0.47004152856E+03  0.17237845758E+03 0.  0.
        -24    2    3    3    0    0  0.10558676161E+03 -0.13471799999E+03  0.41152667733E+03  0.45280591029E+03  0.79884181751E+02 0.  0.
          6    2    1    2  501    0 -0.89809047924E+02  0.13242647138E+03  0.10948579427E+04  0.11198518807E+04  0.17248734607E+03 0.  0.
         24    2    5    5    0    0 -0.75277058290E+02  0.16528502973E+03  0.92294942346E+03  0.94416610275E+03  0.81413848648E+02 0.  0.
          5    1    5    5  501    0 -0.14531989634E+02 -0.32858558357E+02  0.17190851925E+03  0.17568577794E+03  0.47000000000E+01 0. -1.
        -13    1    6    6    0    0 -0.48688447425E+02  0.22282042668E+02  0.24067772338E+03  0.24656200208E+03  0.00000000000E+00 0.  1.
         14    1    6    6    0    0 -0.26588610865E+02  0.14300298707E+03  0.68227170008E+03  0.69760410067E+03  0.00000000000E+00 0. -1.
         -5    1    3    3    0  503 -0.15777713686E+02  0.22915286135E+01 -0.45595158422E+01  0.17235618273E+02  0.47000000000E+01 0.  1.
         11    1    4    4    0    0  0.57498594613E+02 -0.12715400527E+03  0.28783747145E+03  0.31988222741E+03  0.00000000000E+00 0. -1.
        -12    1    4    4    0    0  0.48088166997E+02 -0.75639947164E+01  0.12368920588E+03  0.13292368288E+03  0.00000000000E+00 0.  1.
</event>
<event>
12    1  0.8053217E-002  0.5026416E+03  0.7818608E-02  0.1013129E+00
         21   -1    0    0  501  502  0.00000000000E+00  0.00000000000E+00  0.10608889184E+04  0.10608889184E+04  0.00000000000E+00 0. -1.
         21   -1    0    0  502  503 -0.00000000000E+00 -0.00000000000E+00 -0.23852511230E+03  0.23852511230E+03  0.00000000000E+00 0. -1.
         -6    2    1    2    0  503 -0.45921399960E+03 -0.10866055315E+03  0.44480212680E+03  0.67076353622E+03  0.17143563306E+03 0.  0.
        -24    2    3    3    0    0 -0.34132201227E+03 -0.13850570889E+02  0.30439216543E+03  0.46430651729E+03  0.78951866697E+02 0.  0.
          6    2    1    2  501    0  0.45921399960E+03  0.10866055315E+03  0.37756167933E+03  0.62865049450E+03  0.17310115336E+03 0.  0.
         24    2    5    5    0    0  0.10177523074E+03  0.55674183712E+02  0.93383377301E+02  0.16892293803E+03  0.79728862486E+02 0.  0.
          5    1    5    5  501    0  0.35743876885E+03  0.52986369438E+02  0.28417830203E+03  0.45972755646E+03  0.47000000000E+01 0. -1.
        -13    1    6    6    0    0  0.53349124317E+01  0.20782895625E+02 -0.96684648270E+01  0.23534426981E+02  0.00000000000E+00 0.  1.
         14    1    6    6    0    0  0.96440318311E+02  0.34891288087E+02  0.10305184213E+03  0.14538851105E+03  0.00000000000E+00 0. -1.
         -5    1    3    3    0  503 -0.11789198733E+03 -0.94809982261E+02  0.14040996137E+03  0.20645701893E+03  0.47000000000E+01 0.  1.
         13    1    4    4    0    0 -0.75628394591E+02 -0.34430487378E+02  0.57726015921E+02  0.10118006446E+03  0.00000000000E+00 0. -1.
        -14    1    4    4    0    0 -0.26569361767E+03  0.20579916489E+02  0.24666614951E+03  0.36312645283E+03  0.00000000000E+00 0.  1.
</event>
<event>
12    1  0.8053217E-002  0.1926264E+03  0.7818608E-02  0.1157053E+00
         21   -1    0    0  503  502  0.00000000000E+00  0.00000000000E+00  0.33911680562E+03  0.33911680562E+03  0.00000000000E+00 0.  1.
         21   -1    0    0  501  503 -0.00000000000E+00 -0.00000000000E+00 -0.11608924369E+03  0.11608924369E+03  0.00000000000E+00 0.  1.
          6    2    1    2  501    0 -0.35004758426E+02 -0.76012269270E+02  0.46866250029E+02  0.19417400933E+03  0.16883098743E+03 0.  0.
         24    2    3    3    0    0 -0.62234337910E+02 -0.10599141992E+03  0.26370448476E+02  0.14854104588E+03  0.79131206523E+02 0.  0.
         -6    2    1    2    0  502  0.35004758426E+02  0.76012269270E+02  0.17616131190E+03  0.26103203998E+03  0.17349847230E+03 0.  0.
        -24    2    5    5    0    0  0.36136912861E+02  0.89399533767E+02  0.19878208932E+03  0.23430583195E+03  0.78017630968E+02 0.  0.
          5    1    3    3  501    0  0.27229579484E+02  0.29979150649E+02  0.20495801553E+02  0.45632963456E+02  0.47000000000E+01 0. -1.
        -13    1    4    4    0    0  0.68737459739E+01 -0.61238010696E+01 -0.17204748080E+02  0.19512884967E+02  0.00000000000E+00 0.  1.
         14    1    4    4    0    0 -0.69108083884E+02 -0.99867618849E+02  0.43575196556E+02  0.12902816091E+03  0.00000000000E+00 0. -1.
         -5    1    5    5    0  502 -0.11321544355E+01 -0.13387264497E+02 -0.22620777420E+02  0.26726208026E+02  0.47000000000E+01 0.  1.
         11    1    6    6    0    0  0.13067446586E+02  0.62335739254E+01 -0.30492896793E+01  0.14795734916E+02  0.00000000000E+00 0. -1.
        -12    1    6    6    0    0  0.23069466276E+02  0.83165959841E+02  0.20183137900E+03  0.21951009703E+03  0.00000000000E+00 0.  1.
</event>
<event>
12    1  0.8053217E-002  0.1876690E+03  0.7818608E-02  0.1163872E+00
         21   -1    0    0  501  502  0.00000000000E+00  0.00000000000E+00  0.33406158641E+03  0.33406158641E+03  0.00000000000E+00 0.  1.
         21   -1    0    0  502  503 -0.00000000000E+00 -0.00000000000E+00 -0.22682847743E+03  0.22682847743E+03  0.00000000000E+00 0.  1.
         -6    2    1    2    0  503  0.51278075958E+01 -0.24398179101E+02 -0.15693045297E+03  0.24463611951E+03  0.18600564062E+03 0.  0.
        -24    2    3    3    0    0 -0.21446832969E+02 -0.55914957564E+02 -0.19313656489E+02  0.10090028014E+03  0.78875852329E+02 0.  0.
          6    2    1    2  501    0 -0.51278075958E+01  0.24398179101E+02  0.26416356195E+03  0.31625394433E+03  0.17208313191E+03 0.  0.
         24    2    5    5    0    0 -0.10171457099E+01 -0.21240493889E+02  0.25668871633E+03  0.26958758246E+03  0.79600090200E+02 0.  0.
          5    1    5    5  501    0 -0.41106618858E+01  0.45638672990E+02  0.74748456221E+01  0.46666361873E+02  0.47000000000E+01 0. -1.
        -13    1    6    6    0    0  0.28476449180E+02 -0.38658879578E+02  0.14246861762E+03  0.15034202385E+03  0.00000000000E+00 0.  1.
         14    1    6    6    0    0 -0.29493594890E+02  0.17418385689E+02  0.11422009871E+03  0.11924555861E+03  0.00000000000E+00 0. -1.
         -5    1    3    3    0  503  0.26574640565E+02  0.31516778463E+02 -0.13761679648E+03  0.14373583937E+03  0.47000000000E+01 0.  1.
         11    1    4    4    0    0  0.27733376773E+02 -0.23004054075E+02 -0.20990295533E+02  0.41700350091E+02  0.00000000000E+00 0. -1.
        -12    1    4    4    0    0 -0.49180209742E+02 -0.32910903489E+02  0.16766390446E+01  0.59199930044E+02  0.00000000000E+00 0.  1.
</event>
<event>
12    1  0.8053217E-002  0.1877803E+03  0.7818608E-02  0.1162099E+00
         21   -1    0    0  501  502  0.00000000000E+00  0.00000000000E+00  0.15201578839E+04  0.15201578839E+04  0.00000000000E+00 0.  1.
         21   -1    0    0  502  503 -0.00000000000E+00 -0.00000000000E+00 -0.38899454202E+02  0.38899454202E+02  0.00000000000E+00 0.  1.
         -6    2    1    2    0  503 -0.73700676980E+02  0.36101390531E+01  0.22418329837E+03  0.28803439292E+03  0.16510856231E+03 0.  0.
        -24    2    3    3    0    0 -0.85887770209E+02  0.13473211251E+02  0.79600742962E+02  0.14252834232E+03  0.80123739246E+02 0.  0.
          6    2    1    2  501    0  0.73700676980E+02 -0.36101390531E+01  0.12570751313E+04  0.12710229452E+04  0.17267489244E+03 0.  0.
         24    2    5    5    0    0  0.11174295643E+01  0.52787914584E+02  0.53600266329E+03  0.54410021035E+03  0.77190486892E+02 0.  0.
          5    1    5    5  501    0  0.72583247416E+02 -0.56398053637E+02  0.72107246802E+03  0.72692273482E+03  0.47000000000E+01 0. -1.
        -13    1    6    6    0    0  0.37429746066E+02  0.14086692044E+02  0.20406126179E+03  0.20794330801E+03  0.00000000000E+00 0.  1.
         14    1    6    6    0    0 -0.36312316501E+02  0.38701222540E+02  0.33194140150E+03  0.33615690233E+03  0.00000000000E+00 0. -1.
         -5    1    3    3    0  503  0.12187093229E+02 -0.98630721975E+01  0.14458255540E+03  0.14550605060E+03  0.47000000000E+01 0.  1.
         11    1    4    4    0    0 -0.17847123153E+02  0.38286289604E+02  0.13157442078E+02  0.44243395649E+02  0.00000000000E+00 0. -1.
        -12    1    4    4    0    0 -0.68040647056E+02 -0.24813078354E+02  0.66443300885E+02  0.98284946669E+02  0.00000000000E+00 0.  1.
</event>
<event>
12    1  0.8053217E-002  0.3962710E+03  0.7818608E-02  0.1045375E+00
         21   -1    0    0  501  502  0.00000000000E+00  0.00000000000E+00  0.66120886587E+03  0.66120886587E+03  0.00000000000E+00 0.  1.
         21   -1    0    0  502  503 -0.00000000000E+00 -0.00000000000E+00 -0.64526853976E+03  0.64526853976E+03  0.00000000000E+00 0. -1.
         -6    2    1    2    0  503  0.34539791176E+03 -0.89286605704E+02 -0.51258998264E+03  0.64790368487E+03  0.17250762059E+03 0.  0.
        -24    2    3    3    0    0  0.28658258247E+03 -0.10384339568E+03 -0.49279308469E+03  0.58398850466E+03  0.72694716779E+02 0.  0.
          6    2    1    2  501    0 -0.34539791176E+03  0.89286605704E+02  0.52853030875E+03  0.65857372076E+03  0.16463062596E+03 0.  0.
         24    2    5    5    0    0 -0.33998375494E+03  0.59412694833E+02  0.51455585136E+03  0.62482258590E+03  0.80726190017E+02 0.  0.
          5    1    5    5  501    0 -0.54141568120E+01  0.29873910871E+02  0.13974457394E+02  0.33751134858E+02  0.47000000000E+01 0. -1.
        -13    1    6    6    0    0 -0.12479543657E+03  0.54930088190E+02  0.23913866422E+03  0.27527897904E+03  0.00000000000E+00 0.  1.
         14    1    6    6    0    0 -0.21518831837E+03  0.44826066430E+01  0.27541718714E+03  0.34954360686E+03  0.00000000000E+00 0. -1.
         -5    1    3    3    0  503  0.58815329289E+02  0.14556789972E+02 -0.19796897945E+02  0.63915180215E+02  0.47000000000E+01 0.  1.
         11    1    4    4    0    0  0.10430300953E+03 -0.52747149866E+02 -0.25120792160E+03  0.27706822173E+03  0.00000000000E+00 0. -1.
        -12    1    4    4    0    0  0.18227957294E+03 -0.51096245810E+02 -0.24158516310E+03  0.30692028293E+03  0.00000000000E+00 0.  1.
</event>
<event>
12    1  0.8053217E-002  0.1848393E+03  0.7818608E-02  0.1163466E+00
         21   -1    0    0  501  502  0.00000000000E+00  0.00000000000E+00  0.94206337262E+02  0.94206337262E+02  0.00000000000E+00 0.  1.
         21   -1    0    0  502  503 -0.00000000000E+00 -0.00000000000E+00 -0.41016805428E+03  0.41016805428E+03  0.00000000000E+00 0.  1.
         -6    2    1    2    0  503  0.40323623727E+01  0.65385928419E+02 -0.24621526019E+03  0.30787581825E+03  0.17284092551E+03 0.  0.
        -24    2    3    3    0    0 -0.50581161330E+02  0.18522274219E+02 -0.80017830783E+02  0.12670596812E+03  0.82158508928E+02 0.  0.
          6    2    1    2  501    0 -0.40323623727E+01 -0.65385928419E+02 -0.69746456829E+02  0.19649857329E+03  0.17162616783E+03 0.  0.
         24    2    5    5    0    0 -0.46102895989E+02 -0.70862268189E+02 -0.94126660322E+02  0.14734163667E+03  0.75516830184E+02 0.  0.
          5    1    5    5  501    0  0.42070533616E+02  0.54763397696E+01  0.24380203492E+02  0.49156936625E+02  0.47000000000E+01 0. -1.
        -13    1    6    6    0    0 -0.31587651610E+02 -0.12931899791E+02 -0.78515692587E+02  0.85613829192E+02  0.00000000000E+00 0.  1.
         14    1    6    6    0    0 -0.14515244378E+02 -0.57930368398E+02 -0.15610967735E+02  0.61727807475E+02  0.00000000000E+00 0. -1.
         -5    1    3    3    0  503  0.54613523703E+02  0.46863654200E+02 -0.16619742940E+03  0.18116985013E+03  0.47000000000E+01 0.  1.
         13    1    4    4    0    0 -0.59579512047E+02  0.35067375952E+02 -0.82580613462E+02  0.10769863895E+03  0.00000000000E+00 0. -1.
        -14    1    4    4    0    0  0.89983507164E+01 -0.16545101733E+02  0.25627826789E+01  0.19007329166E+02  0.00000000000E+00 0.  1.
</event>
<event>
12    1  0.8053217E-002  0.2011737E+03  0.7818608E-02  0.1148974E+00
         21   -1    0    0  503  502  0.00000000000E+00  0.00000000000E+00  0.10065422910E+03  0.10065422910E+03  0.00000000000E+00 0.  1.
         21   -1    0    0  501  503 -0.00000000000E+00 -0.00000000000E+00 -0.47139756011E+03  0.47139756011E+03  0.00000000000E+00 0.  1.
          6    2    1    2  501    0 -0.99299641191E+02 -0.16819338597E+02 -0.73620851197E+02  0.21323061558E+03  0.17292760565E+03 0.  0.
         24    2    3    3    0    0 -0.46119893509E+02 -0.30538880907E+02  0.27861309195E+02  0.97744554588E+02  0.75617971259E+02 0.  0.
         -6    2    1    2    0  502  0.99299641191E+02  0.16819338597E+02 -0.29712247981E+03  0.35882117363E+03  0.17414809143E+03 0.  0.
        -24    2    5    5    0    0  0.16731033316E+02 -0.20303128597E+02 -0.50591020273E+02  0.96151222710E+02  0.77417451454E+02 0.  0.
          5    1    3    3  501    0 -0.53179747682E+02  0.13719542310E+02 -0.10148216039E+03  0.11548606099E+03  0.47000000000E+01 0. -1.
        -13    1    4    4    0    0 -0.89061205239E+01 -0.18941947805E+02 -0.24656060959E+02  0.32342506264E+02  0.00000000000E+00 0.  1.
         14    1    4    4    0    0 -0.37213772985E+02 -0.11596933102E+02  0.52517370154E+02  0.65402048324E+02  0.00000000000E+00 0. -1.
         -5    1    5    5    0  502  0.82568607875E+02  0.37122467195E+02 -0.24653145953E+03  0.26266995092E+03  0.47000000000E+01 0.  1.
         13    1    6    6    0    0  0.25970410303E+02 -0.48260416579E+01  0.13435679046E+02  0.29635626547E+02  0.00000000000E+00 0. -1.
        -14    1    6    6    0    0 -0.92393769872E+01 -0.15477086940E+02 -0.64026699319E+02  0.66515596163E+02  0.00000000000E+00 0.  1.
</event>
<event>
12    1  0.8053217E-002  0.1963081E+03  0.7818608E-02  0.1156079E+00
         21   -1    0    0  501  502  0.00000000000E+00  0.00000000000E+00  0.21630683318E+03  0.21630683318E+03  0.00000000000E+00 0.  1.
         21   -1    0    0  502  503 -0.00000000000E+00 -0.00000000000E+00 -0.17204309622E+03  0.17204309622E+03  0.00000000000E+00 0.  1.
         -6    2    1    2    0  503  0.58762092035E+02 -0.13796277854E+01 -0.14824454010E+02  0.19686701413E+03  0.18730181522E+03 0.  0.
        -24    2    3    3    0    0  0.54892811939E+02 -0.53627321017E+02  0.42691112871E+02  0.11892522040E+03  0.80197048368E+02 0.  0.
          6    2    1    2  501    0 -0.58762092035E+02  0.13796277854E+01  0.59088190976E+02  0.19148291526E+03  0.17239317183E+03 0.  0.
         24    2    5    5    0    0 -0.78700262838E+02  0.49707023414E+01  0.96623164818E+02  0.14857148633E+03  0.80740394596E+02 0.  0.
          5    1    5    5  501    0  0.19938170803E+02 -0.35910745560E+01 -0.37534973843E+02  0.42911428930E+02  0.47000000000E+01 0. -1.
        -13    1    6    6    0    0 -0.54434237030E+02 -0.28941778997E+02  0.85508743265E+02  0.10541564356E+03  0.00000000000E+00 0.  1.
         14    1    6    6    0    0 -0.24266025808E+02  0.33912481339E+02  0.11114421554E+02  0.43155842774E+02  0.00000000000E+00 0. -1.
         -5    1    3    3    0  503  0.38692800955E+01  0.52247693231E+02 -0.57515566881E+02  0.77941793732E+02  0.47000000000E+01 0.  1.
         13    1    4    4    0    0  0.13742889194E+02 -0.63532385582E+02  0.10714923413E+02  0.65878984546E+02  0.00000000000E+00 0. -1.
        -14    1    4    4    0    0  0.41149922745E+02  0.99050645651E+01  0.31976189458E+02  0.53046235853E+02  0.00000000000E+00 0.  1.
</event>
<event>
12    1  0.8053217E-002  0.2179876E+03  0.7818608E-02  0.1135595E+00
         21   -1    0    0  501  502  0.00000000000E+00  0.00000000000E+00  0.28677469489E+03  0.28677469489E+03  0.00000000000E+00 0. -1.
         21   -1    0    0  502  503 -0.00000000000E+00 -0.00000000000E+00 -0.19118841417E+03  0.19118841417E+03  0.00000000000E+00 0.  1.
         -6    2    1    2    0  503 -0.13299853985E+03 -0.91780495959E+01 -0.40944560047E+02  0.22074864305E+03  0.17111592040E+03 0.  0.
        -24    2    3    3    0    0 -0.87509537101E+02  0.27901010518E+02 -0.84356439490E+02  0.14759956686E+03  0.78950856761E+02 0.  0.
          6    2    1    2  501    0  0.13299853985E+03  0.91780495959E+01  0.13653084077E+03  0.25721446601E+03  0.17246959978E+03 0.  0.
         24    2    5    5    0    0  0.46767901921E+02 -0.41746427348E+02  0.11798951780E+03  0.15525910359E+03  0.79081363732E+02 0.  0.
          5    1    5    5  501    0  0.86230637931E+02  0.50924476944E+02  0.18541322966E+02  0.10195536243E+03  0.47000000000E+01 0. -1.
        -13    1    6    6    0    0 -0.10167790557E+01 -0.10138419733E+02 -0.10465583631E+02  0.14606499754E+02  0.00000000000E+00 0.  1.
         14    1    6    6    0    0  0.47784680977E+02 -0.31608007615E+02  0.12845510143E+03  0.14065260383E+03  0.00000000000E+00 0. -1.
         -5    1    3    3    0  503 -0.45489002751E+02 -0.37079060114E+02  0.43411879442E+02  0.73149076186E+02  0.47000000000E+01 0.  1.
         13    1    4    4    0    0  0.26769443953E+01 -0.13592823663E+02 -0.33082439126E+02  0.35866121409E+02  0.00000000000E+00 0. -1.
        -14    1    4    4    0    0 -0.90186481496E+02  0.41493834180E+02 -0.51274000364E+02  0.11173344545E+03  0.00000000000E+00 0.  1.
</event>
<event>
12    1  0.8053217E-002  0.1886841E+03  0.7818608E-02  0.1160154E+00
         21   -1    0    0  501  502  0.00000000000E+00  0.00000000000E+00  0.19238692925E+03  0.19238692925E+03  0.00000000000E+00 0.  1.
         21   -1    0    0  502  503 -0.00000000000E+00 -0.00000000000E+00 -0.19407817026E+03  0.19407817026E+03  0.00000000000E+00 0.  1.
         -6    2    1    2    0  503  0.66313771499E+02  0.18575548277E+02 -0.47194798131E+02  0.19449690881E+03  0.17566767284E+03 0.  0.
        -24    2    3    3    0    0  0.61042128262E+02  0.59784347755E+02 -0.78623547822E+02  0.14219192163E+03  0.82076614486E+02 0.  0.
          6    2    1    2  501    0 -0.66313771499E+02 -0.18575548277E+02  0.45503557118E+02  0.19196819070E+03  0.17331660407E+03 0.  0.
         24    2    5    5    0    0 -0.32608285500E+02 -0.59173719807E+02  0.76927531819E+02  0.13037413657E+03  0.80713945117E+02 0.  0.
          5    1    5    5  501    0 -0.33705485999E+02  0.40598171530E+02 -0.31423974701E+02  0.61594054129E+02  0.47000000000E+01 0. -1.
        -11    1    6    6    0    0 -0.57449004157E+02 -0.31291653421E+02  0.34872167546E+02  0.74132474137E+02  0.00000000000E+00 0.  1.
         12    1    6    6    0    0  0.24840718657E+02 -0.27882066386E+02  0.42055364273E+02  0.56241662436E+02  0.00000000000E+00 0. -1.
         -5    1    3    3    0  503  0.52716432371E+01 -0.41208799478E+02  0.31428749691E+02  0.52304987181E+02  0.47000000000E+01 0.  1.
         11    1    4    4    0    0 -0.11940098179E+02 -0.10512741459E+02 -0.18364518923E+02  0.24296897595E+02  0.00000000000E+00 0. -1.
        -12    1    4    4    0    0  0.72982226441E+02  0.70297089214E+02 -0.60259028899E+02  0.11789502403E+03  0.00000000000E+00 0.  1.
</event>
<event>
12    1  0.8053217E-002  0.2185214E+03  0.7818608E-02  0.1135057E+00
         21   -1    0    0  501  502  0.00000000000E+00  0.00000000000E+00  0.99759343882E+02  0.99759343882E+02  0.00000000000E+00 0.  1.
         21   -1    0    0  502  503 -0.00000000000E+00 -0.00000000000E+00 -0.50592214060E+03  0.50592214060E+03  0.00000000000E+00 0.  1.
         -6    2    1    2    0  503 -0.13131156239E+03 -0.33968101673E+02 -0.27420429788E+03  0.35040783331E+03  0.17088327688E+03 0.  0.
        -24    2    3    3    0    0 -0.77441930121E+02  0.45093900249E+02 -0.18134019192E+03  0.21699655341E+03  0.78565428811E+02 0.  0.
          6    2    1    2  501    0  0.13131156239E+03  0.33968101673E+02 -0.13195849884E+03  0.25527365118E+03  0.17133310602E+03 0.  0.
         24    2    5    5    0    0  0.14730123019E+03  0.41478694691E+01 -0.14191988381E+03  0.21968945644E+03  0.80045903158E+02 0.  0.
          5    1    5    5  501    0 -0.15989667794E+02  0.29820232204E+02  0.99613849679E+01  0.35584194740E+02  0.47000000000E+01 0. -1.
        -13    1    6    6    0    0  0.33298179691E+02 -0.30651915653E+02 -0.59572130051E+02  0.74814085456E+02  0.00000000000E+00 0.  1.
         14    1    6    6    0    0  0.11400305050E+03  0.34799785122E+02 -0.82347753761E+02  0.14487537098E+03  0.00000000000E+00 0. -1.
         -5    1    3    3    0  503 -0.53869632273E+02 -0.79062001922E+02 -0.92864105953E+02  0.13341127990E+03  0.47000000000E+01 0.  1.
         11    1    4    4    0    0  0.13748800746E+02  0.15412752303E+02 -0.52241956833E+02  0.56176547680E+02  0.00000000000E+00 0. -1.
        -12    1    4    4    0    0 -0.91190730867E+02  0.29681147946E+02 -0.12909823509E+03  0.16082000573E+03  0.00000000000E+00 0.  1.
</event>
<event>
12    1  0.8053217E-002  0.2144448E+03  0.7818608E-02  0.1138196E+00
         21   -1    0    0  501  502  0.00000000000E+00  0.00000000000E+00  0.17719132185E+03  0.17719132185E+03  0.00000000000E+00 0.  1.
         21   -1    0    0  502  503 -0.00000000000E+00 -0.00000000000E+00 -0.32322387964E+03  0.32322387964E+03  0.00000000000E+00 0.  1.
         -6    2    1    2    0  503 -0.30952953270E+01 -0.12777358387E+03 -0.18471700547E+03  0.28303166781E+03  0.17219431839E+03 0.  0.
        -24    2    3    3    0    0  0.63888116803E+02 -0.93683523407E+02 -0.12411852838E+03  0.18637156669E+03  0.80440398791E+02 0.  0.
          6    2    1    2  501    0  0.30952953270E+01  0.12777358387E+03  0.38684447686E+02  0.21738353367E+03  0.17153263431E+03 0.  0.
         24    2    5    5    0    0  0.93019176306E+01  0.11799447912E+02 -0.26227234142E+02  0.84251498429E+02  0.78642828880E+02 0.  0.
          5    1    5    5  501    0 -0.62066223037E+01  0.11597413595E+03  0.64911681828E+02  0.13313203525E+03  0.47000000000E+01 0. -1.
        -13    1    6    6    0    0 -0.64694615806E+01  0.13345753548E+02  0.25857723088E+02  0.29809141454E+02  0.00000000000E+00 0.  1.
         14    1    6    6    0    0  0.15771379211E+02 -0.15463056356E+01 -0.52084957230E+02  0.54442356975E+02  0.00000000000E+00 0. -1.
         -5    1    3    3    0  503 -0.66983412130E+02 -0.34090060459E+02 -0.60598477097E+02  0.96660101123E+02  0.47000000000E+01 0.  1.
         13    1    4    4    0    0  0.30809508654E+02 -0.12479347935E+01 -0.64551439219E+02  0.71537902331E+02  0.00000000000E+00 0. -1.
        -14    1    4    4    0    0  0.33078608150E+02 -0.92435588614E+02 -0.59567089158E+02  0.11483366436E+03  0.00000000000E+00 0.  1.
</event>
<event>
12    1  0.8053217E-002  0.2074812E+03  0.7818608E-02  0.1143651E+00
         21   -1    0    0  503  502  0.00000000000E+00  0.00000000000E+00  0.54025886177E+02  0.54025886177E+02  0.00000000000E+00 0. -1.
         21   -1    0    0  501  503 -0.00000000000E+00 -0.00000000000E+00 -0.86365877859E+03  0.86365877859E+03  0.00000000000E+00 0. -1.
          6    2    1    2  501    0  0.70929495538E+02 -0.93473379277E+02 -0.53416092151E+03  0.57304131141E+03  0.17111454802E+03 0.  0.
         24    2    3    3    0    0  0.81898463800E+01 -0.80604250367E+02 -0.17503434430E+03  0.20821824948E+03  0.78445515951E+02 0.  0.
         -6    2    1    2    0  502 -0.70929495538E+02  0.93473379277E+02 -0.27547197091E+03  0.34464335336E+03  0.17066331852E+03 0.  0.
        -24    2    5    5    0    0 -0.10440305028E+03  0.63746656017E+02 -0.14331209937E+03  0.20502788649E+03  0.80835903861E+02 0.  0.
          5    1    3    3  501    0  0.62739649158E+02 -0.12869128911E+02 -0.35912657721E+03  0.36482306192E+03  0.47000000000E+01 0. -1.
        -11    1    4    4    0    0 -0.35108010085E+01  0.10568617404E+02 -0.59724077583E+02  0.60753492415E+02  0.00000000000E+00 0.  1.
         12    1    4    4    0    0  0.11700647389E+02 -0.91172867771E+02 -0.11531026672E+03  0.14746475707E+03  0.00000000000E+00 0. -1.
         -5    1    5    5    0  502  0.33473554745E+02  0.29726723261E+02 -0.13215987154E+03  0.13961546687E+03  0.47000000000E+01 0.  1.
         13    1    6    6    0    0 -0.62054769003E+02  0.62723845118E+02 -0.13588974461E+03  0.16202190529E+03  0.00000000000E+00 0. -1.
        -14    1    6    6    0    0 -0.42348281280E+02  0.10228108984E+01 -0.74223547589E+01  0.43005981208E+02  0.00000000000E+00 0.  1.
</event>
<event>
12    1  0.8053217E-002  0.1796848E+03  0.7818608E-02  0.1168658E+00
         21   -1    0    0  503  502  0.00000000000E+00  0.00000000000E+00  0.42824047772E+03  0.42824047772E+03  0.00000000000E+00 0. -1.
         21   -1    0    0  501  503 -0.00000000000E+00 -0.00000000000E+00 -0.17935995440E+03  0.17935995440E+03  0.00000000000E+00 0. -1.
          6    2    1    2  501    0 -0.31980104779E+01 -0.41263989420E+02 -0.10822543032E+03  0.20783638506E+03  0.17254064766E+03 0.  0.
         24    2    3    3    0    0 -0.60393498324E+02  0.67888227617E+01 -0.33283903418E+02  0.10191793038E+03  0.74739437729E+02 0.  0.
         -6    2    1    2    0  502  0.31980104779E+01  0.41263989420E+02  0.35710595364E+03  0.39976404705E+03  0.17485333025E+03 0.  0.
        -24    2    5    5    0    0  0.13583508973E+02 -0.15556860228E+02  0.78095682611E+02  0.11479863008E+03  0.81567531585E+02 0.  0.
          5    1    3    3  501    0  0.57195487847E+02 -0.48052812181E+02 -0.74941526900E+02  0.10591845468E+03  0.47000000000E+01 0. -1.
        -11    1    4    4    0    0 -0.57485445607E+01  0.25354664614E+02  0.11928476862E+02  0.28604079124E+02  0.00000000000E+00 0.  1.
         12    1    4    4    0    0 -0.54644953764E+02 -0.18565841852E+02 -0.45212380281E+02  0.73313851257E+02  0.00000000000E+00 0. -1.
         -5    1    5    5    0  502 -0.10385498495E+02  0.56820849648E+02  0.27901027103E+03  0.28496541698E+03  0.47000000000E+01 0.  1.
         13    1    6    6    0    0 -0.22957108152E+02  0.20638056213E+02  0.18140565393E+02  0.35805562301E+02  0.00000000000E+00 0. -1.
        -14    1    6    6    0    0  0.36540617125E+02 -0.36194916440E+02  0.59955117218E+02  0.78993067776E+02  0.00000000000E+00 0.  1.
</event>
<event>
12    1  0.8053217E-002  0.2234263E+03  0.7818608E-02  0.1131420E+00
         21   -1    0    0  503  502  0.00000000000E+00  0.00000000000E+00  0.34593393595E+03  0.34593393595E+03  0.00000000000E+00 0. -1.
         21   -1    0    0  501  503 -0.00000000000E+00 -0.00000000000E+00 -0.15437608196E+03  0.15437608196E+03  0.00000000000E+00 0. -1.
          6    2    1    2  501    0  0.11513415443E+03  0.84835790402E+02  0.31215338324E+02  0.22559631649E+03  0.17165755392E+03 0.  0.
         24    2    3    3    0    0  0.55285316190E+02  0.36033457085E+02  0.82842891319E+02  0.13258532034E+03  0.79756167867E+02 0.  0.
         -6    2    1    2    0  502 -0.11513415443E+03 -0.84835790402E+02  0.16034251566E+03  0.27471370142E+03  0.17118677101E+03 0.  0.
        -24    2    5    5    0    0 -0.54067103553E+02  0.11983213758E+02  0.29906857130E+02  0.10110881875E+03  0.79131056022E+02 0.  0.
          5    1    3    3  501    0  0.59848838245E+02  0.48802333317E+02 -0.51627552995E+02  0.93010996150E+02  0.47000000000E+01 0. -1.
        -11    1    4    4    0    0 -0.27166552981E+01 -0.11180110595E+02  0.49289845162E+02  0.50614858738E+02  0.00000000000E+00 0.  1.
         12    1    4    4    0    0  0.58001971488E+02  0.47213567680E+02  0.33553046157E+02  0.81970461606E+02  0.00000000000E+00 0. -1.
         -5    1    5    5    0  502 -0.61067050882E+02 -0.96819004160E+02  0.13043565853E+03  0.17360488267E+03  0.47000000000E+01 0.  1.
         13    1    6    6    0    0 -0.63662893928E+02  0.47477482245E+00  0.46434868914E+02  0.78799660694E+02  0.00000000000E+00 0. -1.
        -14    1    6    6    0    0  0.95957903752E+01  0.11508438936E+02 -0.16528011784E+02  0.22309158056E+02  0.00000000000E+00 0.  1.
</event>
<event>
12    1  0.8053217E-002  0.1943062E+03  0.7818608E-02  0.1156661E+00
         21   -1    0    0  501  502  0.00000000000E+00  0.00000000000E+00  0.21990942627E+03  0.21990942627E+03  0.00000000000E+00 0.  1.
         21   -1    0    0  502  503 -0.00000000000E+00 -0.00000000000E+00 -0.19695463240E+03  0.19695463240E+03  0.00000000000E+00 0.  1.
         -6    2    1    2    0  503 -0.65363818547E+02 -0.31343954530E+01  0.97199034420E+02  0.21726149534E+03  0.18295532748E+03 0.  0.
        -24    2    3    3    0    0 -0.27785502747E+02 -0.73056713120E+02  0.76432035993E+02  0.13507500892E+03  0.79335265883E+02 0.  0.
          6    2    1    2  501    0  0.65363818547E+02  0.31343954530E+01 -0.74244240547E+02  0.19960256334E+03  0.17333990546E+03 0.  0.
         24    2    5    5    0    0  0.14297545129E+01  0.28277645755E+02  0.16900806394E+02  0.85369218108E+02  0.78743867674E+02 0.  0.
          5    1    5    5  501    0  0.63934064034E+02 -0.25143250302E+02 -0.91145046942E+02  0.11423334523E+03  0.47000000000E+01 0. -1.
        -13    1    6    6    0    0  0.38049368734E+02  0.11154169980E+02  0.20766320089E+02  0.44759468485E+02  0.00000000000E+00 0.  1.
         14    1    6    6    0    0 -0.36619614221E+02  0.17123475775E+02 -0.38655136945E+01  0.40609749623E+02  0.00000000000E+00 0. -1.
         -5    1    3    3    0  503 -0.37578315800E+02  0.69922317667E+02  0.20766998427E+02  0.82186486420E+02  0.47000000000E+01 0.  1.
         13    1    4    4    0    0  0.25349879748E+02 -0.42828427581E+02  0.28165867146E+02  0.57185720983E+02  0.00000000000E+00 0. -1.
        -14    1    4    4    0    0 -0.53135382495E+02 -0.30228285539E+02  0.48266168847E+02  0.77889287933E+02  0.00000000000E+00 0.  1.
</event>
<event>
12    1  0.8053217E-002  0.1931009E+03  0.7818608E-02  0.1156620E+00
         21   -1    0    0  501  502  0.00000000000E+00  0.00000000000E+00  0.95237816113E+02  0.95237816113E+02  0.00000000000E+00 0.  1.
         21   -1    0    0  502  503 -0.00000000000E+00 -0.00000000000E+00 -0.40686997896E+03  0.40686997896E+03  0.00000000000E+00 0.  1.
         -6    2    1    2    0  503 -0.27026941465E+02 -0.71610715620E+02 -0.93625994597E+02  0.21087827664E+03  0.17275783785E+03 0.  0.
        -24    2    3    3    0    0  0.51863381528E+02 -0.33255705431E+02 -0.46527599652E+02  0.11120311085E+03  0.80034755239E+02 0.  0.
          6    2    1    2  501    0  0.27026941465E+02  0.71610715620E+02 -0.21800616825E+03  0.29122951843E+03  0.17728336880E+03 0.  0.
         24    2    5    5    0    0  0.52234883113E+02  0.50350175375E+02 -0.53569915967E+02  0.12345341180E+03  0.84305313078E+02 0.  0.
          5    1    5    5  501    0 -0.25207941648E+02  0.21260540246E+02 -0.16443625228E+03  0.16777610664E+03  0.47000000000E+01 0. -1.
        -11    1    6    6    0    0  0.38518304958E+02  0.73581548883E+02 -0.47930395175E+02  0.95891745915E+02  0.00000000000E+00 0.  1.
         12    1    6    6    0    0  0.13716578155E+02 -0.23231373509E+02 -0.56395207925E+01  0.27561665881E+02  0.00000000000E+00 0. -1.
         -5    1    3    3    0  503 -0.78890322993E+02 -0.38355010189E+02 -0.47098394945E+02  0.99675165789E+02  0.47000000000E+01 0.  1.
         13    1    4    4    0    0  0.36024015690E+02  0.16740783887E+02 -0.43147335403E+02  0.58648751938E+02  0.00000000000E+00 0. -1.
        -14    1    4    4    0    0  0.15839365838E+02 -0.49996489318E+02 -0.33802642491E+01  0.52554358912E+02  0.00000000000E+00 0.  1.
</event>
<event>
12    1  0.8053217E-002  0.1854009E+03  0.7818608E-02  0.1162960E+00
         21   -1    0    0  503  502  0.00000000000E+00  0.00000000000E+00  0.43330316706E+02  0.43330316706E+02  0.00000000000E+00 0.  1.
         21   -1    0    0  501  503 -0.00000000000E+00 -0.00000000000E+00 -0.11105758431E+04  0.11105758431E+04  0.00000000000E+00 0.  1.
          6    2    1    2  501    0 -0.60878096901E+02 -0.33339100887E+02 -0.84327354328E+03  0.86315380565E+03  0.17060652122E+03 0.  0.
         24    2    3    3    0    0 -0.43395909941E+02 -0.68438170181E+02 -0.34313100869E+03  0.36145447693E+03  0.79645851340E+02 0.  0.
         -6    2    1    2    0  502  0.60878096901E+02  0.33339100887E+02 -0.22397198309E+03  0.29075235413E+03  0.17191813137E+03 0.  0.
        -24    2    5    5    0    0  0.17033434135E+02 -0.30225079676E+02 -0.18148950938E+03  0.20249358643E+03  0.82834275581E+02 0.  0.
          5    1    3    3  501    0 -0.17482186960E+02  0.35099069294E+02 -0.50014253459E+03  0.50169932872E+03  0.47000000000E+01 0. -1.
        -13    1    4    4    0    0 -0.14955073994E+02 -0.12882537891E+02 -0.24069244333E+03  0.24150044782E+03  0.00000000000E+00 0.  1.
         14    1    4    4    0    0 -0.28440835947E+02 -0.55555632290E+02 -0.10243856536E+03  0.11995402912E+03  0.00000000000E+00 0. -1.
         -5    1    5    5    0  502  0.43844662766E+02  0.63564180563E+02 -0.42482473714E+02  0.88258767703E+02  0.47000000000E+01 0.  1.
         13    1    6    6    0    0  0.32353186433E+02  0.17202640527E+02 -0.50909186032E+02  0.62724833487E+02  0.00000000000E+00 0. -1.
        -14    1    6    6    0    0 -0.15319752298E+02 -0.47427720203E+02 -0.13058032335E+03  0.13976875294E+03  0.00000000000E+00 0.  1.
</event>
<event>
12    1  0.8053217E-002  0.2163210E+03  0.7818608E-02  0.1136769E+00
         21   -1    0    0  501  502  0.00000000000E+00  0.00000000000E+00  0.47863004849E+03  0.47863004849E+03  0.00000000000E+00 0. -1.
         21   -1    0    0  502  503 -0.00000000000E+00 -0.00000000000E+00 -0.97990137988E+02  0.97990137988E+02  0.00000000000E+00 0.  1.
         -6    2    1    2    0  503 -0.29558008630E+02 -0.12745198487E+03  0.17021636190E+03  0.27526054770E+03  0.17227035421E+03 0.  0.
        -24    2    3    3    0    0 -0.78012530203E+02 -0.52383073220E+02  0.11787045268E+03  0.17160068870E+03  0.81996411607E+02 0.  0.
          6    2    1    2  501    0  0.29558008630E+02  0.12745198487E+03  0.21042354860E+03  0.30135963878E+03  0.17152806697E+03 0.  0.
         24    2    5    5    0    0 -0.88476302206E+01  0.87003556548E+02  0.46976055000E+02  0.12859320219E+03  0.81740825129E+02 0.  0.
          5    1    5    5  501    0  0.38405638851E+02  0.40448428318E+02  0.16344749360E+03  0.17276643659E+03  0.47000000000E+01 0. -1.
        -11    1    6    6    0    0 -0.37632302608E+02  0.12942744823E+02  0.10468125290E+02  0.41149562455E+02  0.00000000000E+00 0.  1.
         12    1    6    6    0    0  0.28784672388E+02  0.74060811725E+02  0.36507929710E+02  0.87443639732E+02  0.00000000000E+00 0. -1.
         -5    1    3    3    0  503  0.48454521573E+02 -0.75068911646E+02  0.52345909222E+02  0.10365985900E+03  0.47000000000E+01 0.  1.
         11    1    4    4    0    0 -0.54056517427E+02 -0.74456339908E+02  0.90412436647E+02  0.12899714078E+03  0.00000000000E+00 0. -1.
        -12    1    4    4    0    0 -0.23956012776E+02  0.22073266688E+02  0.27458016035E+02  0.42603547916E+02  0.00000000000E+00 0.  1.
</event>
<event>
12    1  0.8053217E-002  0.2309248E+03  0.7818608E-02  0.1126260E+00
         21   -1    0    0  501  502  0.00000000000E+00  0.00000000000E+00  0.30646927505E+03  0.30646927505E+03  0.00000000000E+00 0.  1.
         21   -1    0    0  502  503 -0.00000000000E+00 -0.00000000000E+00 -0.60757408934E+03  0.60757408934E+03  0.00000000000E+00 0. -1.
         -6    2    1    2    0  503  0.88785351462E+02 -0.12444578521E+03 -0.53699463545E+03  0.58393689227E+03  0.17102474546E+03 0.  0.
        -24    2    3    3    0    0  0.29098893300E+02  0.62508012262E+01 -0.17145379874E+03  0.19114398972E+03  0.79080981245E+02 0.  0.
          6    2    1    2  501    0 -0.88785351462E+02  0.12444578521E+03  0.23588982115E+03  0.33010647212E+03  0.17307999052E+03 0.  0.
         24    2    5    5    0    0 -0.37978223444E+02  0.14950126634E+03  0.16556190808E+03  0.23967834182E+03  0.79006253155E+02 0.  0.
          5    1    5    5  501    0 -0.50807128018E+02 -0.25055481128E+02  0.70327913070E+02  0.90428130295E+02  0.47000000000E+01 0. -1.
        -11    1    6    6    0    0 -0.36063426357E+01  0.13440697881E+03  0.14091770534E+03  0.19477176730E+03  0.00000000000E+00 0.  1.
         12    1    6    6    0    0 -0.34371880809E+02  0.15094287531E+02  0.24644202746E+02  0.44906574523E+02  0.00000000000E+00 0. -1.
         -5    1    3    3    0  503  0.59686458163E+02 -0.13069658644E+03 -0.36554083671E+03  0.39279290255E+03  0.47000000000E+01 0.  1.
         11    1    4    4    0    0  0.30219399181E+02  0.10236160252E+02 -0.17938338773E+03  0.18219876745E+03  0.00000000000E+00 0. -1.
        -12    1    4    4    0    0 -0.11205058809E+01 -0.39853590257E+01  0.79295889896E+01  0.89452222743E+01  0.00000000000E+00 0.  1.
</event>
<event>
12    1  0.8053217E-002  0.1746675E+03  0.7818608E-02  0.1173289E+00
         21   -1    0    0  501  502  0.00000000000E+00  0.00000000000E+00  0.67568513192E+03  0.67568513192E+03  0.00000000000E+00 0. -1.
         21   -1    0    0  502  503 -0.00000000000E+00 -0.00000000000E+00 -0.47327600431E+02  0.47327600431E+02  0.00000000000E+00 0. -1.
         -6    2    1    2    0  503  0.14036709833E+02 -0.21928886741E+02  0.23195277294E+03  0.28983207972E+03  0.17182153609E+03 0.  0.
        -24    2    3    3    0    0  0.72361444384E+02 -0.32386626449E+02  0.16794692419E+03  0.20248233642E+03  0.80671277491E+02 0.  0.
          6    2    1    2  501    0 -0.14036709833E+02  0.21928886741E+02  0.39640475855E+03  0.43318065263E+03  0.17271606734E+03 0.  0.
         24    2    5    5    0    0  0.96062732548E+01  0.59018602260E+02  0.36693654320E+03  0.38002895122E+03  0.78766116674E+02 0.  0.
          5    1    5    5  501    0 -0.23642983088E+02 -0.37089715519E+02  0.29468215358E+02  0.53151701412E+02  0.47000000000E+01 0. -1.
        -11    1    6    6    0    0  0.14574397222E+02 -0.61923610149E+01  0.14164686447E+02  0.21246099206E+02  0.00000000000E+00 0.  1.
         12    1    6    6    0    0 -0.49681239672E+01  0.65210963275E+02  0.35277185675E+03  0.35878285202E+03  0.00000000000E+00 0. -1.
         -5    1    3    3    0  503 -0.58324734550E+02  0.10457739709E+02  0.64005848753E+02  0.87349743301E+02  0.47000000000E+01 0.  1.
         11    1    4    4    0    0  0.41750075977E+02  0.20603286507E+02  0.43102547204E+02  0.63445991477E+02  0.00000000000E+00 0. -1.
        -12    1    4    4    0    0  0.30611368407E+02 -0.52989912957E+02  0.12484437698E+03  0.13903634494E+03  0.00000000000E+00 0.  1.
</event>
<event>
12    1  0.8053217E-002  0.1723551E+03  0.7818608E-02  0.1176315E+00
         21   -1    0    0  501  502  0.00000000000E+00  0.00000000000E+00  0.66032831216E+03  0.66032831216E+03  0.00000000000E+00 0.  1.
         21   -1    0    0  502  503 -0.00000000000E+00 -0.00000000000E+00 -0.44083522631E+02  0.44083522631E+02  0.00000000000E+00 0.  1.
         -6    2    1    2    0  503  0.40045004571E+01 -0.95918147107E+01  0.31236940180E+03  0.35676452759E+03  0.17204140790E+03 0.  0.
        -24    2    3    3    0    0  0.25361071323E+02 -0.39983187671E+02  0.30469519239E+03  0.31854513252E+03  0.79937487764E+02 0.  0.
          6    2    1    2  501    0 -0.40045004571E+01  0.95918147107E+01  0.30387538772E+03  0.34764730719E+03  0.16855373032E+03 0.  0.
         24    2    5    5    0    0  0.53282571559E+02 -0.29720939716E+02  0.16439292355E+03  0.19174750253E+03  0.77586756129E+02 0.  0.
          5    1    5    5  501    0 -0.57287072016E+02  0.39312754427E+02  0.13948246417E+03  0.15589980466E+03  0.47000000000E+01 0. -1.
        -11    1    6    6    0    0 -0.14328452512E+02  0.10317318123E+02  0.49497723112E+02  0.52552604102E+02  0.00000000000E+00 0.  1.
         12    1    6    6    0    0  0.67611024071E+02 -0.40038257839E+02  0.11489520043E+03  0.13919489843E+03  0.00000000000E+00 0. -1.
         -5    1    3    3    0  503 -0.21356570866E+02  0.30391372960E+02  0.76742094104E+01  0.38219395072E+02  0.47000000000E+01 0.  1.
         11    1    4    4    0    0  0.40103084840E+02 -0.57312323547E+02  0.22042577032E+03  0.23125847026E+03  0.00000000000E+00 0. -1.
        -12    1    4    4    0    0 -0.14742013517E+02  0.17329135876E+02  0.84269422069E+02  0.87286662260E+02  0.00000000000E+00 0.  1.
</event>
<event>
12    1  0.8053217E-002  0.1806948E+03  0.7818608E-02  0.1167546E+00
         21   -1    0    0  503  502  0.00000000000E+00  0.00000000000E+00  0.22136777633E+04  0.22136777633E+04  0.00000000000E+00 0. -1.
         21   -1    0    0  501  503 -0.00000000000E+00 -0.00000000000E+00 -0.20928469511E+02  0.20928469511E+02  0.00000000000E+00 0. -1.
          6    2    1    2  501    0 -0.51568655966E+02  0.87253055314E+01  0.47883615847E+03  0.51119425335E+03  0.17117254677E+03 0.  0.
         24    2    3    3    0    0 -0.83010286428E-01 -0.30714232470E+02  0.40131270343E+03  0.41001013924E+03  0.78186043325E+02 0.  0.
         -6    2    1    2    0  502  0.51568655966E+02 -0.87253055314E+01  0.17139131353E+04  0.17234119795E+04  0.17295999043E+03 0.  0.
        -24    2    5    5    0    0 -0.53847008070E+01  0.10878424561E+02  0.14689782095E+04  0.14711359422E+04  0.78718773924E+02 0.  0.
          5    1    3    3  501    0 -0.51485645679E+02  0.39439538002E+02  0.77523455030E+02  0.10118411411E+03  0.47000000000E+01 0. -1.
        -13    1    4    4    0    0  0.26700149822E+02  0.15280723092E+02  0.15064631383E+03  0.15375535883E+03  0.00000000000E+00 0.  1.
         14    1    4    4    0    0 -0.26783160108E+02 -0.45994955562E+02  0.25066638961E+03  0.25625478041E+03  0.00000000000E+00 0. -1.
         -5    1    5    5    0  502  0.56953356773E+02 -0.19603730092E+02  0.24493492581E+03  0.25227603724E+03  0.47000000000E+01 0.  1.
         11    1    6    6    0    0  0.34030328393E+02  0.16751958436E+02  0.87555420041E+03  0.87637540427E+03  0.00000000000E+00 0. -1.
        -12    1    6    6    0    0 -0.39415029200E+02 -0.58735338754E+01  0.59342400912E+03  0.59476053797E+03  0.00000000000E+00 0.  1.
</event>
<event>
12    1  0.8053217E-002  0.2317098E+03  0.7818608E-02  0.1125445E+00
         21   -1    0    0  503  502  0.00000000000E+00  0.00000000000E+00  0.37241059828E+03  0.37241059828E+03  0.00000000000E+00 0.  1.
         21   -1    0    0  501  503 -0.00000000000E+00 -0.00000000000E+00 -0.19988667702E+03  0.19988667702E+03  0.00000000000E+00 0.  1.
          6    2    1    2  501    0  0.41055588639E+02  0.15044903373E+03 -0.64828808932E+02  0.24060794765E+03  0.17137367621E+03 0.  0.
         24    2    3    3    0    0 -0.41094434137E+02  0.72317956394E+02 -0.16685363575E+02  0.11734816987E+03  0.81077446187E+02 0.  0.
         -6    2    1    2    0  502 -0.41055588639E+02 -0.15044903373E+03  0.23735273019E+03  0.33168932765E+03  0.17135057176E+03 0.  0.
        -24    2    5    5    0    0 -0.45754469561E+02 -0.74321350544E+02  0.46520573899E+02  0.12612545558E+03  0.78270889331E+02 0.  0.
          5    1    3    3  501    0  0.82150022776E+02  0.78131077335E+02 -0.48143445357E+02  0.12325977778E+03  0.47000000000E+01 0. -1.
        -11    1    4    4    0    0 -0.24012261255E+02  0.76158978701E+02  0.14901588032E+02  0.81233220133E+02  0.00000000000E+00 0.  1.
         12    1    4    4    0    0 -0.17082172882E+02 -0.38410223063E+01 -0.31586951607E+02  0.36114949737E+02  0.00000000000E+00 0. -1.
         -5    1    5    5    0  502  0.46988809218E+01 -0.76127683186E+02  0.19083215629E+03  0.20556387208E+03  0.47000000000E+01 0.  1.
         11    1    6    6    0    0  0.17643907628E+02 -0.40691216225E+01  0.21763665439E+02  0.28311170242E+02  0.00000000000E+00 0. -1.
        -12    1    6    6    0    0 -0.63398377189E+02 -0.70252228921E+02  0.24756908460E+02  0.97814285333E+02  0.00000000000E+00 0.  1.
</event>
<event>
12    1  0.8053217E-002  0.2525920E+03  0.7818608E-02  0.1111994E+00
         21   -1    0    0  503  502  0.00000000000E+00  0.00000000000E+00  0.22486702379E+03  0.22486702379E+03  0.00000000000E+00 0. -1.
         21   -1    0    0  501  503 -0.00000000000E+00 -0.00000000000E+00 -0.61035971070E+03  0.61035971070E+03  0.00000000000E+00 0.  1.
          6    2    1    2  501    0  0.17410871004E+03 -0.63163155378E+02 -0.49894238911E+03  0.55832686409E+03  0.16876596931E+03 0.  0.
         24    2    3    3    0    0  0.11710072248E+03 -0.48373479200E+02 -0.17780575286E+03  0.23180048795E+03  0.77871739220E+02 0.  0.
         -6    2    1    2    0  502 -0.17410871004E+03  0.63163155378E+02  0.11344970220E+03  0.27689987040E+03  0.17175353327E+03 0.  0.
        -24    2    5    5    0    0 -0.91445843698E+02  0.42623125311E+02  0.13695068053E+03  0.18841581370E+03  0.81030591847E+02 0.  0.
          5    1    3    3  501    0  0.57007987561E+02 -0.14789676178E+02 -0.32113663625E+03  0.32652637613E+03  0.47000000000E+01 0. -1.
        -13    1    4    4    0    0  0.85582277406E+02 -0.29089592009E+02 -0.17212600309E+03  0.19441679843E+03  0.00000000000E+00 0.  1.
         14    1    4    4    0    0  0.31518445078E+02 -0.19283887191E+02 -0.56797497675E+01  0.37383689528E+02  0.00000000000E+00 0. -1.
         -5    1    5    5    0  502 -0.82662866346E+02  0.20540030068E+02 -0.23500978332E+02  0.88484056701E+02  0.47000000000E+01 0.  1.
         11    1    6    6    0    0 -0.60868110384E+02 -0.61870338097E+01  0.10758452129E+03  0.12376443540E+03  0.00000000000E+00 0. -1.
        -12    1    6    6    0    0 -0.30577733314E+02  0.48810159120E+02  0.29366159243E+02  0.64651378304E+02  0.00000000000E+00 0.  1.
</event>
<event>
12    1  0.8053217E-002  0.2084915E+03  0.7818608E-02  0.1142934E+00
         21   -1    0    0  503  502  0.00000000000E+00  0.00000000000E+00  0.83337190019E+02  0.83337190019E+02  0.00000000000E+00 0. -1.
         21   -1    0    0  501  503 -0.00000000000E+00 -0.00000000000E+00 -0.59955774734E+03  0.59955774734E+03  0.00000000000E+00 0. -1.
          6    2    1    2  501    0 -0.11655623378E+03 -0.92599793354E+01 -0.13288880472E+03  0.24653275134E+03  0.17160378845E+03 0.  0.
         24    2    3    3    0    0 -0.76587032023E+02 -0.49573181844E+01 -0.19059417568E+01  0.10943916880E+03  0.77994554788E+02 0.  0.
         -6    2    1    2    0  502  0.11655623378E+03  0.92599793354E+01 -0.38333175261E+03  0.43636218603E+03  0.17261987715E+03 0.  0.
        -24    2    5    5    0    0  0.88618643379E+02 -0.55135524261E+02 -0.19010904307E+03  0.23073048779E+03  0.78752268204E+02 0.  0.
          5    1    3    3  501    0 -0.39969201758E+02 -0.43026611509E+01 -0.13098286296E+03  0.13709358253E+03  0.47000000000E+01 0. -1.
        -11    1    4    4    0    0 -0.43218153059E+02 -0.41437861228E+02  0.13814411088E+01  0.59890011492E+02  0.00000000000E+00 0.  1.
         12    1    4    4    0    0 -0.33368878964E+02  0.36480543044E+02 -0.32873828655E+01  0.49549157311E+02  0.00000000000E+00 0. -1.
         -5    1    5    5    0  502  0.27937590402E+02  0.64395503597E+02 -0.19322270954E+03  0.20563169824E+03  0.47000000000E+01 0.  1.
         13    1    6    6    0    0  0.51937864395E+02 -0.49699499574E+02 -0.17759869067E+03  0.19159560784E+03  0.00000000000E+00 0. -1.
        -14    1    6    6    0    0  0.36680778984E+02 -0.54360246871E+01 -0.12510352401E+02  0.39134879947E+02  0.00000000000E+00 0.  1.
</event>
<event>
12    1  0.8053217E-002  0.1829289E+03  0.7818608E-02  0.1165544E+00
         21   -1    0    0  501  502  0.00000000000E+00  0.00000000000E+00  0.52136394477E+03  0.52136394477E+03  0.00000000000E+00 0.  1.
         21   -1    0    0  502  503 -0.00000000000E+00 -0.00000000000E+00 -0.63858543662E+02  0.63858543662E+02  0.00000000000E+00 0.  1.
         -6    2    1    2    0  503 -0.55100870333E+02  0.87478190946E+01  0.20207019364E+03  0.27104081666E+03  0.17180841332E+03 0.  0.
        -24    2    3    3    0    0 -0.25427363986E+02 -0.52128056553E+02  0.12715184153E+03  0.16994067473E+03  0.96686901929E+02 0.  0.
          6    2    1    2  501    0  0.55100870333E+02 -0.87478190946E+01  0.25543520746E+03  0.31418167176E+03  0.17421351100E+03 0.  0.
         24    2    5    5    0    0  0.55626621123E+01 -0.49007988318E+02  0.64569930428E+02  0.11286957755E+03  0.78342450134E+02 0.  0.
          5    1    5    5  501    0  0.49538208221E+02  0.40260169223E+02  0.19086527703E+03  0.20131209421E+03  0.47000000000E+01 0. -1.
        -11    1    6    6    0    0  0.12820726107E+02 -0.29235026727E+01 -0.15422158646E+02  0.20267236198E+02  0.00000000000E+00 0.  1.
         12    1    6    6    0    0 -0.72580639952E+01 -0.46084485645E+02  0.79992089075E+02  0.92602341356E+02  0.00000000000E+00 0. -1.
         -5    1    3    3    0  503 -0.29673506348E+02  0.60875875648E+02  0.74918352112E+02  0.10110014193E+03  0.47000000000E+01 0.  1.
         13    1    4    4    0    0  0.37042993796E+02 -0.14267244538E+02  0.43992379233E+02  0.59254257962E+02  0.00000000000E+00 0. -1.
        -14    1    4    4    0    0 -0.62470357781E+02 -0.37860812015E+02  0.83159462300E+02  0.11068641677E+03  0.00000000000E+00 0.  1.
</event>
<event>
12    1  0.8053217E-002  0.2170297E+03  0.7818608E-02  0.1136198E+00
         21   -1    0    0  501  502  0.00000000000E+00  0.00000000000E+00  0.22171013938E+03  0.22171013938E+03  0.00000000000E+00 0.  1.
         21   -1    0    0  502  503 -0.00000000000E+00 -0.00000000000E+00 -0.99014838830E+03  0.99014838830E+03  0.00000000000E+00 0.  1.
         -6    2    1    2    0  503  0.12650203452E+03 -0.36487589278E+02 -0.92128629708E+03  0.94640721156E+03  0.17200017445E+03 0.  0.
        -24    2    3    3    0    0  0.43938548748E+02 -0.69505829676E+01 -0.19302702523E+03  0.21287274001E+03  0.77951679273E+02 0.  0.
          6    2    1    2  501    0 -0.12650203452E+03  0.36487589278E+02  0.15284804815E+03  0.26545131612E+03  0.17253337792E+03 0.  0.
         24    2    5    5    0    0 -0.10019206826E+03 -0.10604114159E+01  0.17168978181E+03  0.21566007585E+03  0.83620046187E+02 0.  0.
          5    1    5    5  501    0 -0.26309966260E+02  0.37548000694E+02 -0.18841733653E+02  0.49791240271E+02  0.47000000000E+01 0. -1.
        -13    1    6    6    0    0 -0.94969462798E+02  0.19437869690E+02  0.93583679101E+02  0.13474024876E+03  0.00000000000E+00 0.  1.
         14    1    6    6    0    0 -0.52226054609E+01 -0.20498281105E+02  0.78106102707E+02  0.80919827089E+02  0.00000000000E+00 0. -1.
         -5    1    3    3    0  503  0.82563485771E+02 -0.29537006310E+02 -0.72825927184E+03  0.73353447155E+03  0.47000000000E+01 0.  1.
         13    1    4    4    0    0 -0.86294750338E+01  0.19499261891E+02 -0.10393740565E+03  0.10610218352E+03  0.00000000000E+00 0. -1.
        -14    1    4    4    0    0  0.52568023782E+02 -0.26449844859E+02 -0.89089619578E+02  0.10677055649E+03  0.00000000000E+00 0.  1.
</event>
<event>
12    1  0.8053217E-002  0.1792951E+03  0.7818608E-02  0.1168720E+00
         21   -1    0    0  503  502  0.00000000000E+00  0.00000000000E+00  0.75031624708E+02  0.75031624708E+02  0.00000000000E+00 0.  1.
         21   -1    0    0  501  503 -0.00000000000E+00 -0.00000000000E+00 -0.44467438763E+03  0.44467438763E+03  0.00000000000E+00 0.  1.
          6    2    1    2  501    0  0.38598207522E+02  0.20617839968E+02 -0.23736445099E+03  0.29689602869E+03  0.17288855459E+03 0.  0.
         24    2    3    3    0    0  0.45651262936E+02  0.16329829733E+02 -0.43220128730E+02  0.10251948564E+03  0.79319381371E+02 0.  0.
         -6    2    1    2    0  502 -0.38598207522E+02 -0.20617839968E+02 -0.13227831193E+03  0.22280998365E+03  0.17387299980E+03 0.  0.
        -24    2    5    5    0    0 -0.31878460522E+02 -0.24531424448E+01 -0.16490196133E+03  0.18458036509E+03  0.76517972880E+02 0.  0.
          5    1    3    3  501    0 -0.70530554138E+01  0.42880102345E+01 -0.19414432226E+03  0.19437654305E+03  0.47000000000E+01 0. -1.
        -13    1    4    4    0    0  0.14566245172E+02  0.42511536676E+02 -0.25298261925E+01  0.45008957658E+02  0.00000000000E+00 0.  1.
         14    1    4    4    0    0  0.31085017765E+02 -0.26181706943E+02 -0.40690302537E+02  0.57510527979E+02  0.00000000000E+00 0. -1.
         -5    1    5    5    0  502 -0.67197470009E+01 -0.18164697523E+02  0.32623649393E+02  0.38229618564E+02  0.47000000000E+01 0.  1.
         11    1    6    6    0    0  0.22119652056E+02 -0.31169612684E+01 -0.20151038492E+02  0.30084195301E+02  0.00000000000E+00 0. -1.
        -12    1    6    6    0    0 -0.53998112577E+02  0.66381882361E+00 -0.14475092283E+03  0.15449616979E+03  0.00000000000E+00 0.  1.
</event>
<event>
12    1  0.8053217E-002  0.1757650E+03  0.7818608E-02  0.1172067E+00
         21   -1    0    0  501  502  0.00000000000E+00  0.00000000000E+00  0.12671266220E+03  0.12671266220E+03  0.00000000000E+00 0.  1.
         21   -1    0    0  502  503 -0.00000000000E+00 -0.00000000000E+00 -0.25387237265E+03  0.25387237265E+03  0.00000000000E+00 0. -1.
         -6    2    1    2    0  503  0.21184647409E+02  0.29802585930E+02 -0.24579265139E+02  0.17707558471E+03  0.17150696491E+03 0.  0.
        -24    2    3    3    0    0  0.30867462706E+02  0.23057001325E+01 -0.77924748087E+02  0.11610291713E+03  0.80308807082E+02 0.  0.
          6    2    1    2  501    0 -0.21184647409E+02 -0.29802585930E+02 -0.10258044531E+03  0.20350945014E+03  0.17191964728E+03 0.  0.
         24    2    5    5    0    0 -0.53362777111E+02 -0.72405548645E+02 -0.83435848083E+02  0.14659679718E+03  0.80242948245E+02 0.  0.
          5    1    5    5  501    0  0.32178129702E+02  0.42602962715E+02 -0.19144597227E+02  0.56912652954E+02  0.47000000000E+01 0. -1.
        -13    1    6    6    0    0 -0.31405459613E+02 -0.46629416953E+02  0.35771021304E+00  0.56220399994E+02  0.00000000000E+00 0.  1.
         14    1    6    6    0    0 -0.21957317498E+02 -0.25776131692E+02 -0.83793558296E+02  0.90376397188E+02  0.00000000000E+00 0. -1.
         -5    1    3    3    0  503 -0.96828152969E+01  0.27496885798E+02  0.53345482947E+02  0.60972667578E+02  0.47000000000E+01 0.  1.
         11    1    4    4    0    0  0.22333527786E+02 -0.30347427750E+02 -0.80869915507E+01  0.38537673344E+02  0.00000000000E+00 0. -1.
        -12    1    4    4    0    0  0.85339349194E+01  0.32653127883E+02 -0.69837756536E+02  0.77565243787E+02  0.00000000000E+00 0.  1.
</event>
<event>
12    1  0.8053217E-002  0.1848252E+03  0.7818608E-02  0.1163324E+00
         21   -1    0    0  503  502  0.00000000000E+00  0.00000000000E+00  0.27944300722E+03  0.27944300722E+03  0.00000000000E+00 0.  1.
         21   -1    0    0  501  503 -0.00000000000E+00 -0.00000000000E+00 -0.13230854324E+03  0.13230854324E+03  0.00000000000E+00 0.  1.
          6    2    1    2  501    0  0.50950108882E+02 -0.43636279411E+02  0.15821545135E+02  0.18502827862E+03  0.17171227133E+03 0.  0.
         24    2    3    3    0    0  0.31317154871E+02  0.43574661024E+02 -0.24416779483E+01  0.93667256671E+02  0.76733812029E+02 0.  0.
         -6    2    1    2    0  502 -0.50950108882E+02  0.43636279411E+02  0.13131291884E+03  0.22672327184E+03  0.17222172007E+03 0.  0.
        -24    2    5    5    0    0 -0.71463593752E+02 -0.24705085027E+02  0.10207104338E+03  0.14946705892E+03  0.78768758691E+02 0.  0.
          5    1    3    3  501    0  0.19632954011E+02 -0.87210940436E+02  0.18263223083E+02  0.91361021953E+02  0.47000000000E+01 0. -1.
        -13    1    4    4    0    0  0.54674820984E+02  0.14971961511E+02 -0.54459096063E+00  0.56690318930E+02  0.00000000000E+00 0.  1.
         14    1    4    4    0    0 -0.23357666112E+02  0.28602699513E+02 -0.18970869876E+01  0.36976937741E+02  0.00000000000E+00 0. -1.
         -5    1    5    5    0  502  0.20513484869E+02  0.68341364439E+02  0.29241875459E+02  0.77256212923E+02  0.47000000000E+01 0.  1.
         13    1    6    6    0    0 -0.34426636522E+01 -0.36922342532E+01 -0.13116545870E+02  0.14054476240E+02  0.00000000000E+00 0. -1.
        -14    1    6    6    0    0 -0.68020930099E+02 -0.21012850774E+02  0.11518758925E+03  0.13541258268E+03  0.00000000000E+00 0.  1.
</event>
<event>
12    1  0.8053217E-002  0.2515039E+03  0.7818608E-02  0.1112736E+00
         21   -1    0    0  503  502  0.00000000000E+00  0.00000000000E+00  0.66703054968E+02  0.66703054968E+02  0.00000000000E+00 0. -1.
         21   -1    0    0  501  503 -0.00000000000E+00 -0.00000000000E+00 -0.97231243261E+03  0.97231243261E+03  0.00000000000E+00 0.  1.
          6    2    1    2  501    0  0.17960089975E+03  0.38109962010E+02 -0.35495659294E+03  0.43364561219E+03  0.16836116449E+03 0.  0.
         24    2    3    3    0    0  0.61091323404E+02  0.64944363073E+02 -0.12876603069E+03  0.17684050085E+03  0.82109390378E+02 0.  0.
         -6    2    1    2    0  502 -0.17960089975E+03 -0.38109962010E+02 -0.55065278471E+03  0.60536987539E+03  0.17188759212E+03 0.  0.
        -24    2    5    5    0    0 -0.87784015851E+02 -0.87062160494E+02 -0.32072442172E+03  0.35294998709E+03  0.80147897447E+02 0.  0.
          5    1    3    3  501    0  0.11850957635E+03 -0.26834401063E+02 -0.22619056224E+03  0.25680511135E+03  0.47000000000E+01 0. -1.
        -11    1    4    4    0    0  0.47630165329E+02  0.72141718568E+01 -0.99896859155E+02  0.11090563283E+03  0.00000000000E+00 0.  1.
         12    1    4    4    0    0  0.13461158075E+02  0.57730191216E+02 -0.28869171539E+02  0.65934868013E+02  0.00000000000E+00 0. -1.
         -5    1    5    5    0  502 -0.91816883902E+02  0.48952198485E+02 -0.22992836299E+03  0.25241988830E+03  0.47000000000E+01 0.  1.
         11    1    6    6    0    0 -0.88469980301E+02 -0.35861607821E+02 -0.19222260834E+03  0.21462181503E+03  0.00000000000E+00 0. -1.
        -12    1    6    6    0    0  0.68596445030E+00 -0.51200552673E+02 -0.12850181339E+03  0.13832817206E+03  0.00000000000E+00 0.  1.
</event>
<event>
12    1  0.8053217E-002  0.2483843E+03  0.7818608E-02  0.1115801E+00
         21   -1    0    0  503  502  0.00000000000E+00  0.00000000000E+00  0.16081560432E+03  0.16081560432E+03  0.00000000000E+00 0. -1.
         21   -1    0    0  501  503 -0.00000000000E+00 -0.00000000000E+00 -0.37593225764E+03  0.37593225764E+03  0.00000000000E+00 0.  1.
          6    2    1    2  501    0  0.70389621469E+02 -0.16124790324E+03 -0.14382176701E+03  0.28701821565E+03  0.17532589752E+03 0.  0.
         24    2    3    3    0    0 -0.33958196529E+02 -0.63340337994E+02 -0.74598804869E+02  0.12799536528E+03  0.75184269079E+02 0.  0.
         -6    2    1    2    0  502 -0.70389621469E+02  0.16124790324E+03 -0.71294886310E+02  0.24972964631E+03  0.16225396860E+03 0.  0.
        -24    2    5    5    0    0 -0.82627600922E-01  0.46372209284E+02 -0.74805792771E+02  0.11491898312E+03  0.73892336729E+02 0.  0.
          5    1    3    3  501    0  0.10434781800E+03 -0.97907565242E+02 -0.69222962143E+02  0.15902285037E+03  0.47000000000E+01 0. -1.
        -13    1    4    4    0    0  0.21517844541E+02 -0.24191060652E+02 -0.90462243660E+01  0.33616353527E+02  0.00000000000E+00 0.  1.
         14    1    4    4    0    0 -0.55476041069E+02 -0.39149277341E+02 -0.65552580503E+02  0.94379011754E+02  0.00000000000E+00 0. -1.
         -5    1    5    5    0  502 -0.70306993868E+02  0.11487569395E+03  0.35109064612E+01  0.13481066320E+03  0.47000000000E+01 0.  1.
         11    1    6    6    0    0 -0.36230464332E+02  0.14430594703E+02 -0.33731104096E+02  0.51562350535E+02  0.00000000000E+00 0. -1.
        -12    1    6    6    0    0  0.36147836731E+02  0.31941614581E+02 -0.41074688675E+02  0.63356632581E+02  0.00000000000E+00 0.  1.
</event>
<event>
12    1  0.8053217E-002  0.1800821E+03  0.7818608E-02  0.1168102E+00
         21   -1    0    0  501  502  0.00000000000E+00  0.00000000000E+00  0.38019701583E+03  0.38019701583E+03  0.00000000000E+00 0.  1.
         21   -1    0    0  502  503 -0.00000000000E+00 -0.00000000000E+00 -0.14640004239E+03  0.14640004239E+03  0.00000000000E+00 0.  1.
         -6    2    1    2    0  503 -0.48216461253E+02 -0.68583537746E+01 -0.53930690775E+02  0.18798428148E+03  0.17337158511E+03 0.  0.
        -24    2    3    3    0    0 -0.23708746134E+01 -0.64029485900E+02 -0.22058037325E+02  0.10793234708E+03  0.84008561619E+02 0.  0.
          6    2    1    2  501    0  0.48216461253E+02  0.68583537746E+01  0.28772766421E+03  0.33861277674E+03  0.17175430030E+03 0.  0.
         24    2    5    5    0    0  0.75123158832E+01  0.44781124053E+02  0.25424290863E+03  0.27351068145E+03  0.90038060362E+02 0.  0.
          5    1    5    5  501    0  0.40704145370E+02 -0.37922770278E+02  0.33484755574E+02  0.65102095294E+02  0.47000000000E+01 0. -1.
        -11    1    6    6    0    0 -0.28693117518E+02  0.31179066674E+00  0.27921611669E+02  0.40037589895E+02  0.00000000000E+00 0.  1.
         12    1    6    6    0    0  0.36205433402E+02  0.44469333386E+02  0.22632129696E+03  0.23347309155E+03  0.00000000000E+00 0. -1.
         -5    1    3    3    0  503 -0.45845586640E+02  0.57171132125E+02 -0.31872653450E+02  0.80051934397E+02  0.47000000000E+01 0.  1.
         13    1    4    4    0    0 -0.42129310485E+02 -0.42323662317E+02 -0.66531393528E+01  0.60086899213E+02  0.00000000000E+00 0. -1.
        -14    1    4    4    0    0  0.39758435871E+02 -0.21705823583E+02 -0.15404897972E+02  0.47845447870E+02  0.00000000000E+00 0.  1.
</event>
<event>
12    1  0.8053217E-002  0.1867078E+03  0.7818608E-02  0.1161907E+00
         21   -1    0    0  503  502  0.00000000000E+00  0.00000000000E+00  0.92229340228E+02  0.92229340228E+02  0.00000000000E+00 0. -1.
         21   -1    0    0  501  503 -0.00000000000E+00 -0.00000000000E+00 -0.38975154916E+03  0.38975154916E+03  0.00000000000E+00 0. -1.
          6    2    1    2  501    0  0.53294381569E+02  0.46211429101E+02 -0.10122388866E+03  0.21238195590E+03  0.17286998661E+03 0.  0.
         24    2    3    3    0    0  0.16729445351E+02  0.12513047787E+02  0.21045541024E+02  0.80304407090E+02  0.74628629187E+02 0.  0.
         -6    2    1    2    0  502 -0.53294381569E+02 -0.46211429101E+02 -0.19629832026E+03  0.26959893348E+03  0.17080622679E+03 0.  0.
        -24    2    5    5    0    0 -0.15122100525E+02  0.38165965536E+02 -0.72180887119E+02  0.11466702916E+03  0.79076723896E+02 0.  0.
          5    1    3    3  501    0  0.36564936218E+02  0.33698381314E+02 -0.12226942969E+03  0.13207754881E+03  0.47000000000E+01 0. -1.
        -13    1    4    4    0    0  0.96418716883E+01  0.30029057592E+02 -0.18437432324E+02  0.36532846867E+02  0.00000000000E+00 0.  1.
         14    1    4    4    0    0  0.70875736629E+01 -0.17516009805E+02  0.39482973348E+02  0.43771560223E+02  0.00000000000E+00 0. -1.
         -5    1    5    5    0  502 -0.38172281044E+02 -0.84377394637E+02 -0.12411743315E+03  0.15493190432E+03  0.47000000000E+01 0.  1.
         11    1    6    6    0    0 -0.39571884433E+01  0.13081165946E+02 -0.83760319308E+02  0.84867940551E+02  0.00000000000E+00 0. -1.
        -12    1    6    6    0    0 -0.11164912082E+02  0.25084799590E+02  0.11579432188E+02  0.29799088612E+02  0.00000000000E+00 0.  1.
</event>
<event>
12    1  0.8053217E-002  0.1914432E+03  0.7818608E-02  0.1157372E+00
         21   -1    0    0  503  502  0.00000000000E+00  0.00000000000E+00  0.71702849160E+03  0.71702849160E+03  0.00000000000E+00 0. -1.
         21   -1    0    0  501  503 -0.00000000000E+00 -0.00000000000E+00 -0.11519305561E+03  0.11519305561E+03  0.00000000000E+00 0. -1.
          6    2    1    2  501    0  0.79740054102E+02  0.19821025566E+02 -0.97057667092E+01  0.19168905474E+03  0.17291368517E+03 0.  0.
         24    2    3    3    0    0  0.94385627431E+02  0.65374722254E+02 -0.23198484854E+02  0.14175133811E+03  0.79829638482E+02 0.  0.
         -6    2    1    2    0  502 -0.79740054102E+02 -0.19821025566E+02  0.61154120270E+03  0.64053249247E+03  0.17189497382E+03 0.  0.
        -24    2    5    5    0    0 -0.58459043089E+02  0.37804264344E+02  0.51741732826E+03  0.52803827392E+03  0.79101864829E+02 0.  0.
          5    1    3    3  501    0 -0.14645573329E+02 -0.45553696688E+02  0.13492718145E+02  0.49937716638E+02  0.47000000000E+01 0. -1.
        -13    1    4    4    0    0  0.28593976649E+02  0.45347925390E+02 -0.44588634450E+02  0.69729449732E+02  0.00000000000E+00 0.  1.
         14    1    4    4    0    0  0.65791650782E+02  0.20026796864E+02  0.21390149597E+02  0.72021888375E+02  0.00000000000E+00 0. -1.
         -5    1    5    5    0  502 -0.21281011013E+02 -0.57625289909E+02  0.94123874440E+02  0.11249421855E+03  0.47000000000E+01 0.  1.
         11    1    6    6    0    0 -0.31982563566E+02 -0.22770315718E+02  0.19011923664E+03  0.19413061528E+03  0.00000000000E+00 0. -1.
        -12    1    6    6    0    0 -0.26476479524E+02  0.60574580061E+02  0.32729809163E+03  0.33390765864E+03  0.00000000000E+00 0.  1.
</event>
<event>
12    1  0.8053217E-002  0.2854498E+03  0.7818608E-02  0.1092924E+00
         21   -1    0    0  501  502  0.00000000000E+00  0.00000000000E+00  0.68576944720E+03  0.68576944720E+03  0.00000000000E+00 0. -1.
         21   -1    0    0  502  503 -0.00000000000E+00 -0.00000000000E+00 -0.11938267397E+03  0.11938267397E+03  0.00000000000E+00 0.  1.
         -6    2    1    2    0  503  0.10173924877E+03  0.20268366805E+03  0.24501529080E+03  0.37618353994E+03  0.17334941292E+03 0.  0.
        -24    2    3    3    0    0  0.67049224410E+02  0.13694219885E+03  0.69226383243E+02  0.18526688644E+03  0.79263880520E+02 0.  0.
          6    2    1    2  501    0 -0.10173924877E+03 -0.20268366805E+03  0.32137148243E+03  0.42896858123E+03  0.17118081063E+03 0.  0.
         24    2    5    5    0    0  0.57542652508E+01 -0.12424104179E+03  0.13679352630E+03  0.20137417651E+03  0.79813169929E+02 0.  0.
          5    1    5    5  501    0 -0.10749351402E+03 -0.78442626265E+02  0.18457795612E+03  0.22759440472E+03  0.47000000000E+01 0. -1.
        -11    1    6    6    0    0 -0.24122177907E+02 -0.79004634334E+01  0.38757451220E+02  0.46329653728E+02  0.00000000000E+00 0.  1.
         12    1    6    6    0    0  0.29876443158E+02 -0.11634057835E+03  0.98036075084E+02  0.15504452278E+03  0.00000000000E+00 0. -1.
         -5    1    3    3    0  503  0.34690024361E+02  0.65741469201E+02  0.17578890755E+03  0.19091665350E+03  0.47000000000E+01 0.  1.
         11    1    4    4    0    0 -0.60001520880E+01 -0.27945360856E+01  0.18470230846E+02  0.19620414993E+02  0.00000000000E+00 0. -1.
        -12    1    4    4    0    0  0.73049376498E+02  0.13973673494E+03  0.50756152397E+02  0.16564647145E+03  0.00000000000E+00 0.  1.
</event>
<event>
12    1  0.8053217E-002  0.2247899E+03  0.7818608E-02  0.1130715E+00
         21   -1    0    0  501  502  0.00000000000E+00  0.00000000000E+00  0.26912323547E+02  0.26912323547E+02  0.00000000000E+00 0. -1.
         21   -1    0    0  502  503 -0.00000000000E+00 -0.00000000000E+00 -0.20955688599E+04  0.20955688599E+04  0.00000000000E+00 0.  1.
         -6    2    1    2    0  503  0.12899329923E+03  0.64810467807E+02 -0.68357879576E+03  0.71959048695E+03  0.17231027512E+03 0.  0.
        -24    2    3    3    0    0  0.22221440226E+02  0.68045749532E+02 -0.23631074111E+03  0.25971930974E+03  0.80544006917E+02 0.  0.
          6    2    1    2  501    0 -0.12899329923E+03 -0.64810467807E+02 -0.13850777406E+04  0.14028906965E+04  0.16977128983E+03 0.  0.
         24    2    5    5    0    0 -0.89756024490E+02 -0.37708813739E+02 -0.12918625841E+04  0.12980803021E+04  0.81396780158E+02 0.  0.
          5    1    5    5  501    0 -0.39237274739E+02 -0.27101654068E+02 -0.93215156445E+02  0.10481039439E+03  0.47000000000E+01 0. -1.
        -11    1    6    6    0    0 -0.82151702525E+02 -0.57014235157E+02 -0.11856870702E+04  0.11898963626E+04  0.00000000000E+00 0.  1.
         12    1    6    6    0    0 -0.76043219654E+01  0.19305421418E+02 -0.10617551388E+03  0.10818393946E+03  0.00000000000E+00 0. -1.
         -5    1    3    3    0  503  0.10677185900E+03 -0.32352817249E+01 -0.44726805465E+03  0.45987117722E+03  0.47000000000E+01 0.  1.
         13    1    4    4    0    0  0.38768845219E+02  0.13355603421E+01 -0.77209794378E+02  0.86406940861E+02  0.00000000000E+00 0. -1.
        -14    1    4    4    0    0 -0.16547404993E+02  0.66710189190E+02 -0.15910094673E+03  0.17331236887E+03  0.00000000000E+00 0.  1.
</event>
<event>
12    1  0.8053217E-002  0.1849781E+03  0.7818608E-02  0.1163287E+00
         21   -1    0    0  503  502  0.00000000000E+00  0.00000000000E+00  0.39024141086E+03  0.39024141086E+03  0.00000000000E+00 0.  1.
         21   -1    0    0  501  503 -0.00000000000E+00 -0.00000000000E+00 -0.10841661690E+03  0.10841661690E+03  0.00000000000E+00 0.  1.
          6    2    1    2  501    0  0.39018792682E+02  0.56099445678E+02  0.30445336434E+02  0.18655465923E+03  0.17089794727E+03 0.  0.
         24    2    3    3    0    0 -0.42948978206E+02  0.47063219703E+02  0.15114926573E+02  0.10254584832E+03  0.78915325662E+02 0.  0.
         -6    2    1    2    0  502 -0.39018792682E+02 -0.56099445678E+02  0.25137945753E+03  0.31210336853E+03  0.17189318483E+03 0.  0.
        -24    2    5    5    0    0  0.16065904917E+02 -0.56960209682E+02  0.13204276030E+03  0.18057997848E+03  0.10803360261E+03 0.  0.
          5    1    3    3  501    0  0.81967770888E+02  0.90362259747E+01  0.15330409860E+02  0.84008810911E+02  0.47000000000E+01 0. -1.
        -13    1    4    4    0    0  0.11779924714E+02  0.37569996341E+02  0.24266626331E+02  0.46250842207E+02  0.00000000000E+00 0.  1.
         14    1    4    4    0    0 -0.54728902920E+02  0.94932233621E+01 -0.91516997581E+01  0.56295006112E+02  0.00000000000E+00 0. -1.
         -5    1    5    5    0  502 -0.55084697599E+02  0.86076400413E+00  0.11933669723E+03  0.13152339005E+03  0.47000000000E+01 0.  1.
         13    1    6    6    0    0 -0.52682362870E+01  0.29521906000E+02  0.15095711614E+02  0.33573468045E+02  0.00000000000E+00 0. -1.
        -14    1    6    6    0    0  0.21334141204E+02 -0.86482115682E+02  0.11694704868E+03  0.14700651043E+03  0.00000000000E+00 0.  1.
</event>
<event>
12    1  0.8053217E-002  0.2230291E+03  0.7818608E-02  0.1132534E+00
         21   -1    0    0  501  502  0.00000000000E+00  0.00000000000E+00  0.42470758956E+03  0.42470758956E+03  0.00000000000E+00 0.  1.
         21   -1    0    0  502  503 -0.00000000000E+00 -0.00000000000E+00 -0.17412462953E+03  0.17412462953E+03  0.00000000000E+00 0.  1.
         -6    2    1    2    0  503 -0.11879719047E+03 -0.62234957062E+02 -0.48848847973E+02  0.22831603098E+03  0.17820223823E+03 0.  0.
        -24    2    3    3    0    0 -0.11955545738E+01 -0.27329446687E+02 -0.61649055002E+02  0.10488801666E+03  0.80327841058E+02 0.  0.
          6    2    1    2  501    0  0.11879719047E+03  0.62234957062E+02  0.29943180800E+03  0.37051618810E+03  0.17215363969E+03 0.  0.
         24    2    5    5    0    0  0.14863732745E+03  0.76588639299E+02  0.26504494536E+03  0.32254736186E+03  0.76348561210E+02 0.  0.
          5    1    5    5  501    0 -0.29840136985E+02 -0.14353682237E+02  0.34386862645E+02  0.47968826248E+02  0.47000000000E+01 0. -1.
        -11    1    6    6    0    0  0.10348041571E+03  0.57128775527E+02  0.23962731768E+03  0.26719495655E+03  0.00000000000E+00 0.  1.
         12    1    6    6    0    0  0.45156911745E+02  0.19459863771E+02  0.25417627681E+02  0.55352405307E+02  0.00000000000E+00 0. -1.
         -5    1    3    3    0  503 -0.11760163589E+03 -0.34905510375E+02  0.12800207029E+02  0.12342801432E+03  0.47000000000E+01 0.  1.
         11    1    4    4    0    0 -0.21158448046E+02 -0.23603717024E+02  0.77051254484E+01  0.32621838379E+02  0.00000000000E+00 0. -1.
        -12    1    4    4    0    0  0.19962893472E+02 -0.37257296631E+01 -0.69354180450E+02  0.72266178280E+02  0.00000000000E+00 0.  1.
</event>
<event>
12    1  0.8053217E-002  0.3180834E+03  0.7818608E-02  0.1076685E+00
         21   -1    0    0  503  502  0.00000000000E+00  0.00000000000E+00  0.84564439156E+03  0.84564439156E+03  0.00000000000E+00 0. -1.
         21   -1    0    0  501  503 -0.00000000000E+00 -0.00000000000E+00 -0.48565210399E+03  0.48565210399E+03  0.00000000000E+00 0.  1.
          6    2    1    2  501    0  0.17133413249E+03 -0.20394930365E+03 -0.39834179470E+03  0.50895373576E+03  0.17148474080E+03 0.  0.
         24    2    3    3    0    0  0.18609719244E+03 -0.13738954749E+03 -0.28091364868E+03  0.37308759371E+03  0.82303230624E+02 0.  0.
         -6    2    1    2    0  502 -0.17133413249E+03  0.20394930365E+03  0.75833408227E+03  0.82234275978E+03  0.17385721390E+03 0.  0.
        -24    2    5    5    0    0 -0.15977077046E+03  0.14857525731E+03  0.42476304477E+03  0.48397650348E+03  0.78792801300E+02 0.  0.
          5    1    3    3  501    0 -0.14763059953E+02 -0.66559756153E+02 -0.11742814602E+03  0.13586614205E+03  0.47000000000E+01 0. -1.
        -11    1    4    4    0    0  0.13221508504E+03 -0.62225236691E+02 -0.12738032207E+03  0.19385188997E+03  0.00000000000E+00 0.  1.
         12    1    4    4    0    0  0.53882107398E+02 -0.75164310801E+02 -0.15353332660E+03  0.17923570373E+03  0.00000000000E+00 0. -1.
         -5    1    5    5    0  502 -0.11563362023E+02  0.55374046340E+02  0.33357103750E+03  0.33836625630E+03  0.47000000000E+01 0.  1.
         13    1    6    6    0    0 -0.85575023810E+02  0.27513890566E+02  0.17129204179E+03  0.19344524408E+03  0.00000000000E+00 0. -1.
        -14    1    6    6    0    0 -0.74195746654E+02  0.12106136674E+03  0.25347100298E+03  0.29053125940E+03  0.00000000000E+00 0.  1.
</event>
<event>
12    1  0.8053217E-002  0.1927902E+03  0.7818608E-02  0.1156078E+00
         21   -1    0    0  503  502  0.00000000000E+00  0.00000000000E+00  0.18997799266E+03  0.18997799266E+03  0.00000000000E+00 0. -1.
         21   -1    0    0  501  503 -0.00000000000E+00 -0.00000000000E+00 -0.23184056302E+03  0.23184056302E+03  0.00000000000E+00 0. -1.
          6    2    1    2  501    0 -0.77665334159E+02  0.38989020208E+02  0.62954966348E+02  0.20280879101E+03  0.17209308555E+03 0.  0.
         24    2    3    3    0    0 -0.11959312771E+03  0.42736454362E+02  0.42477940728E+02  0.15576220013E+03  0.79552289814E+02 0.  0.
         -6    2    1    2    0  502  0.77665334159E+02 -0.38989020208E+02 -0.10481753670E+03  0.21900976467E+03  0.17154157862E+03 0.  0.
        -24    2    5    5    0    0  0.33281394551E+01  0.16098062176E+02  0.39807665239E+00  0.78820533791E+02  0.77086276107E+02 0.  0.
          5    1    3    3  501    0  0.41927793549E+02 -0.37474341534E+01  0.20477025620E+02  0.47046590874E+02  0.47000000000E+01 0. -1.
        -13    1    4    4    0    0 -0.92612081630E+01 -0.19822752442E+02 -0.38122005770E+00  0.21882797347E+02  0.00000000000E+00 0.  1.
         14    1    4    4    0    0 -0.11033191955E+03  0.62559206804E+02  0.42859160786E+02  0.13387940278E+03  0.00000000000E+00 0. -1.
         -5    1    5    5    0  502  0.74337194704E+02 -0.55087082385E+02 -0.10521561335E+03  0.14018923088E+03  0.47000000000E+01 0.  1.
         13    1    6    6    0    0  0.28440682917E+02 -0.75649304685E+01 -0.22812248250E+02  0.37235725963E+02  0.00000000000E+00 0. -1.
        -14    1    6    6    0    0 -0.25112543462E+02  0.23662992645E+02  0.23210324902E+02  0.41584807828E+02  0.00000000000E+00 0.  1.
</event>
<event>
12    1  0.8053217E-002  0.3884988E+03  0.7818608E-02  0.1047914E+00
         21   -1    0    0  501  502  0.00000000000E+00  0.00000000000E+00  0.15528587990E+03  0.15528587990E+03  0.00000000000E+00 0. -1.
         21   -1    0    0  502  503 -0.00000000000E+00 -0.00000000000E+00 -0.10664772719E+04  0.10664772719E+04  0.00000000000E+00 0.  1.
         -6    2    1    2    0  503  0.22965944404E+03  0.26025312377E+03 -0.27119988117E+03  0.47308401466E+03  0.17258030219E+03 0.  0.
        -24    2    3    3    0    0  0.58479410058E+02  0.58564829792E+02 -0.12806876962E+03  0.17226949197E+03  0.80159138113E+02 0.  0.
          6    2    1    2  501    0 -0.22965944404E+03 -0.26025312377E+03 -0.63999151083E+03  0.74867913714E+03  0.17451695559E+03 0.  0.
         24    2    5    5    0    0 -0.31583192499E+02 -0.76351976646E+02 -0.13810987858E+03  0.17862554657E+03  0.77495967242E+02 0.  0.
          5    1    5    5  501    0 -0.19807625155E+03 -0.18390114713E+03 -0.50188163225E+03  0.57005359057E+03  0.47000000000E+01 0. -1.
        -13    1    6    6    0    0 -0.16560519443E+02  0.68751574012E+01 -0.15490491181E+01  0.17997726153E+02  0.00000000000E+00 0.  1.
         14    1    6    6    0    0 -0.15022673056E+02 -0.83227134047E+02 -0.13656082947E+03  0.16062782042E+03  0.00000000000E+00 0. -1.
         -5    1    3    3    0  503  0.17118003399E+03  0.20168829398E+03 -0.14313111155E+03  0.30081452268E+03  0.47000000000E+01 0.  1.
         13    1    4    4    0    0 -0.65891602518E+00  0.56020818448E+02 -0.62112121529E+02  0.83646170927E+02  0.00000000000E+00 0. -1.
        -14    1    4    4    0    0  0.59138326083E+02  0.25440113437E+01 -0.65956648093E+02  0.88623321046E+02  0.00000000000E+00 0.  1.
</event>
<event>
12    1  0.8053217E-002  0.1821626E+03  0.7818608E-02  0.1165758E+00
         21   -1    0    0  501  502  0.00000000000E+00  0.00000000000E+00  0.15888149167E+03  0.15888149167E+03  0.00000000000E+00 0. -1.
         21   -1    0    0  502  503 -0.00000000000E+00 -0.00000000000E+00 -0.97419410611E+03  0.97419410611E+03  0.00000000000E+00 0. -1.
         -6    2    1    2    0  503  0.58136553572E+02  0.77832313739E+00 -0.90988687427E+03  0.92794252504E+03  0.17263470444E+03 0.  0.
        -24    2    3    3    0    0  0.74693175391E+02  0.52250179278E+02 -0.54322868121E+03  0.55728932564E+03  0.84645381967E+02 0.  0.
          6    2    1    2  501    0 -0.58136553572E+02 -0.77832313739E+00  0.94574259824E+02  0.20513307274E+03  0.17249586158E+03 0.  0.
         24    2    5    5    0    0  0.90112633798E+01 -0.20771041730E+02 -0.58108389380E+01  0.82626761997E+02  0.79251352712E+02 0.  0.
          5    1    5    5  501    0 -0.67147816952E+02  0.19992718593E+02  0.10038509876E+03  0.12250631074E+03  0.47000000000E+01 0. -1.
        -11    1    6    6    0    0 -0.29835156022E+02 -0.30023261875E+02 -0.39666716227E+00  0.42328360863E+02  0.00000000000E+00 0.  1.
         12    1    6    6    0    0  0.38846419402E+02  0.92522201449E+01 -0.54141717757E+01  0.40298401134E+02  0.00000000000E+00 0. -1.
         -5    1    3    3    0  503 -0.16556621819E+02 -0.51471856141E+02 -0.36665819305E+03  0.37065319941E+03  0.47000000000E+01 0.  1.
         11    1    4    4    0    0  0.32326960890E+02  0.17710282080E+02 -0.42979040292E+03  0.43136814548E+03  0.00000000000E+00 0. -1.
        -12    1    4    4    0    0  0.42366214501E+02  0.34539897198E+02 -0.11343827830E+03  0.12592118016E+03  0.00000000000E+00 0.  1.
</event>
<event>
12    1  0.8053217E-002  0.2068055E+03  0.7818608E-02  0.1144625E+00
         21   -1    0    0  501  502  0.00000000000E+00  0.00000000000E+00  0.12364249766E+03  0.12364249766E+03  0.00000000000E+00 0. -1.
         21   -1    0    0  502  503 -0.00000000000E+00 -0.00000000000E+00 -0.34398050798E+03  0.34398050798E+03  0.00000000000E+00 0. -1.
         -6    2    1    2    0  503 -0.96250341560E+02  0.62700444435E+02 -0.12825407879E+03  0.24124291521E+03  0.16897799097E+03 0.  0.
        -24    2    3    3    0    0 -0.10666523221E+03  0.31096070853E+02 -0.14744604693E+03  0.20254242403E+03  0.83298615778E+02 0.  0.
          6    2    1    2  501    0  0.96250341560E+02 -0.62700444435E+02 -0.92083931536E+02  0.22638009044E+03  0.17196808110E+03 0.  0.
         24    2    5    5    0    0  0.11602207401E+03 -0.72000257098E+02 -0.30908041384E+02  0.16124954879E+03  0.80005945290E+02 0.  0.
          5    1    5    5  501    0 -0.19771732451E+02  0.92998126625E+01 -0.61175890152E+02  0.65130541650E+02  0.47000000000E+01 0. -1.
        -13    1    6    6    0    0 -0.57420085455E+01 -0.18346096968E+02 -0.20002049192E+02  0.27742240501E+02  0.00000000000E+00 0.  1.
         14    1    6    6    0    0  0.12176408256E+03 -0.53654160129E+02 -0.10905992192E+02  0.13350730829E+03  0.00000000000E+00 0. -1.
         -5    1    3    3    0  503  0.10414890649E+02  0.31604373582E+02  0.19191968143E+02  0.38700491185E+02  0.47000000000E+01 0.  1.
         13    1    4    4    0    0 -0.10709970043E+03  0.47185922578E+02 -0.10531851904E+03  0.15744474451E+03  0.00000000000E+00 0. -1.
        -14    1    4    4    0    0  0.43446822381E+00 -0.16089851725E+02 -0.42127527892E+02  0.45097679514E+02  0.00000000000E+00 0.  1.
</event>
<event>
12    1  0.8053217E-002  0.2143993E+03  0.7818608E-02  0.1139086E+00
         21   -1    0    0  501  502  0.00000000000E+00  0.00000000000E+00  0.39619555427E+03  0.39619555427E+03  0.00000000000E+00 0.  1.
         21   -1    0    0  502  503 -0.00000000000E+00 -0.00000000000E+00 -0.12450535857E+03  0.12450535857E+03  0.00000000000E+00 0. -1.
         -6    2    1    2    0  503 -0.24058676947E+02 -0.11779230105E+03  0.21222542761E+03  0.29820790533E+03  0.17156478820E+03 0.  0.
        -24    2    3    3    0    0  0.22467068240E+02 -0.13118805443E+03  0.17400973457E+03  0.23634822243E+03  0.88690584277E+02 0.  0.
          6    2    1    2  501    0  0.24058676947E+02  0.11779230105E+03  0.59464768092E+02  0.22249300752E+03  0.17751967110E+03 0.  0.
         24    2    5    5    0    0  0.40090779105E+02  0.12978985913E+03 -0.19579624108E+01  0.15771792340E+03  0.80115114953E+02 0.  0.
          5    1    5    5  501    0 -0.16032102157E+02 -0.11997558077E+02  0.61422730503E+02  0.64775084113E+02  0.47000000000E+01 0. -1.
        -11    1    6    6    0    0  0.27063183469E+02  0.65882272997E-01  0.31204494463E+01  0.27242566778E+02  0.00000000000E+00 0.  1.
         12    1    6    6    0    0  0.13027595636E+02  0.12972397686E+03 -0.50784118571E+01  0.13047535663E+03  0.00000000000E+00 0. -1.
         -5    1    3    3    0  503 -0.46525745188E+02  0.13395753378E+02  0.38215693042E+02  0.61859682900E+02  0.47000000000E+01 0.  1.
         11    1    4    4    0    0 -0.31955153284E+00 -0.13766419519E+02 -0.99024482665E+01  0.16960981729E+02  0.00000000000E+00 0. -1.
        -12    1    4    4    0    0  0.22786619773E+02 -0.11742163491E+03  0.18391218283E+03  0.21938724070E+03  0.00000000000E+00 0.  1.
</event>
<event>
12    1  0.8053217E-002  0.1865879E+03  0.7818608E-02  0.1162361E+00
         21   -1    0    0  501  502  0.00000000000E+00  0.00000000000E+00  0.17346027788E+03  0.17346027788E+03  0.00000000000E+00 0.  1.
         21   -1    0    0  502  503 -0.00000000000E+00 -0.00000000000E+00 -0.20524858138E+03  0.20524858138E+03  0.00000000000E+00 0.  1.
         -6    2    1    2    0  503 -0.56067474025E+02  0.17519536501E+02 -0.53483338839E+02  0.19086391422E+03  0.17354558599E+03 0.  0.
        -24    2    3    3    0    0  0.31260767212E+02 -0.13160475498E+01  0.14563096416E+01  0.85880792152E+02  0.79965130370E+02 0.  0.
          6    2    1    2  501    0  0.56067474025E+02 -0.17519536501E+02  0.21695035339E+02  0.18784494503E+03  0.17710040376E+03 0.  0.
         24    2    5    5    0    0  0.38039539371E+02 -0.42257563645E+02 -0.49647617639E+02  0.11007065269E+03  0.80112136450E+02 0.  0.
          5    1    5    5  501    0  0.18027934653E+02  0.24738027145E+02  0.71342652978E+02  0.77774292339E+02  0.47000000000E+01 0. -1.
        -13    1    6    6    0    0  0.13237737674E+02 -0.14525396234E+02  0.21901693749E+02  0.29426332146E+02  0.00000000000E+00 0.  1.
         14    1    6    6    0    0  0.24801801697E+02 -0.27732167411E+02 -0.71549311387E+02  0.80644320549E+02  0.00000000000E+00 0. -1.
         -5    1    3    3    0  503 -0.87328241237E+02  0.18835584051E+02 -0.54939648481E+02  0.10498312207E+03  0.47000000000E+01 0.  1.
         11    1    4    4    0    0  0.14140464143E+02 -0.29340198204E+02 -0.27093575514E+02  0.42365809222E+02  0.00000000000E+00 0. -1.
        -12    1    4    4    0    0  0.17120303069E+02  0.28024150655E+02  0.28549885156E+02  0.43514982931E+02  0.00000000000E+00 0.  1.
</event>
<event>
12    1  0.8053217E-002  0.1860653E+03  0.7818608E-02  0.1162430E+00
         21   -1    0    0  503  502  0.00000000000E+00  0.00000000000E+00  0.13259177082E+03  0.13259177082E+03  0.00000000000E+00 0. -1.
         21   -1    0    0  501  503 -0.00000000000E+00 -0.00000000000E+00 -0.44188770881E+03  0.44188770881E+03  0.00000000000E+00 0. -1.
          6    2    1    2  501    0  0.33908445455E+02  0.56926261719E+02 -0.33989463294E+03  0.38749019972E+03  0.17386751115E+03 0.  0.
         24    2    3    3    0    0  0.73610217346E+01  0.32038870947E+02 -0.33977944192E+03  0.35079890383E+03  0.80803019021E+02 0.  0.
         -6    2    1    2    0  502 -0.33908445455E+02 -0.56926261719E+02  0.30598694948E+02  0.18698927991E+03  0.17215785989E+03 0.  0.
        -24    2    5    5    0    0 -0.18632167567E+02 -0.10491762553E+03  0.29077453215E+02  0.13638355056E+03  0.80000679768E+02 0.  0.
          5    1    3    3  501    0  0.26547423721E+02  0.24887390772E+02 -0.11519102420E+00  0.36691295898E+02  0.47000000000E+01 0. -1.
        -11    1    4    4    0    0 -0.16822862851E+02 -0.82941733564E+01 -0.23734510803E+03  0.23808507372E+03  0.00000000000E+00 0.  1.
         12    1    4    4    0    0  0.24183884586E+02  0.40333044303E+02 -0.10243433389E+03  0.11271383010E+03  0.00000000000E+00 0. -1.
         -5    1    5    5    0  502 -0.15276277888E+02  0.47991363810E+02  0.15212417329E+01  0.50605729348E+02  0.47000000000E+01 0.  1.
         11    1    6    6    0    0 -0.49363942156E+02 -0.62164418874E+02  0.26430152476E+02  0.83664608521E+02  0.00000000000E+00 0. -1.
        -12    1    6    6    0    0  0.30731774588E+02 -0.42753206656E+02  0.26473007392E+01  0.52718942041E+02  0.00000000000E+00 0.  1.
</event>
<event>
12    1  0.8053217E-002  0.2046210E+03  0.7818608E-02  0.1146183E+00
         21   -1    0    0  501  502  0.00000000000E+00  0.00000000000E+00  0.46305192725E+02  0.46305192725E+02  0.00000000000E+00 0. -1.
         21   -1    0    0  502  503 -0.00000000000E+00 -0.00000000000E+00 -0.94501512557E+03  0.94501512557E+03  0.00000000000E+00 0.  1.
         -6    2    1    2    0  503  0.92031432430E+02 -0.57807713890E+02 -0.56125186882E+03  0.59738883607E+03  0.17337313767E+03 0.  0.
        -24    2    3    3    0    0 -0.16477711558E+02 -0.37318720974E+02 -0.32628997178E+03  0.33772902744E+03  0.77016546106E+02 0.  0.
          6    2    1    2  501    0 -0.92031432430E+02  0.57807713890E+02 -0.33745806402E+03  0.39393148222E+03  0.17173395521E+03 0.  0.
         24    2    5    5    0    0 -0.89185911530E+00 -0.11791286110E+02 -0.19994579135E+03  0.21481655331E+03  0.77640210295E+02 0.  0.
          5    1    5    5  501    0 -0.91139573315E+02  0.69599000000E+02 -0.13751227267E+03  0.17911492891E+03  0.47000000000E+01 0. -1.
        -11    1    6    6    0    0  0.23924525427E+02  0.19620894038E+02 -0.43837920061E+02  0.53657484427E+02  0.00000000000E+00 0.  1.
         12    1    6    6    0    0 -0.24816384542E+02 -0.31412180148E+02 -0.15610787129E+03  0.16115906888E+03  0.00000000000E+00 0. -1.
         -5    1    3    3    0  503  0.10850914399E+03 -0.20488992916E+02 -0.23496189704E+03  0.25965980864E+03  0.47000000000E+01 0.  1.
         11    1    4    4    0    0  0.74153813601E+01  0.17193172520E+02 -0.28856339358E+02  0.34398857295E+02  0.00000000000E+00 0. -1.
        -12    1    4    4    0    0 -0.23893092918E+02 -0.54511893493E+02 -0.29743363242E+03  0.30333017014E+03  0.00000000000E+00 0.  1.
</event>
<event>
12    1  0.8053217E-002  0.2094381E+03  0.7818608E-02  0.1143631E+00
         21   -1    0    0  501  502  0.00000000000E+00  0.00000000000E+00  0.11899844937E+03  0.11899844937E+03  0.00000000000E+00 0. -1.
         21   -1    0    0  502  503 -0.00000000000E+00 -0.00000000000E+00 -0.42509843377E+03  0.42509843377E+03  0.00000000000E+00 0. -1.
         -6    2    1    2    0  503 -0.29942452876E+02 -0.10013648243E+03 -0.26126388965E+03  0.32991335155E+03  0.17222117725E+03 0.  0.
        -24    2    3    3    0    0 -0.39115370535E+02 -0.11452535497E+03 -0.27265235167E+03  0.30886651952E+03  0.80082163223E+02 0.  0.
          6    2    1    2  501    0  0.29942452876E+02  0.10013648243E+03 -0.44836094739E+02  0.21418353159E+03  0.18149502533E+03 0.  0.
         24    2    5    5    0    0  0.63323226017E+02 -0.30967901956E-01 -0.67791070082E+01  0.10185268794E+03  0.79486991619E+02 0.  0.
          5    1    5    5  501    0 -0.33380773142E+02  0.10016745033E+03 -0.38056987731E+02  0.11233084365E+03  0.47000000000E+01 0. -1.
        -13    1    6    6    0    0  0.16728881960E+02 -0.80031924866E+01 -0.39990302433E+02  0.44080958137E+02  0.00000000000E+00 0.  1.
         14    1    6    6    0    0  0.46594344058E+02  0.79722245846E+01  0.33211195425E+02  0.57771729804E+02  0.00000000000E+00 0. -1.
         -5    1    3    3    0  503  0.91729176597E+01  0.14388872541E+02  0.11388462014E+02  0.21046832029E+02  0.47000000000E+01 0.  1.
         13    1    4    4    0    0 -0.44745914065E+02 -0.10136837884E+03 -0.15604287243E+03  0.19138213890E+03  0.00000000000E+00 0. -1.
        -14    1    4    4    0    0  0.56305435294E+01 -0.13156976131E+02 -0.11660947923E+03  0.11748438061E+03  0.00000000000E+00 0.  1.
</event>
<event>
12    1  0.8053217E-002  0.2016541E+03  0.7818608E-02  0.1148518E+00
         21   -1    0    0  503  502  0.00000000000E+00  0.00000000000E+00  0.14849199039E+03  0.14849199039E+03  0.00000000000E+00 0. -1.
         21   -1    0    0  501  503 -0.00000000000E+00 -0.00000000000E+00 -0.27297470597E+03  0.27297470597E+03  0.00000000000E+00 0. -1.
          6    2    1    2  501    0  0.75258918996E+02  0.71806427093E+02 -0.56277156978E+02  0.20859031185E+03  0.17182180287E+03 0.  0.
         24    2    3    3    0    0  0.50713927193E+01  0.92690423578E+02 -0.38862658687E+02  0.13317290733E+03  0.87220888320E+02 0.  0.
         -6    2    1    2    0  502 -0.75258918996E+02 -0.71806427093E+02 -0.68205558607E+02  0.21287638451E+03  0.17275499703E+03 0.  0.
        -24    2    5    5    0    0  0.19558803429E+02 -0.57846193540E+02 -0.11354757707E+02  0.10134436144E+03  0.80081334749E+02 0.  0.
          5    1    3    3  501    0  0.70187526277E+02 -0.20883996486E+02 -0.17414498291E+02  0.75417404522E+02  0.47000000000E+01 0. -1.
        -13    1    4    4    0    0 -0.30359646379E+02  0.47785838020E+02 -0.49249456740E+02  0.75038013251E+02  0.00000000000E+00 0.  1.
         14    1    4    4    0    0  0.35431039099E+02  0.44904585559E+02  0.10386798053E+02  0.58134894079E+02  0.00000000000E+00 0. -1.
         -5    1    5    5    0  502 -0.94817722425E+02 -0.13960233552E+02 -0.56850800900E+02  0.11153202307E+03  0.47000000000E+01 0.  1.
         11    1    6    6    0    0 -0.38103817682E+01 -0.72681426634E+02 -0.11369874345E+02  0.73663985972E+02  0.00000000000E+00 0. -1.
        -12    1    6    6    0    0  0.23369185197E+02  0.14835233093E+02  0.15116637816E-01  0.27680375471E+02  0.00000000000E+00 0.  1.
</event>
<event>
12    1  0.8053217E-002  0.1744577E+03  0.7818608E-02  0.1173308E+00
         21   -1    0    0  503  502  0.00000000000E+00  0.00000000000E+00  0.75165543872E+02  0.75165543872E+02  0.00000000000E+00 0.  1.
         21   -1    0    0  501  503 -0.00000000000E+00 -0.00000000000E+00 -0.45684436946E+03  0.45684436946E+03  0.00000000000E+00 0.  1.
          6    2    1    2  501    0 -0.15833106556E+02  0.26162917239E+02 -0.28070981177E+03  0.33044052997E+03  0.17163263070E+03 0.  0.
         24    2    3    3    0    0 -0.28390603554E+02  0.77647766683E+02 -0.22913536692E+03  0.25634333829E+03  0.79835384825E+02 0.  0.
         -6    2    1    2    0  502  0.15833106556E+02 -0.26162917239E+02 -0.10096901382E+03  0.20156938336E+03  0.17175648185E+03 0.  0.
        -24    2    5    5    0    0  0.52786054849E+02  0.27440197678E+02 -0.92834527862E+02  0.13578888338E+03  0.79253007837E+02 0.  0.
          5    1    3    3  501    0  0.12557496999E+02 -0.51484849444E+02 -0.51574444846E+02  0.74097191676E+02  0.47000000000E+01 0. -1.
        -11    1    4    4    0    0  0.22136890771E+02  0.54996534839E+02 -0.12728109719E+03  0.14041060672E+03  0.00000000000E+00 0.  1.
         12    1    4    4    0    0 -0.50527494325E+02  0.22651231844E+02 -0.10185426973E+03  0.11593273157E+03  0.00000000000E+00 0. -1.
         -5    1    5    5    0  502 -0.36952948294E+02 -0.53603114917E+02 -0.81344859572E+01  0.65780499984E+02  0.47000000000E+01 0.  1.
         11    1    6    6    0    0 -0.11057224041E+02 -0.12939026717E+02 -0.40384389935E+02  0.43824417466E+02  0.00000000000E+00 0. -1.
        -12    1    6    6    0    0  0.63843278890E+02  0.40379224395E+02 -0.52450137927E+02  0.91964465914E+02  0.00000000000E+00 0.  1.
</event>
<event>
12    1  0.8053217E-002  0.2582043E+03  0.7818608E-02  0.1108709E+00
         21   -1    0    0  503  502  0.00000000000E+00  0.00000000000E+00  0.72233082383E+03  0.72233082383E+03  0.00000000000E+00 0.  1.
         21   -1    0    0  501  503 -0.00000000000E+00 -0.00000000000E+00 -0.96495148083E+02  0.96495148083E+02  0.00000000000E+00 0.  1.
          6    2    1    2  501    0 -0.19157031214E+03  0.21347661700E+02  0.21858160676E+03  0.33830071422E+03  0.17179798390E+03 0.  0.
         24    2    3    3    0    0 -0.16848119326E+03 -0.79169667475E+01  0.23260121828E+03  0.29819877666E+03  0.79815993464E+02 0.  0.
         -6    2    1    2    0  502  0.19157031214E+03 -0.21347661700E+02  0.40725406898E+03  0.48052525769E+03  0.16701418930E+03 0.  0.
        -24    2    5    5    0    0  0.18557805024E+03  0.28235707722E+02  0.33705356080E+03  0.39424305168E+03  0.81154254538E+02 0.  0.
          5    1    3    3  501    0 -0.23089118875E+02  0.29264628447E+02 -0.14019611514E+02  0.40101937554E+02  0.47000000000E+01 0. -1.
        -11    1    4    4    0    0 -0.14216795330E+03 -0.33050133825E+02  0.15741840229E+03  0.21467322067E+03  0.00000000000E+00 0.  1.
         12    1    4    4    0    0 -0.26313239963E+02  0.25133167077E+02  0.75182815986E+02  0.83525555995E+02  0.00000000000E+00 0. -1.
         -5    1    5    5    0  502  0.59922619010E+01 -0.49583369422E+02  0.70200508183E+02  0.86282206017E+02  0.47000000000E+01 0.  1.
         11    1    6    6    0    0  0.17040396552E+02  0.16302956890E+02  0.10245652377E+03  0.10513563040E+03  0.00000000000E+00 0. -1.
        -12    1    6    6    0    0  0.16853765369E+03  0.11932750833E+02  0.23459703703E+03  0.28910742127E+03  0.00000000000E+00 0.  1.
</event>
<event>
12    1  0.8053217E-002  0.2196298E+03  0.7818608E-02  0.1134483E+00
         21   -1    0    0  501  502  0.00000000000E+00  0.00000000000E+00  0.13996586984E+03  0.13996586984E+03  0.00000000000E+00 0. -1.
         21   -1    0    0  502  503 -0.00000000000E+00 -0.00000000000E+00 -0.37986752811E+03  0.37986752811E+03  0.00000000000E+00 0.  1.
         -6    2    1    2    0  503  0.79311593875E+02 -0.10772382334E+03 -0.20165617311E+03  0.29689855041E+03  0.17201391235E+03 0.  0.
        -24    2    3    3    0    0 -0.25901130368E+02 -0.37863074538E+02 -0.79428131089E+02  0.12108038917E+03  0.79038924996E+02 0.  0.
          6    2    1    2  501    0 -0.79311593875E+02  0.10772382334E+03 -0.38245485158E+02  0.22293484754E+03  0.17419092421E+03 0.  0.
         24    2    5    5    0    0 -0.23935170717E+01  0.10892895544E+03 -0.52321873691E+02  0.14458896318E+03  0.79354543349E+02 0.  0.
          5    1    5    5  501    0 -0.76918076804E+02 -0.12051320943E+01  0.14076388533E+02  0.78345884363E+02  0.47000000000E+01 0. -1.
        -11    1    6    6    0    0 -0.25047351106E+02  0.10851668198E+03 -0.37499104254E+02  0.11751350086E+03  0.00000000000E+00 0.  1.
         12    1    6    6    0    0  0.22653834034E+02  0.41227345776E+00 -0.14822769436E+02  0.27075462316E+02  0.00000000000E+00 0. -1.
         -5    1    3    3    0  503  0.10521272424E+03 -0.69860748807E+02 -0.12222804203E+03  0.17581816125E+03  0.47000000000E+01 0.  1.
         13    1    4    4    0    0  0.20499329437E+01 -0.12968374830E+02  0.14743907165E+02  0.19742435749E+02  0.00000000000E+00 0. -1.
        -14    1    4    4    0    0 -0.27951063312E+02 -0.24894699707E+02 -0.94172038254E+02  0.10133795342E+03  0.00000000000E+00 0.  1.
</event>
<event>
12    1  0.8053217E-002  0.1764659E+03  0.7818608E-02  0.1171283E+00
         21   -1    0    0  503  502  0.00000000000E+00  0.00000000000E+00  0.40981541130E+02  0.40981541130E+02  0.00000000000E+00 0.  1.
         21   -1    0    0  501  503 -0.00000000000E+00 -0.00000000000E+00 -0.80951920817E+03  0.80951920817E+03  0.00000000000E+00 0.  1.
          6    2    1    2  501    0 -0.37975623557E+02  0.22343224750E+01 -0.48992669904E+03  0.52073829440E+03  0.17231674510E+03 0.  0.
         24    2    3    3    0    0 -0.19941422792E+02 -0.11524551384E+02 -0.96839693650E+02  0.12696929764E+03  0.78821321026E+02 0.  0.
         -6    2    1    2    0  502  0.37975623557E+02 -0.22343224750E+01 -0.27861096800E+03  0.32976245490E+03  0.17225581264E+03 0.  0.
        -24    2    5    5    0    0 -0.46542345965E+01  0.33124528630E+01 -0.27512219084E+03  0.28637659213E+03  0.79288702715E+02 0.  0.
          5    1    3    3  501    0 -0.18034200765E+02  0.13758873859E+02 -0.39308700539E+03  0.39376899677E+03  0.47000000000E+01 0. -1.
        -13    1    4    4    0    0  0.70497984238E+01 -0.41275054392E+02 -0.46714504883E+02  0.62734159270E+02  0.00000000000E+00 0.  1.
         14    1    4    4    0    0 -0.26991221216E+02  0.29750503008E+02 -0.50125188766E+02  0.64235138365E+02  0.00000000000E+00 0. -1.
         -5    1    5    5    0  502  0.42629858154E+02 -0.55467753380E+01 -0.34887771585E+01  0.43385862777E+02  0.47000000000E+01 0.  1.
         11    1    6    6    0    0  0.36694958778E+02  0.40036138939E+01 -0.10497562164E+03  0.11127636795E+03  0.00000000000E+00 0. -1.
        -12    1    6    6    0    0 -0.41349193375E+02 -0.69116103086E+00 -0.17014656920E+03  0.17510022418E+03  0.00000000000E+00 0.  1.
</event>
<event>
12    1  0.8053217E-002  0.1907075E+03  0.7818608E-02  0.1158051E+00
         21   -1    0    0  501  502  0.00000000000E+00  0.00000000000E+00  0.51947744375E+03  0.51947744375E+03  0.00000000000E+00 0.  1.
         21   -1    0    0  502  503 -0.00000000000E+00 -0.00000000000E+00 -0.85057949454E+02  0.85057949454E+02  0.00000000000E+00 0. -1.
         -6    2    1    2    0  503 -0.77353730211E+02 -0.16220373333E+02  0.34541681447E+03  0.39408154941E+03  0.17245518774E+03 0.  0.
        -24    2    3    3    0    0 -0.63652841029E+01  0.38297351123E+02  0.10601564547E+03  0.13845183385E+03  0.80139810745E+02 0.  0.
          6    2    1    2  501    0  0.77353730211E+02  0.16220373333E+02  0.89002679831E+02  0.21045384380E+03  0.17355876026E+03 0.  0.
         24    2    5    5    0    0 -0.20511605865E+02  0.25630422734E+02  0.52479749190E+02  0.10546723752E+03  0.85390687846E+02 0.  0.
          5    1    5    5  501    0  0.97865336076E+02 -0.94100494012E+01  0.36522930641E+02  0.10498660628E+03  0.47000000000E+01 0. -1.
        -13    1    6    6    0    0 -0.11922104147E+02  0.55866153657E+02  0.20672936023E+02  0.60749765231E+02  0.00000000000E+00 0.  1.
         14    1    6    6    0    0 -0.85895017171E+01 -0.30235730924E+02  0.31806813167E+02  0.44717472291E+02  0.00000000000E+00 0. -1.
         -5    1    3    3    0  503 -0.70988446108E+02 -0.54517724456E+02  0.23940116899E+03  0.25562971556E+03  0.47000000000E+01 0.  1.
         13    1    4    4    0    0  0.23007837577E+02 -0.43057963083E+01  0.35692634772E+01  0.23677840138E+02  0.00000000000E+00 0. -1.
        -14    1    4    4    0    0 -0.29373121680E+02  0.42603147431E+02  0.10244638200E+03  0.11477399371E+03  0.00000000000E+00 0.  1.
</event>
<event>
12    1  0.8053217E-002  0.1987909E+03  0.7818608E-02  0.1151049E+00
         21   -1    0    0  503  502  0.00000000000E+00  0.00000000000E+00  0.37821237475E+03  0.37821237475E+03  0.00000000000E+00 0. -1.
         21   -1    0    0  501  503 -0.00000000000E+00 -0.00000000000E+00 -0.28431203631E+03  0.28431203631E+03  0.00000000000E+00 0. -1.
          6    2    1    2  501    0  0.49355593827E+02  0.84689032104E+02 -0.21695670128E+03  0.29425841450E+03  0.17294391423E+03 0.  0.
         24    2    3    3    0    0 -0.71146298839E+01  0.33992976731E+02 -0.19746548847E+03  0.21576654502E+03  0.79727300157E+02 0.  0.
         -6    2    1    2    0  502 -0.49355593827E+02 -0.84689032104E+02  0.31085703972E+03  0.36826599656E+03  0.17140460401E+03 0.  0.
        -24    2    5    5    0    0 -0.15263186926E+02 -0.75560266039E+02  0.31269015660E+03  0.33261383119E+03  0.83153520569E+02 0.  0.
          5    1    3    3  501    0  0.56470223711E+02  0.50696055373E+02 -0.19491212816E+02  0.78491869473E+02  0.47000000000E+01 0. -1.
        -13    1    4    4    0    0 -0.14604811856E+02  0.11778423541E+02 -0.19646050058E+01  0.18865085827E+02  0.00000000000E+00 0.  1.
         14    1    4    4    0    0  0.74901819717E+01  0.22214553190E+02 -0.19550088346E+03  0.19690145919E+03  0.00000000000E+00 0. -1.
         -5    1    5    5    0  502 -0.34092406901E+02 -0.91287660658E+01 -0.18331168802E+01  0.35652165372E+02  0.47000000000E+01 0.  1.
         11    1    6    6    0    0  0.15176050309E+02  0.11621428337E+02  0.33763083300E+02  0.38798400656E+02  0.00000000000E+00 0. -1.
        -12    1    6    6    0    0 -0.30439237235E+02 -0.87181694376E+02  0.27892707330E+03  0.29381543053E+03  0.00000000000E+00 0.  1.
</event>
<event>
12    1  0.8053217E-002  0.1784458E+03  0.7818608E-02  0.1169665E+00
         21   -1    0    0  501  502  0.00000000000E+00  0.00000000000E+00  0.15397749009E+03  0.15397749009E+03  0.00000000000E+00 0. -1.
         21   -1    0    0  502  503 -0.00000000000E+00 -0.00000000000E+00 -0.46866781741E+03  0.46866781741E+03  0.00000000000E+00 0. -1.
         -6    2    1    2    0  503  0.98170752740E+00 -0.43073536697E+02 -0.39106062419E+03  0.42985032409E+03  0.17316638247E+03 0.  0.
        -24    2    3    3    0    0 -0.65526683571E+01 -0.42503001608E+02 -0.40417140499E+03  0.41400498081E+03  0.78715671325E+02 0.  0.
          6    2    1    2  501    0 -0.98170752740E+00  0.43073536697E+02  0.76370296865E+02  0.19279498342E+03  0.17170087383E+03 0.  0.
         24    2    5    5    0    0 -0.25468346910E+02  0.81495115931E+02  0.17843978462E+02  0.11847652538E+03  0.80175986960E+02 0.  0.
          5    1    5    5  501    0  0.24486639383E+02 -0.38421579233E+02  0.58526318403E+02  0.74318458036E+02  0.47000000000E+01 0. -1.
        -13    1    6    6    0    0 -0.31992974048E+02  0.10013334243E+01 -0.92105637554E+01  0.33307469759E+02  0.00000000000E+00 0.  1.
         14    1    6    6    0    0  0.65246271383E+01  0.80493782506E+02  0.27054542217E+02  0.85169055625E+02  0.00000000000E+00 0. -1.
         -5    1    3    3    0  503  0.75343758845E+01 -0.57053508972E+00  0.13110780808E+02  0.15845343280E+02  0.47000000000E+01 0.  1.
         11    1    4    4    0    0 -0.38047592951E+02 -0.40096840396E+02 -0.30356870518E+03  0.30856009902E+03  0.00000000000E+00 0. -1.
        -12    1    4    4    0    0  0.31494924594E+02 -0.24061612117E+01 -0.10060269981E+03  0.10544488179E+03  0.00000000000E+00 0.  1.
</event>
<event>
12    1  0.8053217E-002  0.2512066E+03  0.7818608E-02  0.1112844E+00
         21   -1    0    0  501  502  0.00000000000E+00  0.00000000000E+00  0.53814323182E+03  0.53814323182E+03  0.00000000000E+00 0.  1.
         21   -1    0    0  502  503 -0.00000000000E+00 -0.00000000000E+00 -0.15746022873E+03  0.15746022873E+03  0.00000000000E+00 0. -1.
         -6    2    1    2    0  503 -0.13215566993E+03 -0.12183053107E+03  0.12156398030E+02  0.24960278790E+03  0.17275987473E+03 0.  0.
        -24    2    3    3    0    0 -0.14846857444E+02 -0.13499026966E+02 -0.31988279901E+02  0.83868316954E+02  0.74886525040E+02 0.  0.
          6    2    1    2  501    0  0.13215566993E+03  0.12183053107E+03  0.36852660506E+03  0.44600067265E+03  0.17549057516E+03 0.  0.
         24    2    5    5    0    0  0.14899911550E+03  0.14202928514E+03  0.29702919229E+03  0.36967465246E+03  0.77845702162E+02 0.  0.
          5    1    5    5  501    0 -0.16843445569E+02 -0.20198754064E+02  0.71497412768E+02  0.76326020183E+02  0.47000000000E+01 0. -1.
        -11    1    6    6    0    0  0.14799436886E+03  0.14683109180E+03  0.26452037830E+03  0.33679776316E+03  0.00000000000E+00 0.  1.
         12    1    6    6    0    0  0.10047466377E+01 -0.48018066671E+01  0.32508813988E+02  0.32876889299E+02  0.00000000000E+00 0. -1.
         -5    1    3    3    0  503 -0.11730881249E+03 -0.10833150411E+03  0.44144677931E+02  0.16573447094E+03  0.47000000000E+01 0.  1.
         13    1    4    4    0    0 -0.43489871152E+02 -0.13109205363E+01 -0.29651065278E+02  0.52652379601E+02  0.00000000000E+00 0. -1.
        -14    1    4    4    0    0  0.28643013708E+02 -0.12188106430E+02 -0.23372146232E+01  0.31215937353E+02  0.00000000000E+00 0.  1.
</event>
<event>
12    1  0.8053217E-002  0.2065624E+03  0.7818608E-02  0.1144406E+00
         21   -1    0    0  503  502  0.00000000000E+00  0.00000000000E+00  0.50441551085E+03  0.50441551085E+03  0.00000000000E+00 0. -1.
         21   -1    0    0  501  503 -0.00000000000E+00 -0.00000000000E+00 -0.88881390649E+02  0.88881390649E+02  0.00000000000E+00 0.  1.
          6    2    1    2  501    0 -0.93311234781E+02  0.66055428739E+02  0.27450269407E+03  0.34354002995E+03  0.17203987015E+03 0.  0.
         24    2    3    3    0    0 -0.61552327812E+02  0.23247223769E+02  0.51679279840E+02  0.11438171237E+03  0.77995549154E+02 0.  0.
         -6    2    1    2    0  502  0.93311234781E+02 -0.66055428739E+02  0.14103142613E+03  0.24975687155E+03  0.17151771200E+03 0.  0.
        -24    2    5    5    0    0  0.38709131726E+02  0.24432052270E+02  0.96317683182E+02  0.13490573884E+03  0.82626510397E+02 0.  0.
          5    1    3    3  501    0 -0.31758906969E+02  0.42808204970E+02  0.22282341423E+03  0.22915831758E+03  0.47000000000E+01 0. -1.
        -13    1    4    4    0    0  0.50093203264E+01  0.27118708492E+02 -0.35485349222E+01  0.27804851025E+02  0.00000000000E+00 0.  1.
         14    1    4    4    0    0 -0.66561648139E+02 -0.38714847237E+01  0.55227814762E+02  0.86576861345E+02  0.00000000000E+00 0. -1.
         -5    1    5    5    0  502  0.54602103055E+02 -0.90487481010E+02  0.44713742947E+02  0.11485113271E+03  0.47000000000E+01 0.  1.
         13    1    6    6    0    0  0.19529699143E+02 -0.50704883145E+01  0.97629295371E+02  0.99692518852E+02  0.00000000000E+00 0. -1.
        -14    1    6    6    0    0  0.19179432583E+02  0.29502540585E+02 -0.13116121892E+01  0.35213219985E+02  0.00000000000E+00 0.  1.
</event>
<event>
12    1  0.8053217E-002  0.2985147E+03  0.7818608E-02  0.1086093E+00
         21   -1    0    0  503  502  0.00000000000E+00  0.00000000000E+00  0.18595297223E+04  0.18595297223E+04  0.00000000000E+00 0. -1.
         21   -1    0    0  501  503 -0.00000000000E+00 -0.00000000000E+00 -0.77719151225E+02  0.77719151225E+02  0.00000000000E+00 0. -1.
          6    2    1    2  501    0 -0.19307389606E+03 -0.14845435791E+03  0.29054558317E+03  0.41656660126E+03  0.17261162089E+03 0.  0.
         24    2    3    3    0    0 -0.10220172098E+03 -0.16957559593E+03  0.19230086099E+03  0.28100121359E+03  0.52735058504E+02 0.  0.
         -6    2    1    2    0  502  0.19307389606E+03  0.14845435791E+03  0.14912649879E+04  0.15206822722E+04  0.17113469340E+03 0.  0.
        -24    2    5    5    0    0  0.20666921620E+03  0.12751034921E+03  0.14492285035E+04  0.14715636378E+04  0.79153209857E+02 0.  0.
          5    1    3    3  501    0 -0.90872175084E+02  0.21121238015E+02  0.98244722179E+02  0.13556538768E+03  0.47000000000E+01 0. -1.
        -11    1    4    4    0    0  0.41708884886E+01 -0.42089497735E+01 -0.66450813305E-01  0.59258741710E+01  0.00000000000E+00 0.  1.
         12    1    4    4    0    0 -0.10637260947E+03 -0.16536664615E+03  0.19236731180E+03  0.27507533941E+03  0.00000000000E+00 0. -1.
         -5    1    5    5    0  502 -0.13595320136E+02  0.20944008702E+02  0.42036484347E+02  0.49118634411E+02  0.47000000000E+01 0.  1.
         11    1    6    6    0    0  0.68268890008E+02  0.76676892032E+02  0.45329679175E+03  0.46477733220E+03  0.00000000000E+00 0. -1.
        -12    1    6    6    0    0  0.13840032619E+03  0.50833457177E+02  0.99593171178E+03  0.10067863056E+04  0.00000000000E+00 0.  1.
</event>
<event>
12    1  0.8053217E-002  0.1878845E+03  0.7818608E-02  0.1160596E+00
         21   -1    0    0  503  502  0.00000000000E+00  0.00000000000E+00  0.82988111980E+02  0.82988111980E+02  0.00000000000E+00 0. -1.
         21   -1    0    0  501  503 -0.00000000000E+00 -0.00000000000E+00 -0.72313790208E+03  0.72313790208E+03  0.00000000000E+00 0. -1.
          6    2    1    2  501    0 -0.21878568812E+02  0.70783173014E+02 -0.57916328390E+03  0.60859131809E+03  0.17165183856E+03 0.  0.
         24    2    3    3    0    0 -0.12953561257E+02  0.99329622547E+02 -0.28016412257E+03  0.30806320956E+03  0.79855099045E+02 0.  0.
         -6    2    1    2    0  502  0.21878568812E+02 -0.70783173014E+02 -0.60986506202E+02  0.19753469597E+03  0.17266057112E+03 0.  0.
        -24    2    5    5    0    0 -0.16650375784E+02  0.19905545406E+02 -0.65974131467E+01  0.84888405916E+02  0.80554638893E+02 0.  0.
          5    1    3    3  501    0 -0.89250075555E+01 -0.28546449533E+02 -0.29899916133E+03  0.30052810853E+03  0.47000000000E+01 0. -1.
        -11    1    4    4    0    0  0.18161119573E+02  0.30229481719E+02 -0.28822316726E+02  0.45545293616E+02  0.00000000000E+00 0.  1.
         12    1    4    4    0    0 -0.31114680830E+02  0.69100140828E+02 -0.25134180585E+03  0.26251791595E+03  0.00000000000E+00 0. -1.
         -5    1    5    5    0  502  0.38528944597E+02 -0.90688718420E+02 -0.54389093055E+02  0.11264629006E+03  0.47000000000E+01 0.  1.
         13    1    6    6    0    0  0.29282897209E+02  0.23978132540E+02  0.23280310467E+01  0.37919106498E+02  0.00000000000E+00 0. -1.
        -14    1    6    6    0    0 -0.45933272993E+02 -0.40725871345E+01 -0.89254441934E+01  0.46969299418E+02  0.00000000000E+00 0.  1.
</event>
<event>
12    1  0.8053217E-002  0.2140473E+03  0.7818608E-02  0.1138432E+00
         21   -1    0    0  501  502  0.00000000000E+00  0.00000000000E+00  0.61586832489E+02  0.61586832489E+02  0.00000000000E+00 0.  1.
         21   -1    0    0  502  503 -0.00000000000E+00 -0.00000000000E+00 -0.10272637741E+04  0.10272637741E+04  0.00000000000E+00 0.  1.
         -6    2    1    2    0  503  0.12354124860E+03 -0.31469249628E+02 -0.76917330053E+03  0.79840077650E+03  0.17194033819E+03 0.  0.
        -24    2    3    3    0    0  0.46309693364E+02  0.42250001599E+02 -0.47093553613E+03  0.48159311366E+03  0.78879639924E+02 0.  0.
          6    2    1    2  501    0 -0.12354124860E+03  0.31469249628E+02 -0.19650364108E+03  0.29044983008E+03  0.17174012071E+03 0.  0.
         24    2    5    5    0    0 -0.97225292320E+02 -0.39742302028E+02 -0.15464044553E+03  0.20362683897E+03  0.80734219002E+02 0.  0.
          5    1    5    5  501    0 -0.26315956279E+02  0.71211551656E+02 -0.41863195543E+02  0.86822991110E+02  0.47000000000E+01 0. -1.
        -11    1    6    6    0    0 -0.59361924370E+02 -0.30253736496E+02 -0.30096187275E+02  0.73108871728E+02  0.00000000000E+00 0.  1.
         12    1    6    6    0    0 -0.37863367950E+02 -0.94885655323E+01 -0.12454425826E+03  0.13051796724E+03  0.00000000000E+00 0. -1.
         -5    1    3    3    0  503  0.77231555235E+02 -0.73719251227E+02 -0.29823776439E+03  0.31680766284E+03  0.47000000000E+01 0.  1.
         13    1    4    4    0    0  0.21054853196E+02 -0.17907308225E+02 -0.67888588904E+02  0.73299652348E+02  0.00000000000E+00 0. -1.
        -14    1    4    4    0    0  0.25254840169E+02  0.60157309824E+02 -0.40304694723E+03  0.40829346131E+03  0.00000000000E+00 0.  1.
</event>
<event>
12    1  0.8053217E-002  0.1797399E+03  0.7818608E-02  0.1168733E+00
         21   -1    0    0  503  502  0.00000000000E+00  0.00000000000E+00  0.15733835268E+04  0.15733835268E+04  0.00000000000E+00 0.  1.
         21   -1    0    0  501  503 -0.00000000000E+00 -0.00000000000E+00 -0.21726006141E+02  0.21726006141E+02  0.00000000000E+00 0.  1.
          6    2    1    2  501    0 -0.68720628725E+01 -0.51165553415E+02  0.57129798802E+03  0.59890553193E+03  0.17216650650E+03 0.  0.
         24    2    3    3    0    0 -0.86602443532E+01 -0.83539291338E+02  0.22612707775E+03  0.25218330334E+03  0.73546924920E+02 0.  0.
         -6    2    1    2    0  502  0.68720628725E+01  0.51165553415E+02  0.98035953269E+03  0.99620400105E+03  0.16927037332E+03 0.  0.
        -24    2    5    5    0    0  0.61140826172E+02  0.15060993957E+01  0.46296486495E+03  0.47358512248E+03  0.78777744910E+02 0.  0.
          5    1    3    3  501    0  0.17881814807E+01  0.32373737923E+02  0.34517091027E+03  0.34672222859E+03  0.47000000000E+01 0. -1.
        -11    1    4    4    0    0  0.25711494558E+02 -0.30751094879E+02  0.44245696707E+02  0.59702533160E+02  0.00000000000E+00 0.  1.
         12    1    4    4    0    0 -0.34371738911E+02 -0.52788196459E+02  0.18188138104E+03  0.19248077018E+03  0.00000000000E+00 0. -1.
         -5    1    5    5    0  502 -0.54268763300E+02  0.49659454019E+02  0.51739466774E+03  0.52261887858E+03  0.47000000000E+01 0.  1.
         13    1    6    6    0    0 -0.17092292944E+02 -0.78789623219E+01  0.56463247675E+02  0.59517416471E+02  0.00000000000E+00 0. -1.
        -14    1    6    6    0    0  0.78233119116E+02  0.93850617176E+01  0.40650161727E+03  0.41406770601E+03  0.00000000000E+00 0.  1.
</event>
<event>
12    1  0.8053217E-002  0.1795899E+03  0.7818608E-02  0.1169487E+00
         21   -1    0    0  503  502  0.00000000000E+00  0.00000000000E+00  0.17586661953E+04  0.17586661953E+04  0.00000000000E+00 0. -1.
         21   -1    0    0  501  503 -0.00000000000E+00 -0.00000000000E+00 -0.17812737492E+02  0.17812737492E+02  0.00000000000E+00 0. -1.
          6    2    1    2  501    0 -0.44208052636E+02  0.43364313694E+01  0.84664291991E+03  0.86441259155E+03  0.16861713450E+03 0.  0.
         24    2    3    3    0    0  0.93589649964E+01  0.48434877359E+02  0.65099952230E+03  0.65677702777E+03  0.71569257424E+02 0.  0.
         -6    2    1    2    0  502  0.44208052636E+02 -0.43364313694E+01  0.89421053795E+03  0.91206634129E+03  0.17400967841E+03 0.  0.
        -24    2    5    5    0    0  0.67537497977E+02  0.52274768645E+02  0.63236701034E+03  0.64311799321E+03  0.80117116447E+02 0.  0.
          5    1    3    3  501    0 -0.53567017632E+02 -0.44098445989E+02  0.19564339761E+03  0.20763556378E+03  0.47000000000E+01 0. -1.
        -11    1    4    4    0    0  0.12078220532E+02  0.22771881444E+02  0.58974726326E+03  0.59031032222E+03  0.00000000000E+00 0.  1.
         12    1    4    4    0    0 -0.27192555359E+01  0.25662995914E+02  0.61252259034E+02  0.66466705551E+02  0.00000000000E+00 0. -1.
         -5    1    5    5    0  502 -0.23329445341E+02 -0.56611200014E+02  0.26184352760E+03  0.26894834808E+03  0.47000000000E+01 0.  1.
         11    1    6    6    0    0  0.11212453684E+01  0.21808357659E+02  0.37344206565E+03  0.37407998885E+03  0.00000000000E+00 0. -1.
        -12    1    6    6    0    0  0.66416252608E+02  0.30466410986E+02  0.25892494469E+03  0.26903800436E+03  0.00000000000E+00 0.  1.
</event>
<event>
12    1  0.8053217E-002  0.2229362E+03  0.7818608E-02  0.1132761E+00
         21   -1    0    0  503  502  0.00000000000E+00  0.00000000000E+00  0.49718144023E+02  0.49718144023E+02  0.00000000000E+00 0.  1.
         21   -1    0    0  501  503 -0.00000000000E+00 -0.00000000000E+00 -0.10493560137E+04  0.10493560137E+04  0.00000000000E+00 0. -1.
          6    2    1    2  501    0  0.12677218965E+03 -0.69619200167E+02 -0.64063913212E+03  0.67648614097E+03  0.16216343673E+03 0.  0.
         24    2    3    3    0    0  0.46212125832E+02  0.17873003317E+02 -0.37821781678E+03  0.38833367039E+03  0.72796413426E+02 0.  0.
         -6    2    1    2    0  502 -0.12677218965E+03  0.69619200167E+02 -0.35899873757E+03  0.42258801678E+03  0.16965411060E+03 0.  0.
        -24    2    5    5    0    0 -0.14875577342E+03  0.87502549196E+02 -0.32097680135E+03  0.37493458288E+03  0.88118432770E+02 0.  0.
          5    1    3    3  501    0  0.80560063815E+02 -0.87492203485E+02 -0.26242131534E+03  0.28815247057E+03  0.47000000000E+01 0. -1.
        -11    1    4    4    0    0  0.26342065546E+02  0.28698734314E+02 -0.77249469669E+02  0.86515907974E+02  0.00000000000E+00 0.  1.
         12    1    4    4    0    0  0.19870060286E+02 -0.10825730996E+02 -0.30096834711E+03  0.30181776242E+03  0.00000000000E+00 0. -1.
         -5    1    5    5    0  502  0.21983583772E+02 -0.17883349029E+02 -0.38021936225E+02  0.47653433898E+02  0.47000000000E+01 0.  1.
         13    1    6    6    0    0 -0.76065504984E+02  0.26569520707E+02 -0.22920500606E+03  0.24295438930E+03  0.00000000000E+00 0. -1.
        -14    1    6    6    0    0 -0.72690268434E+02  0.60933028490E+02 -0.91771795292E+02  0.13198019358E+03  0.00000000000E+00 0.  1.
</event>
<event>
12    1  0.8053217E-002  0.1860227E+03  0.7818608E-02  0.1162410E+00
         21   -1    0    0  501  502  0.00000000000E+00  0.00000000000E+00  0.71022397817E+02  0.71022397817E+02  0.00000000000E+00 0.  1.
         21   -1    0    0  502  503 -0.00000000000E+00 -0.00000000000E+00 -0.50961847357E+03  0.50961847357E+03  0.00000000000E+00 0.  1.
         -6    2    1    2    0  503 -0.67532276507E+02  0.22149032357E+02 -0.28548933841E+03  0.34074714469E+03  0.17191063453E+03 0.  0.
        -24    2    3    3    0    0  0.24416654196E+02  0.17862688773E+01 -0.83419386934E+02  0.11775924528E+03  0.79429729788E+02 0.  0.
          6    2    1    2  501    0  0.67532276507E+02 -0.22149032357E+02 -0.15310673735E+03  0.23989372670E+03  0.17045861399E+03 0.  0.
         24    2    5    5    0    0  0.95809201238E+02 -0.35950882451E+02 -0.16102551511E+03  0.20710847728E+03  0.80578135066E+02 0.  0.
          5    1    5    5  501    0 -0.28276924731E+02  0.13801850094E+02  0.79187777688E+01  0.32785249421E+02  0.47000000000E+01 0. -1.
        -13    1    6    6    0    0  0.49728597479E+02  0.22702911382E+02 -0.80900601692E+02  0.97638429661E+02  0.00000000000E+00 0.  1.
         14    1    6    6    0    0  0.46080603759E+02 -0.58653793834E+02 -0.80124913422E+02  0.10947004761E+03  0.00000000000E+00 0. -1.
         -5    1    3    3    0  503 -0.91948930704E+02  0.20362763480E+02 -0.20206995147E+03  0.22298789941E+03  0.47000000000E+01 0.  1.
         11    1    4    4    0    0  0.23140316764E+02 -0.37244156909E+02 -0.48367584678E+02  0.65284184389E+02  0.00000000000E+00 0. -1.
        -12    1    4    4    0    0  0.12763374319E+01  0.39030425786E+02 -0.35051802256E+02  0.52475060892E+02  0.00000000000E+00 0.  1.
</event>
<event>
12    1  0.8053217E-002  0.2436036E+03  0.7818608E-02  0.1117627E+00
         21   -1    0    0  503  502  0.00000000000E+00  0.00000000000E+00  0.27462643991E+03  0.27462643991E+03  0.00000000000E+00 0.  1.
         21   -1    0    0  501  503 -0.00000000000E+00 -0.00000000000E+00 -0.63131407727E+03  0.63131407727E+03  0.00000000000E+00 0. -1.
          6    2    1    2  501    0 -0.31707066436E+02 -0.16998438079E+03 -0.54604632114E+03  0.59739649453E+03  0.16975264081E+03 0.  0.
         24    2    3    3    0    0  0.37283755543E+02 -0.13819393249E+03 -0.41047593311E+03  0.44192371160E+03  0.79488576558E+02 0.  0.
         -6    2    1    2    0  502  0.31707066436E+02  0.16998438079E+03  0.18935868378E+03  0.30854402265E+03  0.17158867974E+03 0.  0.
        -24    2    5    5    0    0  0.34357585299E+01  0.28021401347E+02  0.12371162008E+03  0.14953338981E+03  0.79111733356E+02 0.  0.
          5    1    3    3  501    0 -0.68990821979E+02 -0.31790448302E+02 -0.13557038803E+03  0.15547278293E+03  0.47000000000E+01 0. -1.
        -13    1    4    4    0    0  0.51781829285E+02 -0.13004569532E+03 -0.31075308974E+03  0.34082359587E+03  0.00000000000E+00 0.  1.
         14    1    4    4    0    0 -0.14498073742E+02 -0.81482371744E+01 -0.99722843367E+02  0.10110011573E+03  0.00000000000E+00 0. -1.
         -5    1    5    5    0  502  0.28271307906E+02  0.14196297944E+03  0.65647063703E+02  0.15901063284E+03  0.47000000000E+01 0.  1.
         13    1    6    6    0    0 -0.23876068603E+02 -0.23844548724E+01  0.57251034855E+01  0.24668382333E+02  0.00000000000E+00 0. -1.
        -14    1    6    6    0    0  0.27311827133E+02  0.30405856220E+02  0.11798651659E+03  0.12486500748E+03  0.00000000000E+00 0.  1.
</event>
<event>
12    1  0.8053217E-002  0.2833427E+03  0.7818608E-02  0.1093910E+00
         21   -1    0    0  503  502  0.00000000000E+00  0.00000000000E+00  0.19102510333E+03  0.19102510333E+03  0.00000000000E+00 0.  1.
         21   -1    0    0  501  503 -0.00000000000E+00 -0.00000000000E+00 -0.68621764338E+03  0.68621764338E+03  0.00000000000E+00 0.  1.
          6    2    1    2  501    0 -0.19267120401E+03  0.11671310146E+03 -0.52077492262E+03  0.59274748688E+03  0.17146113922E+03 0.  0.
         24    2    3    3    0    0 -0.74384916848E+02 -0.50405103997E+01 -0.25849249127E+03  0.28028988731E+03  0.78648142298E+02 0.  0.
         -6    2    1    2    0  502  0.19267120401E+03 -0.11671310146E+03  0.25582382569E+02  0.28449525983E+03  0.17186900145E+03 0.  0.
        -24    2    5    5    0    0  0.12128206681E+03 -0.26477735362E+02 -0.34699815431E+02  0.15451501671E+03  0.85207998441E+02 0.  0.
          5    1    3    3  501    0 -0.11828628716E+03  0.12175361186E+03 -0.26228243135E+03  0.31245759956E+03  0.47000000000E+01 0. -1.
        -11    1    4    4    0    0 -0.91008543767E+02 -0.31533481872E+01 -0.20692244958E+03  0.22607387904E+03  0.00000000000E+00 0.  1.
         12    1    4    4    0    0  0.16623626920E+02 -0.18871622126E+01 -0.51570041691E+02  0.54216008274E+02  0.00000000000E+00 0. -1.
         -5    1    5    5    0  502  0.71389137203E+02 -0.90235366101E+02  0.60282198000E+02  0.12998024312E+03  0.47000000000E+01 0.  1.
         13    1    6    6    0    0  0.59258062716E+02  0.20018139429E+02  0.12463934069E+02  0.63777688540E+02  0.00000000000E+00 0. -1.
        -14    1    6    6    0    0  0.62024004090E+02 -0.46495874791E+02 -0.47163749500E+02  0.90737328167E+02  0.00000000000E+00 0.  1.
</event>
<event>
12    1  0.8053217E-002  0.3163384E+03  0.7818608E-02  0.1077513E+00
         21   -1    0    0  501  502  0.00000000000E+00  0.00000000000E+00  0.17411019070E+03  0.17411019070E+03  0.00000000000E+00 0. -1.
         21   -1    0    0  502  503 -0.00000000000E+00 -0.00000000000E+00 -0.68732571810E+03  0.68732571810E+03  0.00000000000E+00 0.  1.
         -6    2    1    2    0  503 -0.80646747361E+02  0.25181388988E+03 -0.79830230982E+02  0.32487950932E+03  0.17105466028E+03 0.  0.
        -24    2    3    3    0    0 -0.88209394512E+02  0.26930454689E+03 -0.77876206904E+02  0.30515579455E+03  0.82155456840E+02 0.  0.
          6    2    1    2  501    0  0.80646747361E+02 -0.25181388988E+03 -0.43338529641E+03  0.53655639947E+03  0.17365431660E+03 0.  0.
         24    2    5    5    0    0  0.90056406981E+02 -0.26966728234E+03 -0.39438506446E+03  0.49239314089E+03  0.77979654540E+02 0.  0.
          5    1    5    5  501    0 -0.94096596200E+01  0.17853392460E+02 -0.39000231949E+02  0.44163258582E+02  0.47000000000E+01 0. -1.
        -11    1    6    6    0    0  0.92737482134E+02 -0.21736411894E+03 -0.27869871118E+03  0.36540439571E+03  0.00000000000E+00 0.  1.
         12    1    6    6    0    0 -0.26810751533E+01 -0.52303163409E+02 -0.11568635328E+03  0.12698874518E+03  0.00000000000E+00 0. -1.
         -5    1    3    3    0  503  0.75626471512E+01 -0.17490657007E+02 -0.19540240773E+01  0.19723714776E+02  0.47000000000E+01 0.  1.
         11    1    4    4    0    0 -0.70641818426E+02  0.19133629885E+03 -0.16959210401E+02  0.20466426309E+03  0.00000000000E+00 0. -1.
        -12    1    4    4    0    0 -0.17567576086E+02  0.77968248036E+02 -0.60916996503E+02  0.10049153146E+03  0.00000000000E+00 0.  1.
</event>
<event>
12    1  0.8053217E-002  0.2007400E+03  0.7818608E-02  0.1149198E+00
         21   -1    0    0  503  502  0.00000000000E+00  0.00000000000E+00  0.14915414346E+03  0.14915414346E+03  0.00000000000E+00 0. -1.
         21   -1    0    0  501  503 -0.00000000000E+00 -0.00000000000E+00 -0.34697672682E+03  0.34697672682E+03  0.00000000000E+00 0. -1.
          6    2    1    2  501    0 -0.81339087438E+02 -0.62664743042E+02 -0.21594845261E+03  0.29457420549E+03  0.17203869097E+03 0.  0.
         24    2    3    3    0    0 -0.69958960157E+02  0.26577747746E+02 -0.11898398533E+03  0.16221889818E+03  0.80976227255E+02 0.  0.
         -6    2    1    2    0  502  0.81339087438E+02  0.62664743042E+02  0.18125869256E+02  0.20155666479E+03  0.17249239061E+03 0.  0.
        -24    2    5    5    0    0  0.10853688852E+02 -0.32086855829E+01 -0.33212905288E+02  0.92170834885E+02  0.85230672301E+02 0.  0.
          5    1    3    3  501    0 -0.11380127281E+02 -0.89242490788E+02 -0.96964467278E+02  0.13235530731E+03  0.47000000000E+01 0. -1.
        -11    1    4    4    0    0 -0.54705570311E+02  0.50482202563E+02 -0.10932698849E+03  0.13226315666E+03  0.00000000000E+00 0.  1.
         12    1    4    4    0    0 -0.15253389845E+02 -0.23904454817E+02 -0.96569968445E+01  0.29955741519E+02  0.00000000000E+00 0. -1.
         -5    1    5    5    0  502  0.70485398586E+02  0.65873428624E+02  0.51338774544E+02  0.10938582991E+03  0.47000000000E+01 0.  1.
         11    1    6    6    0    0  0.47288089545E+02  0.56964567777E+01 -0.12153349981E+02  0.49156046916E+02  0.00000000000E+00 0. -1.
        -12    1    6    6    0    0 -0.36434400693E+02 -0.89051423605E+01 -0.21059555307E+02  0.43014787969E+02  0.00000000000E+00 0.  1.
</event>
<event>
12    1  0.8053217E-002  0.2147151E+03  0.7818608E-02  0.1138020E+00
         21   -1    0    0  503  502  0.00000000000E+00  0.00000000000E+00  0.25012489412E+03  0.25012489412E+03  0.00000000000E+00 0. -1.
         21   -1    0    0  501  503 -0.00000000000E+00 -0.00000000000E+00 -0.30817846874E+03  0.30817846874E+03  0.00000000000E+00 0.  1.
          6    2    1    2  501    0  0.12595171508E+03  0.16191580047E+02 -0.20639715967E+03  0.29732749213E+03  0.17227259869E+03 0.  0.
         24    2    3    3    0    0  0.11512321687E+03  0.55184427544E+02 -0.92112364169E+02  0.17599817576E+03  0.78689224992E+02 0.  0.
         -6    2    1    2    0  502 -0.12595171508E+03 -0.16191580047E+02  0.14834358505E+03  0.26097587073E+03  0.17313747163E+03 0.  0.
        -24    2    5    5    0    0 -0.12072570419E+03  0.13342261753E+02  0.17121841311E+03  0.22296394155E+03  0.75129638922E+02 0.  0.
          5    1    3    3  501    0  0.10828498204E+02 -0.38992847497E+02 -0.11428479550E+03  0.12132931637E+03  0.47000000000E+01 0. -1.
        -11    1    4    4    0    0  0.84771600986E+02 -0.22683565147E+01 -0.56522701104E+02  0.10191263668E+03  0.00000000000E+00 0.  1.
         12    1    4    4    0    0  0.30351615889E+02  0.57452784059E+02 -0.35589663065E+02  0.74085539077E+02  0.00000000000E+00 0. -1.
         -5    1    5    5    0  502 -0.52260108913E+01 -0.29533841800E+02 -0.22874828057E+02  0.38011929180E+02  0.47000000000E+01 0.  1.
         13    1    6    6    0    0 -0.13352167906E+02 -0.11252091398E+02  0.74038971320E+02  0.76070094141E+02  0.00000000000E+00 0. -1.
        -14    1    6    6    0    0 -0.10737353628E+03  0.24594353151E+02  0.97179441789E+02  0.14689384741E+03  0.00000000000E+00 0.  1.
</event>
<event>
12    1  0.8053217E-002  0.2089350E+03  0.7818608E-02  0.1142543E+00
         21   -1    0    0  501  502  0.00000000000E+00  0.00000000000E+00  0.68343728619E+03  0.68343728619E+03  0.00000000000E+00 0.  1.
         21   -1    0    0  502  503 -0.00000000000E+00 -0.00000000000E+00 -0.65584632168E+02  0.65584632168E+02  0.00000000000E+00 0. -1.
         -6    2    1    2    0  503 -0.11096799320E+03  0.41131098993E+02  0.24546939407E+03  0.32234926609E+03  0.17218641963E+03 0.  0.
        -24    2    3    3    0    0 -0.82356764520E+02 -0.75911704893E+01  0.24020874697E+03  0.26540871500E+03  0.76819797887E+02 0.  0.
          6    2    1    2  501    0  0.11096799320E+03 -0.41131098993E+02  0.37238325996E+03  0.42667265227E+03  0.17139018958E+03 0.  0.
         24    2    5    5    0    0  0.73854335625E+02 -0.86990999074E+02  0.19382844219E+03  0.23856505817E+03  0.79510534936E+02 0.  0.
          5    1    5    5  501    0  0.37113657571E+02  0.45859900081E+02  0.17855481776E+03  0.18810759410E+03  0.47000000000E+01 0. -1.
        -13    1    6    6    0    0  0.23157682947E+02 -0.23896427318E+02  0.13358528197E+03  0.13766751642E+03  0.00000000000E+00 0.  1.
         14    1    6    6    0    0  0.50696652679E+02 -0.63094571755E+02  0.60243160227E+02  0.10089754175E+03  0.00000000000E+00 0. -1.
         -5    1    3    3    0  503 -0.28611228676E+02  0.48722269482E+02  0.52606471011E+01  0.56940551084E+02  0.47000000000E+01 0.  1.
         13    1    4    4    0    0 -0.72576603456E+02 -0.10427954086E+02  0.95787902689E+02  0.12062929950E+03  0.00000000000E+00 0. -1.
        -14    1    4    4    0    0 -0.97801610641E+01  0.28367835963E+01  0.14442084428E+03  0.14477941551E+03  0.00000000000E+00 0.  1.
</event>
<event>
12    1  0.8053217E-002  0.1743977E+03  0.7818608E-02  0.1173449E+00
         21   -1    0    0  503  502  0.00000000000E+00  0.00000000000E+00  0.21565954302E+03  0.21565954302E+03  0.00000000000E+00 0. -1.
         21   -1    0    0  501  503 -0.00000000000E+00 -0.00000000000E+00 -0.25680201343E+03  0.25680201343E+03  0.00000000000E+00 0. -1.
          6    2    1    2  501    0  0.52895474513E+01 -0.31725578919E+02 -0.17944283048E+03  0.25022844014E+03  0.17140610016E+03 0.  0.
         24    2    3    3    0    0  0.66871058487E+02 -0.31869298124E+02 -0.14327323244E+03  0.17865586872E+03  0.76832998572E+02 0.  0.
         -6    2    1    2    0  502 -0.52895474513E+01  0.31725578919E+02  0.13830036008E+03  0.22223311631E+03  0.17095635910E+03 0.  0.
        -24    2    5    5    0    0  0.22796802041E+01  0.86880161953E+02  0.96592393650E+02  0.15251249023E+03  0.79853676698E+02 0.  0.
          5    1    3    3  501    0 -0.61581511036E+02  0.14371920475E+00 -0.36169598047E+02  0.71572571419E+02  0.47000000000E+01 0. -1.
        -11    1    4    4    0    0  0.43069228382E+02 -0.10954463906E+02 -0.15583418674E+02  0.47093541494E+02  0.00000000000E+00 0.  1.
         12    1    4    4    0    0  0.23801830105E+02 -0.20914834217E+02 -0.12768981376E+03  0.13156232723E+03  0.00000000000E+00 0. -1.
         -5    1    5    5    0  502 -0.75692276554E+01 -0.55154583034E+02  0.41707966428E+02  0.69720626077E+02  0.47000000000E+01 0.  1.
         11    1    6    6    0    0 -0.28862785489E+02  0.66193426435E+02  0.88565038904E+02  0.11427333987E+03  0.00000000000E+00 0. -1.
        -12    1    6    6    0    0  0.31142465693E+02  0.20686735518E+02  0.80273547456E+01  0.38239150357E+02  0.00000000000E+00 0.  1.
</event>
<event>
12    1  0.8053217E-002  0.1921970E+03  0.7818608E-02  0.1156617E+00
         21   -1    0    0  503  502  0.00000000000E+00  0.00000000000E+00  0.46918245282E+03  0.46918245282E+03  0.00000000000E+00 0.  1.
         21   -1    0    0  501  503 -0.00000000000E+00 -0.00000000000E+00 -0.91619433774E+02  0.91619433774E+02  0.00000000000E+00 0.  1.
          6    2    1    2  501    0  0.83015553111E+02 -0.53908469402E+01  0.82934643937E+02  0.20932715132E+03  0.17326008723E+03 0.  0.
         24    2    3    3    0    0  0.76337791128E+02 -0.26516775999E+02 -0.81010063729E+01  0.11551629368E+03  0.82144933128E+02 0.  0.
         -6    2    1    2    0  502 -0.83015553111E+02  0.53908469402E+01  0.29462837511E+03  0.35147473527E+03  0.17264983876E+03 0.  0.
        -24    2    5    5    0    0 -0.10226515137E+03 -0.45885185913E+02  0.22567980148E+03  0.26329438380E+03  0.76347549259E+02 0.  0.
          5    1    3    3  501    0  0.66777619836E+01  0.21125929059E+02  0.91035650309E+02  0.93810857639E+02  0.47000000000E+01 0. -1.
        -11    1    4    4    0    0  0.29959483665E+02 -0.13616180523E+02  0.37023207676E+02  0.49534724589E+02  0.00000000000E+00 0.  1.
         12    1    4    4    0    0  0.46378307462E+02 -0.12900595476E+02 -0.45124214049E+02  0.65981569095E+02  0.00000000000E+00 0. -1.
         -5    1    5    5    0  502  0.19249598261E+02  0.51276032853E+02  0.68948573631E+02  0.88180351462E+02  0.47000000000E+01 0.  1.
         11    1    6    6    0    0  0.83610035478E+01  0.34149623368E+01  0.25027768669E+01  0.93718856231E+01  0.00000000000E+00 0. -1.
        -12    1    6    6    0    0 -0.11062615492E+03 -0.49300148250E+02  0.22317702461E+03  0.25392249818E+03  0.00000000000E+00 0.  1.
</event>
<event>
12    1  0.8053217E-002  0.2316014E+03  0.7818608E-02  0.1125549E+00
         21   -1    0    0  503  502  0.00000000000E+00  0.00000000000E+00  0.28607034338E+03  0.28607034338E+03  0.00000000000E+00 0. -1.
         21   -1    0    0  501  503 -0.00000000000E+00 -0.00000000000E+00 -0.30332755117E+03  0.30332755117E+03  0.00000000000E+00 0. -1.
          6    2    1    2  501    0 -0.13745041965E+03  0.71400309792E+02 -0.19084818988E+03  0.30010370297E+03  0.17218762690E+03 0.  0.
         24    2    3    3    0    0 -0.64585178533E+02  0.97407328853E+02 -0.16572387055E+03  0.21862346104E+03  0.81684658576E+02 0.  0.
         -6    2    1    2    0  502  0.13745041965E+03 -0.71400309792E+02  0.17359098209E+03  0.28929419158E+03  0.17194963832E+03 0.  0.
        -24    2    5    5    0    0 -0.97833794620E-01 -0.38733670412E+02  0.62953433035E+02  0.10971304386E+03  0.81077188334E+02 0.  0.
          5    1    3    3  501    0 -0.72865241116E+02 -0.26007019061E+02 -0.25124319326E+02  0.81480241930E+02  0.47000000000E+01 0. -1.
        -13    1    4    4    0    0 -0.98378054993E+01 -0.11432985616E+02 -0.30570454480E+01  0.15389642751E+02  0.00000000000E+00 0.  1.
         14    1    4    4    0    0 -0.54747373033E+02  0.10884031447E+03 -0.16266682510E+03  0.20323381829E+03  0.00000000000E+00 0. -1.
         -5    1    5    5    0  502  0.13754825344E+03 -0.32666639380E+02  0.11063754905E+03  0.17958114771E+03  0.47000000000E+01 0.  1.
         13    1    6    6    0    0  0.15561914316E+02  0.49226010787E+01 -0.12899769353E+02  0.20804067581E+02  0.00000000000E+00 0. -1.
        -14    1    6    6    0    0 -0.15659748111E+02 -0.43656271491E+02  0.75853202387E+02  0.88908976284E+02  0.00000000000E+00 0.  1.
</event>
<event>
12    1  0.8053217E-002  0.2037728E+03  0.7818608E-02  0.1146809E+00
         21   -1    0    0  501  502  0.00000000000E+00  0.00000000000E+00  0.66413298507E+02  0.66413298507E+02  0.00000000000E+00 0.  1.
         21   -1    0    0  502  503 -0.00000000000E+00 -0.00000000000E+00 -0.78714875385E+03  0.78714875385E+03  0.00000000000E+00 0.  1.
         -6    2    1    2    0  503  0.69346210837E+02 -0.84447382440E+02 -0.55510289019E+03  0.59096447531E+03  0.17076163216E+03 0.  0.
        -24    2    3    3    0    0 -0.22309230646E+02 -0.87054897570E+01 -0.23572086313E+03  0.25013530479E+03  0.80186395779E+02 0.  0.
          6    2    1    2  501    0 -0.69346210837E+02  0.84447382440E+02 -0.16563256515E+03  0.26259757705E+03  0.17199733566E+03 0.  0.
         24    2    5    5    0    0 -0.11356377510E+03  0.61623776616E+02 -0.13969604686E+03  0.20628680585E+03  0.79655758718E+02 0.  0.
          5    1    5    5  501    0  0.44217564267E+02  0.22823605824E+02 -0.25936518291E+02  0.56310771204E+02  0.47000000000E+01 0. -1.
        -13    1    6    6    0    0 -0.66879858877E+02 -0.69368077536E+01 -0.47827022406E+02  0.82513386171E+02  0.00000000000E+00 0.  1.
         14    1    6    6    0    0 -0.46683916226E+02  0.68560584370E+02 -0.91869024456E+02  0.12377341967E+03  0.00000000000E+00 0. -1.
         -5    1    3    3    0  503  0.91655441483E+02 -0.75741892683E+02 -0.31938202707E+03  0.34082917052E+03  0.47000000000E+01 0.  1.
         11    1    4    4    0    0 -0.39053481972E+02  0.15849367022E+02 -0.19625788992E+03  0.20073249923E+03  0.00000000000E+00 0. -1.
        -12    1    4    4    0    0  0.16744251326E+02 -0.24554856779E+02 -0.39462973205E+02  0.49402805570E+02  0.00000000000E+00 0.  1.
</event>
<event>
12    1  0.8053217E-002  0.2196161E+03  0.7818608E-02  0.1134327E+00
         21   -1    0    0  501  502  0.00000000000E+00  0.00000000000E+00  0.30614236280E+03  0.30614236280E+03  0.00000000000E+00 0. -1.
         21   -1    0    0  502  503 -0.00000000000E+00 -0.00000000000E+00 -0.11089227492E+04  0.11089227492E+04  0.00000000000E+00 0. -1.
         -6    2    1    2    0  503 -0.64149813550E+02  0.11883840105E+03 -0.10568372303E+04  0.10792435951E+04  0.17211636199E+03 0.  0.
        -24    2    3    3    0    0 -0.24560568348E+02  0.13837795159E+03 -0.67881419992E+03  0.69862225588E+03  0.86790894617E+02 0.  0.
          6    2    1    2  501    0  0.64149813550E+02 -0.11883840105E+03  0.25405684394E+03  0.33582151686E+03  0.17318616312E+03 0.  0.
         24    2    5    5    0    0  0.21964042812E+02  0.19428215569E+01  0.55849000452E+02  0.99863507452E+02  0.79796087229E+02 0.  0.
          5    1    5    5  501    0  0.42185770739E+02 -0.12078122261E+03  0.19820784348E+03  0.23595800941E+03  0.47000000000E+01 0. -1.
        -11    1    6    6    0    0  0.31403219801E+02  0.15144615104E+02 -0.64755443630E+01  0.35460601451E+02  0.00000000000E+00 0.  1.
         12    1    6    6    0    0 -0.94391769888E+01 -0.13201793547E+02  0.62324544815E+02  0.64402906001E+02  0.00000000000E+00 0. -1.
         -5    1    3    3    0  503 -0.39589245202E+02 -0.19539550542E+02 -0.37802303039E+03  0.38062133923E+03  0.47000000000E+01 0.  1.
         11    1    4    4    0    0  0.45451466501E+01  0.73990473869E+02 -0.51373849675E+03  0.51905923711E+03  0.00000000000E+00 0. -1.
        -12    1    4    4    0    0 -0.29105714998E+02  0.64387477723E+02 -0.16507570317E+03  0.17956301877E+03  0.00000000000E+00 0.  1.
</event>
<event>
12    1  0.8053217E-002  0.2608748E+03  0.7818608E-02  0.1107011E+00
         21   -1    0    0  501  502  0.00000000000E+00  0.00000000000E+00  0.70868867146E+02  0.70868867146E+02  0.00000000000E+00 0. -1.
         21   -1    0    0  502  503 -0.00000000000E+00 -0.00000000000E+00 -0.12073698064E+04  0.12073698064E+04  0.00000000000E+00 0. -1.
         -6    2    1    2    0  503  0.19706294894E+03  0.12241342205E+02 -0.86516174451E+03  0.90363736725E+03  0.17050510554E+03 0.  0.
        -24    2    3    3    0    0  0.19339719987E+03  0.51367985171E+02 -0.64998667642E+03  0.68485269723E+03  0.80618797833E+02 0.  0.
          6    2    1    2  501    0 -0.19706294894E+03 -0.12241342205E+02 -0.27133919471E+03  0.37460130627E+03  0.16648580651E+03 0.  0.
         24    2    5    5    0    0 -0.11515179157E+03  0.56625900371E+02 -0.15876536549E+03  0.21920796076E+03  0.79870276626E+02 0.  0.
          5    1    5    5  501    0 -0.81911157367E+02 -0.68867242576E+02 -0.11257382922E+03  0.15539334550E+03  0.47000000000E+01 0. -1.
        -13    1    6    6    0    0  0.21565590456E+01  0.24214337556E+02 -0.83092214520E+01  0.25691011100E+02  0.00000000000E+00 0.  1.
         14    1    6    6    0    0 -0.11730835062E+03  0.32411562814E+02 -0.15045614404E+03  0.19351694966E+03  0.00000000000E+00 0. -1.
         -5    1    3    3    0  503  0.36657490715E+01 -0.39126642966E+02 -0.21517506809E+03  0.21878467002E+03  0.47000000000E+01 0.  1.
         11    1    4    4    0    0  0.11391899558E+03  0.24136675097E+02 -0.24529302261E+03  0.27153044688E+03  0.00000000000E+00 0. -1.
        -12    1    4    4    0    0  0.79478204281E+02  0.27231310075E+02 -0.40469365381E+03  0.41332225035E+03  0.00000000000E+00 0.  1.
</event>
<event>
12    1  0.8053217E-002  0.2358032E+03  0.7818608E-02  0.1123896E+00
         21   -1    0    0  503  502  0.00000000000E+00  0.00000000000E+00  0.75744042542E+02  0.75744042542E+02  0.00000000000E+00 0. -1.
         21   -1    0    0  501  503 -0.00000000000E+00 -0.00000000000E+00 -0.75714778158E+03  0.75714778158E+03  0.00000000000E+00 0. -1.
          6    2    1    2  501    0 -0.15854917954E+03  0.45225471717E+01 -0.23323919874E+03  0.32647837481E+03  0.16440592940E+03 0.  0.
         24    2    3    3    0    0 -0.12420577242E+03  0.51014394172E+02 -0.11589911558E+03  0.19559007676E+03  0.82421664746E+02 0.  0.
         -6    2    1    2    0  502  0.15854917954E+03 -0.45225471717E+01 -0.44816454029E+03  0.50641344931E+03  0.17448447124E+03 0.  0.
        -24    2    5    5    0    0  0.99281710553E+02 -0.64328999330E+01 -0.12669438842E+03  0.17948619307E+03  0.79155449558E+02 0.  0.
          5    1    3    3  501    0 -0.34343407120E+02 -0.46491847001E+02 -0.11734008316E+03  0.13088829805E+03  0.47000000000E+01 0. -1.
        -13    1    4    4    0    0 -0.51085635236E+01  0.23337138363E+02 -0.52898422739E+02  0.58042765066E+02  0.00000000000E+00 0.  1.
         14    1    4    4    0    0 -0.11909720889E+03  0.27677255809E+02 -0.63000692842E+02  0.13754731169E+03  0.00000000000E+00 0. -1.
         -5    1    5    5    0  502  0.59267468983E+02  0.19103527613E+01 -0.32147015187E+03  0.32692725624E+03  0.47000000000E+01 0.  1.
         13    1    6    6    0    0  0.99209045237E+02  0.88755172114E+01 -0.13005261180E+03  0.16381358704E+03  0.00000000000E+00 0. -1.
        -14    1    6    6    0    0  0.72665315174E-01 -0.15308417144E+02  0.33582233763E+01  0.15672606036E+02  0.00000000000E+00 0.  1.
</event>
<event>
12    1  0.8053217E-002  0.2424181E+03  0.7818608E-02  0.1118265E+00
         21   -1    0    0  503  502  0.00000000000E+00  0.00000000000E+00  0.10865686662E+04  0.10865686662E+04  0.00000000000E+00 0. -1.
         21   -1    0    0  501  503 -0.00000000000E+00 -0.00000000000E+00 -0.61210776855E+02  0.61210776855E+02  0.00000000000E+00 0. -1.
          6    2    1    2  501    0 -0.10739167014E+03 -0.13401107964E+03  0.31592242475E+03  0.39821292811E+03  0.17109826817E+03 0.  0.
         24    2    3    3    0    0 -0.39820218114E+02 -0.57567718178E+02  0.61338588913E+02  0.12390560391E+03  0.81795380330E+02 0.  0.
         -6    2    1    2    0  502  0.10739167014E+03  0.13401107964E+03  0.70943546457E+03  0.74956651493E+03  0.17046800762E+03 0.  0.
        -24    2    5    5    0    0  0.62698080791E+01  0.11215913196E+03  0.38029843571E+03  0.40452099275E+03  0.79945931710E+02 0.  0.
          5    1    3    3  501    0 -0.67571452027E+02 -0.76443361460E+02  0.25458383584E+03  0.27430732420E+03  0.47000000000E+01 0. -1.
        -11    1    4    4    0    0  0.12969507919E+02  0.12737041360E+02  0.30796658066E+01  0.18437046937E+02  0.00000000000E+00 0.  1.
         12    1    4    4    0    0 -0.52789726033E+02 -0.70304759538E+02  0.58258923107E+02  0.10546855697E+03  0.00000000000E+00 0. -1.
         -5    1    5    5    0  502  0.10112186206E+03  0.21851947682E+02  0.32913702886E+03  0.34504552217E+03  0.47000000000E+01 0.  1.
         11    1    6    6    0    0 -0.15834388306E+02  0.86689204428E+02  0.16947288309E+03  0.19101519342E+03  0.00000000000E+00 0. -1.
        -12    1    6    6    0    0  0.22104196385E+02  0.25469927528E+02  0.21082555263E+03  0.21350579933E+03  0.00000000000E+00 0.  1.
</event>
<event>
12    1  0.8053217E-002  0.2758968E+03  0.7818608E-02  0.1098076E+00
         21   -1    0    0  503  502  0.00000000000E+00  0.00000000000E+00  0.60180761103E+03  0.60180761103E+03  0.00000000000E+00 0.  1.
         21   -1    0    0  501  503 -0.00000000000E+00 -0.00000000000E+00 -0.12677705246E+03  0.12677705246E+03  0.00000000000E+00 0. -1.
          6    2    1    2  501    0 -0.19533866666E+03  0.89636583104E+02  0.21077300472E+03  0.34719487086E+03  0.17299452914E+03 0.  0.
         24    2    3    3    0    0 -0.19600822692E+03  0.50508258986E+02  0.12114824782E+03  0.24928592792E+03  0.80599420960E+02 0.  0.
         -6    2    1    2    0  502  0.19533866666E+03 -0.89636583104E+02  0.26425755384E+03  0.38138979263E+03  0.17156400391E+03 0.  0.
        -24    2    5    5    0    0  0.19218615679E+03 -0.24283672205E+02  0.20757075903E+03  0.29469248017E+03  0.78948225236E+02 0.  0.
          5    1    3    3  501    0  0.66956026693E+00  0.39128324118E+02  0.89624756898E+02  0.97908942943E+02  0.47000000000E+01 0. -1.
        -11    1    4    4    0    0 -0.18374840412E+03  0.25248131542E+02  0.12053642283E+03  0.22120120567E+03  0.00000000000E+00 0.  1.
         12    1    4    4    0    0 -0.12259822807E+02  0.25260127444E+02  0.61182499240E+00  0.28084722245E+02  0.00000000000E+00 0. -1.
         -5    1    5    5    0  502  0.31525098652E+01 -0.65352910899E+02  0.56686794816E+02  0.86697312461E+02  0.47000000000E+01 0.  1.
         13    1    6    6    0    0  0.69601702762E+02 -0.16164023745E+02  0.27196621530E+02  0.76454750759E+02  0.00000000000E+00 0. -1.
        -14    1    6    6    0    0  0.12258445403E+03 -0.81196484601E+01  0.18037413750E+03  0.21823772941E+03  0.00000000000E+00 0.  1.
</event>
<event>
12    1  0.8053217E-002  0.2245932E+03  0.7818608E-02  0.1130603E+00
         21   -1    0    0  503  502  0.00000000000E+00  0.00000000000E+00  0.44344242970E+03  0.44344242970E+03  0.00000000000E+00 0.  1.
         21   -1    0    0  501  503 -0.00000000000E+00 -0.00000000000E+00 -0.11600959845E+03  0.11600959845E+03  0.00000000000E+00 0. -1.
          6    2    1    2  501    0 -0.36211808122E+02 -0.13927211015E+03  0.20525080309E+03  0.30425314894E+03  0.17243570035E+03 0.  0.
         24    2    3    3    0    0 -0.86021596382E+02 -0.97300027327E+02  0.10790532773E+03  0.18703155401E+03  0.80437752842E+02 0.  0.
         -6    2    1    2    0  502  0.36211808122E+02  0.13927211015E+03  0.12218202816E+03  0.25519887921E+03  0.17172653910E+03 0.  0.
        -24    2    5    5    0    0  0.68367144488E+02  0.37278036419E+02  0.41898023330E+02  0.12139167400E+03  0.83167155260E+02 0.  0.
          5    1    3    3  501    0  0.49809788260E+02 -0.41972082824E+02  0.97345475365E+02  0.11722159493E+03  0.47000000000E+01 0. -1.
        -13    1    4    4    0    0 -0.59355503460E+02 -0.17366096934E+02  0.73388615029E+02  0.95971589180E+02  0.00000000000E+00 0.  1.
         14    1    4    4    0    0 -0.26666092922E+02 -0.79933930394E+02  0.34516712701E+02  0.91059964834E+02  0.00000000000E+00 0. -1.
         -5    1    5    5    0  502 -0.32155336366E+02  0.10199407373E+03  0.80284004829E+02  0.13380720520E+03  0.47000000000E+01 0.  1.
         11    1    6    6    0    0  0.71766694272E+02  0.56135865798E+02  0.45581291326E+02  0.10187908497E+03  0.00000000000E+00 0. -1.
        -12    1    6    6    0    0 -0.33995497842E+01 -0.18857829379E+02 -0.36832679962E+01  0.19512589033E+02  0.00000000000E+00 0.  1.
</event>
<event>
12    1  0.8053217E-002  0.1876967E+03  0.7818608E-02  0.1161091E+00
         21   -1    0    0  503  502  0.00000000000E+00  0.00000000000E+00  0.13577807685E+04  0.13577807685E+04  0.00000000000E+00 0. -1.
         21   -1    0    0  501  503 -0.00000000000E+00 -0.00000000000E+00 -0.35816010921E+02  0.35816010921E+02  0.00000000000E+00 0.  1.
          6    2    1    2  501    0 -0.48286813335E+02 -0.54734736429E+02  0.10355825969E+04  0.10524549322E+04  0.17292357143E+03 0.  0.
         24    2    3    3    0    0 -0.23035976863E+02  0.35355241550E+02  0.39414198411E+03  0.40420964017E+03  0.79100443964E+02 0.  0.
         -6    2    1    2    0  502  0.48286813335E+02  0.54734736429E+02  0.28638216063E+03  0.34114184719E+03  0.17039809349E+03 0.  0.
        -24    2    5    5    0    0  0.77555578745E+02  0.70490440966E+02  0.27634693618E+03  0.30610331720E+03  0.79673343115E+02 0.  0.
          5    1    3    3  501    0 -0.25250836471E+02 -0.90089977978E+02  0.64144061283E+03  0.64824529205E+03  0.47000000000E+01 0. -1.
        -13    1    4    4    0    0  0.13142786278E+02 -0.15196038219E+02  0.41231055979E+02  0.45865590434E+02  0.00000000000E+00 0.  1.
         14    1    4    4    0    0 -0.36178763142E+02  0.50551279769E+02  0.35291092813E+03  0.35834404974E+03  0.00000000000E+00 0. -1.
         -5    1    5    5    0  502 -0.29268765410E+02 -0.15755704538E+02  0.10035224450E+02  0.35038529990E+02  0.47000000000E+01 0.  1.
         11    1    6    6    0    0  0.64976118359E+01  0.48210223366E+01  0.13248006003E+03  0.13272689073E+03  0.00000000000E+00 0. -1.
        -12    1    6    6    0    0  0.71057966909E+02  0.65669418630E+02  0.14386687615E+03  0.17337642648E+03  0.00000000000E+00 0.  1.
</event>
<event>
12    1  0.8053217E-002  0.1782686E+03  0.7818608E-02  0.1170349E+00
         21   -1    0    0  503  502  0.00000000000E+00  0.00000000000E+00  0.27242811598E+03  0.27242811598E+03  0.00000000000E+00 0.  1.
         21   -1    0    0  501  503 -0.00000000000E+00 -0.00000000000E+00 -0.11441749785E+03  0.11441749785E+03  0.00000000000E+00 0.  1.
          6    2    1    2  501    0  0.66489317499E+01 -0.46562850648E+02  0.81100944881E+02  0.19269412045E+03  0.16834890389E+03 0.  0.
         24    2    3    3    0    0 -0.11876478599E+02 -0.94604034942E+02  0.52482896323E+02  0.13359903673E+03  0.77480797860E+02 0.  0.
         -6    2    1    2    0  502 -0.66489317499E+01  0.46562850648E+02  0.76909673246E+02  0.19415149338E+03  0.17195172924E+03 0.  0.
        -24    2    5    5    0    0  0.22909292535E+02 -0.35536334079E+02  0.25437516304E+02  0.92734346429E+02  0.78517036671E+02 0.  0.
          5    1    3    3  501    0  0.18525410349E+02  0.48041184294E+02  0.28618048558E+02  0.59095083724E+02  0.47000000000E+01 0. -1.
        -11    1    4    4    0    0  0.54027140261E+01 -0.10222796993E+03  0.51728038549E+02  0.11469758989E+03  0.00000000000E+00 0.  1.
         12    1    4    4    0    0 -0.17279192625E+02  0.76239349828E+01  0.75485777350E+00  0.18901446841E+02  0.00000000000E+00 0. -1.
         -5    1    5    5    0  502 -0.29558224285E+02  0.82099184727E+02  0.51472156942E+02  0.10141714695E+03  0.47000000000E+01 0.  1.
         11    1    6    6    0    0  0.17586231617E+02 -0.24956781664E+02  0.53877715398E+02  0.61926768930E+02  0.00000000000E+00 0. -1.
        -12    1    6    6    0    0  0.53230609181E+01 -0.10579552415E+02 -0.28440199094E+02  0.30807577499E+02  0.00000000000E+00 0.  1.
</event>
<event>
12    1  0.8053217E-002  0.1904525E+03  0.7818608E-02  0.1158252E+00
         21   -1    0    0  501  502  0.00000000000E+00  0.00000000000E+00  0.57686877505E+03  0.57686877505E+03  0.00000000000E+00 0.  1.
         21   -1    0    0  502  503 -0.00000000000E+00 -0.00000000000E+00 -0.86986773598E+02  0.86986773598E+02  0.00000000000E+00 0.  1.
         -6    2    1    2    0  503  0.77918197247E+02 -0.10160145854E+02  0.68736083452E+02  0.20164777118E+03  0.17251869588E+03 0.  0.
        -24    2    3    3    0    0  0.10801060944E+03  0.28437919687E+02  0.60043127693E+02  0.15171760580E+03  0.83294944023E+02 0.  0.
          6    2    1    2  501    0 -0.77918197247E+02  0.10160145854E+02  0.42114591800E+03  0.46220777747E+03  0.17348680433E+03 0.  0.
         24    2    5    5    0    0 -0.82784944762E+02  0.27114794803E+02  0.15370715502E+03  0.19414672603E+03  0.80489145532E+02 0.  0.
          5    1    5    5  501    0  0.48667475145E+01 -0.16954648949E+02  0.26743876298E+03  0.26806105144E+03  0.47000000000E+01 0. -1.
        -13    1    6    6    0    0  0.11393378664E+02  0.67279972219E+01  0.53557841940E+02  0.55168083683E+02  0.00000000000E+00 0.  1.
         14    1    6    6    0    0 -0.94178323426E+02  0.20386797581E+02  0.10014931308E+03  0.13897864235E+03  0.00000000000E+00 0. -1.
         -5    1    3    3    0  503 -0.30092412190E+02 -0.38598065541E+02  0.86929557591E+01  0.49930165379E+02  0.47000000000E+01 0.  1.
         13    1    4    4    0    0  0.69380473817E+02  0.57873349135E+02  0.33417785326E+02  0.96331319223E+02  0.00000000000E+00 0. -1.
        -14    1    4    4    0    0  0.38630135620E+02 -0.29435429447E+02  0.26625342367E+02  0.55386286579E+02  0.00000000000E+00 0.  1.
</event>
<event>
12    1  0.8053217E-002  0.2017018E+03  0.7818608E-02  0.1148652E+00
         21   -1    0    0  503  502  0.00000000000E+00  0.00000000000E+00  0.15086612594E+02  0.15086612594E+02  0.00000000000E+00 0.  1.
         21   -1    0    0  501  503 -0.00000000000E+00 -0.00000000000E+00 -0.37730147612E+04  0.37730147612E+04  0.00000000000E+00 0. -1.
          6    2    1    2  501    0  0.10130757100E+03  0.27023073435E+02 -0.29061345027E+04  0.29131257013E+04  0.17230825060E+03 0.  0.
         24    2    3    3    0    0  0.36097856567E+02 -0.38238430646E+02 -0.88181230623E+03  0.88669686811E+03  0.76636542668E+02 0.  0.
         -6    2    1    2    0  502 -0.10130757100E+03 -0.27023073435E+02 -0.85179364587E+03  0.87497567247E+03  0.17040112043E+03 0.  0.
        -24    2    5    5    0    0  0.67916071821E+01  0.15413573781E+02 -0.27757162774E+03  0.28910937591E+03  0.79085514018E+02 0.  0.
          5    1    3    3  501    0  0.65209714434E+02  0.65261504081E+02 -0.20243221965E+04  0.20264288332E+04  0.47000000000E+01 0. -1.
        -11    1    4    4    0    0  0.49751779889E+02 -0.44654880678E+02 -0.48361236970E+03  0.48821124741E+03  0.00000000000E+00 0.  1.
         12    1    4    4    0    0 -0.13653923322E+02  0.64164500320E+01 -0.39819993654E+03  0.39848562071E+03  0.00000000000E+00 0. -1.
         -5    1    5    5    0  502 -0.10809917818E+03 -0.42436647216E+02 -0.57422201812E+03  0.58586629656E+03  0.47000000000E+01 0.  1.
         13    1    6    6    0    0 -0.26431597481E+02 -0.15753869239E+02 -0.16175808157E+03  0.16465870974E+03  0.00000000000E+00 0. -1.
        -14    1    6    6    0    0  0.33223204663E+02  0.31167443020E+02 -0.11581354617E+03  0.12445066617E+03  0.00000000000E+00 0.  1.
</event>
<event>
12    1  0.8053217E-002  0.2820305E+03  0.7818608E-02  0.1094621E+00
         21   -1    0    0  501  502  0.00000000000E+00  0.00000000000E+00  0.29043001376E+02  0.29043001376E+02  0.00000000000E+00 0.  1.
         21   -1    0    0  502  503 -0.00000000000E+00 -0.00000000000E+00 -0.27425012569E+04  0.27425012569E+04  0.00000000000E+00 0.  1.
         -6    2    1    2    0  503 -0.18431035150E+03  0.12661809870E+03 -0.12908310821E+04  0.13212819825E+04  0.17186839753E+03 0.  0.
        -24    2    3    3    0    0 -0.65247653484E+02  0.10183550085E+03 -0.48217241089E+03  0.50351609925E+03  0.80065615987E+02 0.  0.
          6    2    1    2  501    0  0.18431035150E+03 -0.12661809870E+03 -0.14226271734E+04  0.14502622758E+04  0.17143554327E+03 0.  0.
         24    2    5    5    0    0  0.54569739610E+02 -0.11494120040E+03 -0.76443386325E+03  0.77928574874E+03  0.82084169452E+02 0.  0.
          5    1    5    5  501    0  0.12974061189E+03 -0.11676898305E+02 -0.65819331018E+03  0.67097652708E+03  0.47000000000E+01 0. -1.
        -13    1    6    6    0    0  0.88388876973E+01  0.79859620265E+01 -0.19176898834E+02  0.22575539287E+02  0.00000000000E+00 0.  1.
         14    1    6    6    0    0  0.45730851913E+02 -0.12292716243E+03 -0.74525696442E+03  0.75671020946E+03  0.00000000000E+00 0. -1.
         -5    1    3    3    0  503 -0.11906269802E+03  0.24782597851E+02 -0.80865867121E+03  0.81776588321E+03  0.47000000000E+01 0.  1.
         13    1    4    4    0    0 -0.22985449521E+02  0.99815663043E+02 -0.35570113442E+03  0.37015509521E+03  0.00000000000E+00 0. -1.
        -14    1    4    4    0    0 -0.42262203963E+02  0.20198378109E+01 -0.12647127646E+03  0.13336100404E+03  0.00000000000E+00 0.  1.
</event>
<event>
12    1  0.8053217E-002  0.1800979E+03  0.7818608E-02  0.1168972E+00
         21   -1    0    0  501  502  0.00000000000E+00  0.00000000000E+00  0.22065306008E+03  0.22065306008E+03  0.00000000000E+00 0.  1.
         21   -1    0    0  502  503 -0.00000000000E+00 -0.00000000000E+00 -0.22721198583E+03  0.22721198583E+03  0.00000000000E+00 0.  1.
         -6    2    1    2    0  503 -0.39667738425E+02  0.21865477376E+02 -0.13971077453E+03  0.22389030118E+03  0.16898561439E+03 0.  0.
        -24    2    3    3    0    0  0.92469950385E+01 -0.35719606810E+02 -0.11572806017E+03  0.14448026618E+03  0.78231490954E+02 0.  0.
          6    2    1    2  501    0  0.39667738425E+02 -0.21865477376E+02  0.13315184878E+03  0.22397474473E+03  0.17430904415E+03 0.  0.
         24    2    5    5    0    0  0.91801369331E+02 -0.83166415431E+01  0.72146888996E+02  0.14245676180E+03  0.81191732657E+02 0.  0.
          5    1    5    5  501    0 -0.52133630906E+02 -0.13548835833E+02  0.61004959779E+02  0.81517982933E+02  0.47000000000E+01 0. -1.
        -13    1    6    6    0    0  0.61575109922E+02  0.25386357316E+02  0.70744405785E+02  0.97163430618E+02  0.00000000000E+00 0.  1.
         14    1    6    6    0    0  0.30226259409E+02 -0.33702998859E+02  0.14024832112E+01  0.45293331177E+02  0.00000000000E+00 0. -1.
         -5    1    3    3    0  503 -0.48914733464E+02  0.57585084186E+02 -0.23982714361E+02  0.79410034999E+02  0.47000000000E+01 0.  1.
         13    1    4    4    0    0 -0.13565059112E+02  0.99520400587E+01  0.12265564612E+01  0.16868858017E+02  0.00000000000E+00 0. -1.
        -14    1    4    4    0    0  0.22812054150E+02 -0.45671646868E+02 -0.11695461663E+03  0.12761140816E+03  0.00000000000E+00 0.  1.
</event>
<event>
12    1  0.8053217E-002  0.1932159E+03  0.7818608E-02  0.1155825E+00
         21   -1    0    0  503  502  0.00000000000E+00  0.00000000000E+00  0.92163130751E+02  0.92163130751E+02  0.00000000000E+00 0.  1.
         21   -1    0    0  501  503 -0.00000000000E+00 -0.00000000000E+00 -0.40331164406E+03  0.40331164406E+03  0.00000000000E+00 0.  1.
          6    2    1    2  501    0  0.24233655789E+02 -0.83429180232E+02 -0.16336756952E+03  0.25222262476E+03  0.17140475922E+03 0.  0.
         24    2    3    3    0    0 -0.49616928338E+02 -0.37569142467E+02 -0.62144395091E+02  0.11871130359E+03  0.79731848816E+02 0.  0.
         -6    2    1    2    0  502 -0.24233655789E+02  0.83429180232E+02 -0.14778094379E+03  0.24325215005E+03  0.17258245267E+03 0.  0.
        -24    2    5    5    0    0 -0.53722973605E+02  0.58887214000E+02 -0.16628699504E+03  0.20039783983E+03  0.78447865634E+02 0.  0.
          5    1    3    3  501    0  0.73850584126E+02 -0.45860037765E+02 -0.10122317443E+03  0.13351132117E+03  0.47000000000E+01 0. -1.
        -11    1    4    4    0    0 -0.33217870305E+02 -0.58157911020E+02 -0.21601216368E+02  0.70373162998E+02  0.00000000000E+00 0.  1.
         12    1    4    4    0    0 -0.16399058033E+02  0.20588768553E+02 -0.40543178723E+02  0.48338140592E+02  0.00000000000E+00 0. -1.
         -5    1    5    5    0  502  0.29489317817E+02  0.24541966232E+02  0.18506051249E+02  0.42854310223E+02  0.47000000000E+01 0.  1.
         13    1    6    6    0    0 -0.18682065487E+02  0.22898358193E+02 -0.31700316695E+01  0.29722104226E+02  0.00000000000E+00 0. -1.
        -14    1    6    6    0    0 -0.35040908118E+02  0.35988855806E+02 -0.16311696337E+03  0.17067573560E+03  0.00000000000E+00 0.  1.
</event>
<event>
12    1  0.8053217E-002  0.2267687E+03  0.7818608E-02  0.1129197E+00
         21   -1    0    0  503  502  0.00000000000E+00  0.00000000000E+00  0.60812407083E+03  0.60812407083E+03  0.00000000000E+00 0.  1.
         21   -1    0    0  501  503 -0.00000000000E+00 -0.00000000000E+00 -0.10711843924E+03  0.10711843924E+03  0.00000000000E+00 0. -1.
          6    2    1    2  501    0 -0.14035511077E+03  0.43693052942E+02  0.85069739631E+02  0.24220010298E+03  0.17267133313E+03 0.  0.
         24    2    3    3    0    0 -0.16590831463E+03  0.61745742187E+02  0.79839299735E+02  0.21013277821E+03  0.80270574647E+02 0.  0.
         -6    2    1    2    0  502  0.14035511077E+03 -0.43693052942E+02  0.41593589196E+03  0.47304240709E+03  0.17075658902E+03 0.  0.
        -24    2    5    5    0    0  0.89455804449E+01  0.12609642878E+02  0.15451432085E+03  0.17504612178E+03  0.80792591871E+02 0.  0.
          5    1    3    3  501    0  0.25553203858E+02 -0.18052689245E+02  0.52304398956E+01  0.32067324770E+02  0.47000000000E+01 0. -1.
        -11    1    4    4    0    0 -0.84990187135E+02  0.63220274930E+02  0.73551765282E+02  0.12895734662E+03  0.00000000000E+00 0.  1.
         12    1    4    4    0    0 -0.80918127492E+02 -0.14745327435E+01  0.62875344536E+01  0.81175431585E+02  0.00000000000E+00 0. -1.
         -5    1    5    5    0  502  0.13140953032E+03 -0.56302695819E+02  0.26142157111E+03  0.29799628531E+03  0.47000000000E+01 0.  1.
         13    1    6    6    0    0  0.14228840284E+01 -0.15866906261E+02  0.14225333987E+03  0.14314257235E+03  0.00000000000E+00 0. -1.
        -14    1    6    6    0    0  0.75226964165E+01  0.28476549138E+02  0.12260980977E+02  0.31903549438E+02  0.00000000000E+00 0.  1.
</event>
<event>
12    1  0.8053217E-002  0.4977636E+03  0.7818608E-02  0.1014419E+00
         21   -1    0    0  503  502  0.00000000000E+00  0.00000000000E+00  0.55468466984E+03  0.55468466984E+03  0.00000000000E+00 0.  1.
         21   -1    0    0  501  503 -0.00000000000E+00 -0.00000000000E+00 -0.47175904467E+03  0.47175904467E+03  0.00000000000E+00 0. -1.
          6    2    1    2  501    0 -0.27698166490E+03 -0.37507527909E+03 -0.78627498776E+02  0.50311970198E+03  0.17189195235E+03 0.  0.
         24    2    3    3    0    0 -0.16210650872E+03 -0.15104208270E+03 -0.88759462438E+02  0.25110398565E+03  0.77991913170E+02 0.  0.
         -6    2    1    2    0  502  0.27698166490E+03  0.37507527909E+03  0.16155312395E+03  0.52332401254E+03  0.17426503543E+03 0.  0.
        -24    2    5    5    0    0  0.66457001615E+02  0.88811575331E+02  0.10974357176E+02  0.13736598770E+03  0.80280440234E+02 0.  0.
          5    1    3    3  501    0 -0.11487515618E+03 -0.22403319638E+03  0.10131963662E+02  0.25201571633E+03  0.47000000000E+01 0. -1.
        -13    1    4    4    0    0 -0.95338172570E+02 -0.37952519664E+02 -0.27780246959E+02  0.10630852750E+03  0.00000000000E+00 0.  1.
         14    1    4    4    0    0 -0.66768336151E+02 -0.11308956304E+03 -0.60979215479E+02  0.14479545815E+03  0.00000000000E+00 0. -1.
         -5    1    5    5    0  502  0.21052466328E+03  0.28626370376E+03  0.15057876677E+03  0.38595802484E+03  0.47000000000E+01 0.  1.
         13    1    6    6    0    0  0.23008670474E+02  0.52991076101E+02  0.43518339257E+02  0.72327718856E+02  0.00000000000E+00 0. -1.
        -14    1    6    6    0    0  0.43448331141E+02  0.35820499231E+02 -0.32543982081E+02  0.65038268841E+02  0.00000000000E+00 0.  1.
</event>
<event>
12    1  0.8053217E-002  0.2585694E+03  0.7818608E-02  0.1108170E+00
         21   -1    0    0  501  502  0.00000000000E+00  0.00000000000E+00  0.30530169335E+03  0.30530169335E+03  0.00000000000E+00 0. -1.
         21   -1    0    0  502  503 -0.00000000000E+00 -0.00000000000E+00 -0.47443930988E+03  0.47443930988E+03  0.00000000000E+00 0.  1.
         -6    2    1    2    0  503  0.31427230651E+02 -0.19021656775E+03 -0.37107573341E+03  0.45166004174E+03  0.17067389930E+03 0.  0.
        -24    2    3    3    0    0 -0.52474763550E+02 -0.76237470233E+02 -0.14373038533E+03  0.18381908782E+03  0.67566860981E+02 0.  0.
          6    2    1    2  501    0 -0.31427230651E+02  0.19021656775E+03  0.20193811687E+03  0.32808096149E+03  0.17230235277E+03 0.  0.
         24    2    5    5    0    0  0.22609466477E+02  0.17186773003E+03  0.11371347104E+03  0.22290338491E+03  0.81886878730E+02 0.  0.
          5    1    5    5  501    0 -0.54036697128E+02  0.18348837724E+02  0.88224645832E+02  0.10517757658E+03  0.47000000000E+01 0. -1.
        -11    1    6    6    0    0  0.25609043056E+02  0.64566583487E+02  0.42485290359E+01  0.69589631329E+02  0.00000000000E+00 0.  1.
         12    1    6    6    0    0 -0.29995765797E+01  0.10730114654E+03  0.10946494201E+03  0.15331375358E+03  0.00000000000E+00 0. -1.
         -5    1    3    3    0  503  0.83901994201E+02 -0.11397909752E+03 -0.22734534807E+03  0.26784095391E+03  0.47000000000E+01 0.  1.
         11    1    4    4    0    0  0.48626342624E+01 -0.27737351063E+02 -0.89849503190E+01  0.29559011962E+02  0.00000000000E+00 0. -1.
        -12    1    4    4    0    0 -0.57337397812E+02 -0.48500119170E+02 -0.13474543501E+03  0.15426007586E+03  0.00000000000E+00 0.  1.
</event>
<event>
12    1  0.8053217E-002  0.1872824E+03  0.7818608E-02  0.1161170E+00
         21   -1    0    0  501  502  0.00000000000E+00  0.00000000000E+00  0.29938282756E+02  0.29938282756E+02  0.00000000000E+00 0.  1.
         21   -1    0    0  502  503 -0.00000000000E+00 -0.00000000000E+00 -0.12243182822E+04  0.12243182822E+04  0.00000000000E+00 0.  1.
         -6    2    1    2    0  503 -0.54663324225E+02  0.49228028421E+02 -0.73344261768E+03  0.75672467105E+03  0.17112181784E+03 0.  0.
        -24    2    3    3    0    0 -0.24730735983E+02  0.79695275635E+02 -0.30886229959E+03  0.32997562359E+03  0.80777755581E+02 0.  0.
          6    2    1    2  501    0  0.54663324225E+02 -0.49228028421E+02 -0.46093738176E+03  0.49753189391E+03  0.17223018828E+03 0.  0.
         24    2    5    5    0    0  0.60113639876E+02  0.15646263326E+02 -0.38304955890E+03  0.39591013137E+03  0.78481923375E+02 0.  0.
          5    1    5    5  501    0 -0.54503156513E+01 -0.64874291747E+02 -0.77887822861E+02  0.10162176253E+03  0.47000000000E+01 0. -1.
        -11    1    6    6    0    0 -0.18404163884E+02 -0.46647961260E+01 -0.73302497241E+02  0.75721395081E+02  0.00000000000E+00 0.  1.
         12    1    6    6    0    0  0.78517803760E+02  0.20311059452E+02 -0.30974706166E+03  0.32018873629E+03  0.00000000000E+00 0. -1.
         -5    1    3    3    0  503 -0.29932588241E+02 -0.30467247214E+02 -0.42458031810E+03  0.42674904746E+03  0.47000000000E+01 0.  1.
         13    1    4    4    0    0  0.52161030272E+01  0.49286369535E+02 -0.61627781440E+02  0.79084368860E+02  0.00000000000E+00 0. -1.
        -14    1    4    4    0    0 -0.29946839010E+02  0.30408906101E+02 -0.24723451815E+03  0.25089125473E+03  0.00000000000E+00 0.  1.
</event>
<event>
12    1  0.8053217E-002  0.3343640E+03  0.7818608E-02  0.1070675E+00
         21   -1    0    0  501  502  0.00000000000E+00  0.00000000000E+00  0.13698918984E+03  0.13698918984E+03  0.00000000000E+00 0. -1.
         21   -1    0    0  502  503 -0.00000000000E+00 -0.00000000000E+00 -0.79837446679E+03  0.79837446679E+03  0.00000000000E+00 0.  1.
         -6    2    1    2    0  503 -0.24945487737E+03 -0.11273641782E+03 -0.38580129962E+03  0.50206721128E+03  0.16820108831E+03 0.  0.
        -24    2    3    3    0    0 -0.17273509425E+03 -0.36320377669E+01 -0.22317115734E+03  0.29168578613E+03  0.73652073165E+02 0.  0.
          6    2    1    2  501    0  0.24945487737E+03  0.11273641782E+03 -0.27558397733E+03  0.43329644535E+03  0.19199490941E+03 0.  0.
         24    2    5    5    0    0  0.57093156071E+02  0.44164282047E+02 -0.17496460567E+03  0.20558716231E+03  0.80270516325E+02 0.  0.
          5    1    5    5  501    0  0.19236172130E+03  0.68572135771E+02 -0.10061937167E+03  0.22770928304E+03  0.47000000000E+01 0. -1.
        -11    1    6    6    0    0  0.13066396627E+02  0.39242945088E+02 -0.23061273517E+02  0.47355694444E+02  0.00000000000E+00 0.  1.
         12    1    6    6    0    0  0.44026759444E+02  0.49213369595E+01 -0.15190333215E+03  0.15823146787E+03  0.00000000000E+00 0. -1.
         -5    1    3    3    0  503 -0.76719783126E+02 -0.10910438005E+03 -0.16263014228E+03  0.21038142515E+03  0.47000000000E+01 0.  1.
         11    1    4    4    0    0 -0.84484678738E+02 -0.20924372347E+02 -0.61118356733E+02  0.10635292111E+03  0.00000000000E+00 0. -1.
        -12    1    4    4    0    0 -0.88250415511E+02  0.17292334580E+02 -0.16205280060E+03  0.18533286502E+03  0.00000000000E+00 0.  1.
</event>
<event>
12    1  0.8053217E-002  0.2049919E+03  0.7818608E-02  0.1146113E+00
         21   -1    0    0  501  502  0.00000000000E+00  0.00000000000E+00  0.49668977452E+02  0.49668977452E+02  0.00000000000E+00 0.  1.
         21   -1    0    0  502  503 -0.00000000000E+00 -0.00000000000E+00 -0.14723316966E+04  0.14723316966E+04  0.00000000000E+00 0.  1.
         -6    2    1    2    0  503  0.69443176701E+02 -0.79858614310E+02 -0.12092540527E+04  0.12260869195E+04  0.17260943582E+03 0.  0.
        -24    2    3    3    0    0  0.77663009775E+02 -0.11880322662E+03 -0.97065714120E+03  0.98414720672E+03  0.78896698217E+02 0.  0.
          6    2    1    2  501    0 -0.69443176701E+02  0.79858614310E+02 -0.21340866645E+03  0.29591375447E+03  0.17556177858E+03 0.  0.
         24    2    5    5    0    0 -0.10044180487E+03  0.10379442835E+03 -0.16096871707E+03  0.23029457714E+03  0.79138011496E+02 0.  0.
          5    1    5    5  501    0  0.30998628166E+02 -0.23935814044E+02 -0.52439949385E+02  0.65619177331E+02  0.47000000000E+01 0. -1.
        -13    1    6    6    0    0 -0.80461638906E+02  0.28712949925E+02 -0.10007231855E+03  0.13157878921E+03  0.00000000000E+00 0.  1.
         14    1    6    6    0    0 -0.19980165961E+02  0.75081478430E+02 -0.60896398512E+02  0.98715787931E+02  0.00000000000E+00 0. -1.
         -5    1    3    3    0  503 -0.82198330744E+01  0.38944612309E+02 -0.23859691146E+03  0.24193971282E+03  0.47000000000E+01 0.  1.
         13    1    4    4    0    0  0.96936106362E+00 -0.49015776745E+02 -0.17415823495E+03  0.18092699310E+03  0.00000000000E+00 0. -1.
        -14    1    4    4    0    0  0.76693648712E+02 -0.69787449875E+02 -0.79649890625E+03  0.80322021362E+03  0.00000000000E+00 0.  1.
</event>
<event>
12    1  0.8053217E-002  0.1750585E+03  0.7818608E-02  0.1173217E+00
         21   -1    0    0  501  502  0.00000000000E+00  0.00000000000E+00  0.57282989219E+02  0.57282989219E+02  0.00000000000E+00 0.  1.
         21   -1    0    0  502  503 -0.00000000000E+00 -0.00000000000E+00 -0.14662202012E+04  0.14662202012E+04  0.00000000000E+00 0.  1.
         -6    2    1    2    0  503  0.24318147439E+02  0.15921765547E+02 -0.13121049179E+04  0.13234482453E+04  0.17044373710E+03 0.  0.
        -24    2    3    3    0    0  0.47228357195E+02  0.42778105337E+02 -0.12257146077E+04  0.12300056619E+04  0.80480710461E+02 0.  0.
          6    2    1    2  501    0 -0.24318147439E+02 -0.15921765547E+02 -0.96832294064E+02  0.20005494510E+03  0.17262854043E+03 0.  0.
         24    2    5    5    0    0 -0.41251402872E+02  0.52073131731E+02 -0.71220883563E+02  0.12530151345E+03  0.78833785457E+02 0.  0.
          5    1    5    5  501    0  0.16933255434E+02 -0.67994897278E+02 -0.25611410500E+02  0.74753431649E+02  0.47000000000E+01 0. -1.
        -13    1    6    6    0    0  0.20157478713E+02  0.25147851038E+02 -0.81421591675E+01  0.33242038382E+02  0.00000000000E+00 0.  1.
         14    1    6    6    0    0 -0.61408881585E+02  0.26925280693E+02 -0.63078724396E+02  0.92059475065E+02  0.00000000000E+00 0. -1.
         -5    1    3    3    0  503 -0.22910209756E+02 -0.26856339790E+02 -0.86390310243E+02  0.93442583450E+02  0.47000000000E+01 0.  1.
         13    1    4    4    0    0  0.34525795624E+02  0.29940245156E+02 -0.25116157384E+03  0.25528530122E+03  0.00000000000E+00 0. -1.
        -14    1    4    4    0    0  0.12702561571E+02  0.12837860181E+02 -0.97455303383E+03  0.97472036066E+03  0.00000000000E+00 0.  1.
</event>
<event>
12    1  0.8053217E-002  0.1952770E+03  0.7818608E-02  0.1155197E+00
         21   -1    0    0  503  502  0.00000000000E+00  0.00000000000E+00  0.92893345208E+02  0.92893345208E+02  0.00000000000E+00 0. -1.
         21   -1    0    0  501  503 -0.00000000000E+00 -0.00000000000E+00 -0.50838224426E+03  0.50838224426E+03  0.00000000000E+00 0. -1.
          6    2    1    2  501    0 -0.76608715702E+02 -0.49428956546E+02 -0.35100395870E+03  0.40166763322E+03  0.17268755452E+03 0.  0.
         24    2    3    3    0    0 -0.42157044360E+02 -0.48664578055E+02 -0.79355380513E+02  0.12780171354E+03  0.76749879609E+02 0.  0.
         -6    2    1    2    0  502  0.76608715702E+02  0.49428956546E+02 -0.64484940354E+02  0.19960795625E+03  0.16544760983E+03 0.  0.
        -24    2    5    5    0    0  0.18084288903E+02  0.87741044897E+02 -0.34404903718E+02  0.12332019019E+03  0.77450884082E+02 0.  0.
          5    1    3    3  501    0 -0.34451671342E+02 -0.76437849137E+00 -0.27164857819E+03  0.27386591968E+03  0.47000000000E+01 0. -1.
        -13    1    4    4    0    0  0.10226651399E+02  0.13691563434E+02 -0.57553723540E+01  0.18032404694E+02  0.00000000000E+00 0.  1.
         14    1    4    4    0    0 -0.52383695759E+02 -0.62356141489E+02 -0.73600008159E+02  0.10976930884E+03  0.00000000000E+00 0. -1.
         -5    1    5    5    0  502  0.58524426799E+02 -0.38312088350E+02 -0.30080036636E+02  0.76287766057E+02  0.47000000000E+01 0.  1.
         11    1    6    6    0    0  0.33360271969E+02  0.68622125792E+02  0.55103855604E+01  0.76500119236E+02  0.00000000000E+00 0. -1.
        -12    1    6    6    0    0 -0.15275983066E+02  0.19118919104E+02 -0.39915289279E+02  0.46820070958E+02  0.00000000000E+00 0.  1.
</event>
<event>
12    1  0.8053217E-002  0.1765660E+03  0.7818608E-02  0.1171566E+00
         21   -1    0    0  503  502  0.00000000000E+00  0.00000000000E+00  0.87883740570E+02  0.87883740570E+02  0.00000000000E+00 0.  1.
         21   -1    0    0  501  503 -0.00000000000E+00 -0.00000000000E+00 -0.35440267677E+03  0.35440267677E+03  0.00000000000E+00 0.  1.
          6    2    1    2  501    0  0.37526628344E+02  0.29445383584E+01 -0.11398291164E+03  0.21016102145E+03  0.17250690609E+03 0.  0.
         24    2    3    3    0    0  0.84102285180E+02  0.20312238554E+02 -0.48273013677E+02  0.12763339268E+03  0.80462523389E+02 0.  0.
         -6    2    1    2    0  502 -0.37526628344E+02 -0.29445383584E+01 -0.15253602456E+03  0.23212539589E+03  0.17087434707E+03 0.  0.
        -24    2    5    5    0    0 -0.14648048290E+02 -0.62126823635E+02 -0.12577782620E+03  0.16310320022E+03  0.81904119707E+02 0.  0.
          5    1    3    3  501    0 -0.46575656836E+02 -0.17367700195E+02 -0.65709897962E+02  0.82527628768E+02  0.47000000000E+01 0. -1.
        -11    1    4    4    0    0  0.42961047529E+02  0.49877662535E+02 -0.37765510345E+02  0.75892467323E+02  0.00000000000E+00 0.  1.
         12    1    4    4    0    0  0.41141237651E+02 -0.29565423981E+02 -0.10507503332E+02  0.51740925358E+02  0.00000000000E+00 0. -1.
         -5    1    5    5    0  502 -0.22878580054E+02  0.59182285277E+02 -0.26758198364E+02  0.69022195673E+02  0.47000000000E+01 0.  1.
         11    1    6    6    0    0 -0.79059196951E+01 -0.23033052275E+01 -0.95246053789E+02  0.95601357436E+02  0.00000000000E+00 0. -1.
        -12    1    6    6    0    0 -0.67421285944E+01 -0.59823518407E+02 -0.30531772407E+02  0.67501842782E+02  0.00000000000E+00 0.  1.
</event>
<event>
12    1  0.8053217E-002  0.2132861E+03  0.7818608E-02  0.1139370E+00
         21   -1    0    0  503  502  0.00000000000E+00  0.00000000000E+00  0.22730781957E+03  0.22730781957E+03  0.00000000000E+00 0. -1.
         21   -1    0    0  501  503 -0.00000000000E+00 -0.00000000000E+00 -0.20081074632E+03  0.20081074632E+03  0.00000000000E+00 0. -1.
          6    2    1    2  501    0  0.12554798191E+03  0.17333998434E+01 -0.10596448210E+02  0.21354916426E+03  0.17241131171E+03 0.  0.
         24    2    3    3    0    0  0.12215145656E+03 -0.19517931112E+02  0.44435365125E+02  0.15427230595E+03  0.80768278029E+02 0.  0.
         -6    2    1    2    0  502 -0.12554798191E+03 -0.17333998434E+01  0.37093521463E+02  0.21456940163E+03  0.16999646569E+03 0.  0.
        -24    2    5    5    0    0 -0.10445966753E+03 -0.62944853689E+02  0.30051442171E+02  0.14927591064E+03  0.80661834686E+02 0.  0.
          5    1    3    3  501    0  0.33965253510E+01  0.21251330956E+02 -0.55031813335E+02  0.59276858308E+02  0.47000000000E+01 0. -1.
        -13    1    4    4    0    0  0.28719087142E+02 -0.33793966871E+02 -0.96335778386E+01  0.45383080384E+02  0.00000000000E+00 0.  1.
         14    1    4    4    0    0  0.93432369414E+02  0.14276035759E+02  0.54068942964E+02  0.10888922557E+03  0.00000000000E+00 0. -1.
         -5    1    5    5    0  502 -0.21088314375E+02  0.61211453846E+02  0.70420792918E+01  0.65293490992E+02  0.47000000000E+01 0.  1.
         13    1    6    6    0    0 -0.20743681435E+02 -0.56682746784E+02  0.76425807732E+00  0.60364047188E+02  0.00000000000E+00 0. -1.
        -14    1    6    6    0    0 -0.83715986096E+02 -0.62621069053E+01  0.29287184094E+02  0.88911863455E+02  0.00000000000E+00 0.  1.
</event>
<event>
12    1  0.8053217E-002  0.2027353E+03  0.7818608E-02  0.1147645E+00
         21   -1    0    0  503  502  0.00000000000E+00  0.00000000000E+00  0.10121232169E+04  0.10121232169E+04  0.00000000000E+00 0. -1.
         21   -1    0    0  501  503 -0.00000000000E+00 -0.00000000000E+00 -0.80446246513E+02  0.80446246513E+02  0.00000000000E+00 0. -1.
          6    2    1    2  501    0  0.77931469642E+02 -0.73601823279E+02  0.79982086013E+02  0.21707773139E+03  0.17098264542E+03 0.  0.
         24    2    3    3    0    0  0.12993659537E+02 -0.40778737860E+02  0.10691059894E+03  0.13935058732E+03  0.78466358203E+02 0.  0.
         -6    2    1    2    0  502 -0.77931469642E+02  0.73601823279E+02  0.85169488437E+03  0.87549173201E+03  0.17207862858E+03 0.  0.
        -24    2    5    5    0    0 -0.18145022531E+02  0.37552055831E+02  0.71437499134E+03  0.72137214204E+03  0.91141320620E+02 0.  0.
          5    1    3    3  501    0  0.64937810105E+02 -0.32823085419E+02 -0.26928512930E+02  0.77727144076E+02  0.47000000000E+01 0. -1.
        -11    1    4    4    0    0  0.44292679755E+02 -0.27921811593E+02  0.82168896976E+02  0.97433036866E+02  0.00000000000E+00 0.  1.
         12    1    4    4    0    0 -0.31299020218E+02 -0.12856926267E+02  0.24741701967E+02  0.41917550452E+02  0.00000000000E+00 0. -1.
         -5    1    5    5    0  502 -0.59786447111E+02  0.36049767448E+02  0.13731989303E+03  0.15411958997E+03  0.47000000000E+01 0.  1.
         11    1    6    6    0    0 -0.32741295085E+02  0.53480300348E+02  0.30250639594E+03  0.30893729867E+03  0.00000000000E+00 0. -1.
        -12    1    6    6    0    0  0.14596272554E+02 -0.15928244518E+02  0.41186859540E+03  0.41243484337E+03  0.00000000000E+00 0.  1.
</event>
<event>
12    1  0.8053217E-002  0.1764080E+03  0.7818608E-02  0.1171512E+00
         21   -1    0    0  503  502  0.00000000000E+00  0.00000000000E+00  0.15098820286E+03  0.15098820286E+03  0.00000000000E+00 0.  1.
         21   -1    0    0  501  503 -0.00000000000E+00 -0.00000000000E+00 -0.27190112630E+03  0.27190112630E+03  0.00000000000E+00 0.  1.
          6    2    1    2  501    0 -0.23888182231E+02 -0.28351697451E+02 -0.16525558523E+03  0.24172129345E+03  0.17246829058E+03 0.  0.
         24    2    3    3    0    0 -0.69254158838E+02 -0.56438152822E+02 -0.91335427660E+02  0.15043492806E+03  0.79417275360E+02 0.  0.
         -6    2    1    2    0  502  0.23888182231E+02  0.28351697451E+02  0.44342661794E+02  0.18116803571E+03  0.17170067417E+03 0.  0.
        -24    2    5    5    0    0 -0.37371588368E+02 -0.12671523900E+02 -0.10346086402E+02  0.89251696779E+02  0.79382748372E+02 0.  0.
          5    1    3    3  501    0  0.45365976607E+02  0.28086455371E+02 -0.73920157573E+02  0.91286365381E+02  0.47000000000E+01 0. -1.
        -11    1    4    4    0    0 -0.81747435275E+02 -0.28549015176E+02 -0.79854898926E+02  0.11779004340E+03  0.00000000000E+00 0.  1.
         12    1    4    4    0    0  0.12493276437E+02 -0.27889137647E+02 -0.11480528734E+02  0.32644884665E+02  0.00000000000E+00 0. -1.
         -5    1    5    5    0  502  0.61259770599E+02  0.41023221351E+02  0.54688748196E+02  0.91916338934E+02  0.47000000000E+01 0.  1.
         11    1    6    6    0    0  0.27224146225E+01 -0.13044648969E+02  0.29718756882E+02  0.32569601145E+02  0.00000000000E+00 0. -1.
        -12    1    6    6    0    0 -0.40094002991E+02  0.37312506840E+00 -0.40064843284E+02  0.56682095634E+02  0.00000000000E+00 0.  1.
</event>
<event>
12    1  0.8053217E-002  0.2563418E+03  0.7818608E-02  0.1109683E+00
         21   -1    0    0  501  502  0.00000000000E+00  0.00000000000E+00  0.21293038422E+03  0.21293038422E+03  0.00000000000E+00 0. -1.
         21   -1    0    0  502  503 -0.00000000000E+00 -0.00000000000E+00 -0.90243759900E+03  0.90243759900E+03  0.00000000000E+00 0. -1.
         -6    2    1    2    0  503  0.10276166547E+03  0.15885212941E+03 -0.79858027896E+03  0.83871423924E+03  0.17296576033E+03 0.  0.
        -24    2    3    3    0    0  0.79800944586E+02  0.13627286016E+03 -0.78284377646E+03  0.80256530268E+03  0.79550006608E+02 0.  0.
          6    2    1    2  501    0 -0.10276166547E+03 -0.15885212941E+03  0.10907306418E+03  0.27665374399E+03  0.16984228516E+03 0.  0.
         24    2    5    5    0    0 -0.12234647601E+02 -0.70197641078E+02  0.10457241999E+03  0.14977937675E+03  0.80131612129E+02 0.  0.
          5    1    5    5  501    0 -0.90527017864E+02 -0.88654488331E+02  0.45006441880E+01  0.12687436724E+03  0.47000000000E+01 0. -1.
        -11    1    6    6    0    0  0.32917882198E+02 -0.17785061720E+02  0.29110345118E+02  0.47405775826E+02  0.00000000000E+00 0.  1.
         12    1    6    6    0    0 -0.45152529799E+02 -0.52412579358E+02  0.75462074871E+02  0.10237360092E+03  0.00000000000E+00 0. -1.
         -5    1    3    3    0  503  0.22960720879E+02  0.22579269250E+02 -0.15736502498E+02  0.36148936554E+02  0.47000000000E+01 0.  1.
         11    1    4    4    0    0  0.71742682458E+02  0.49644933193E+02 -0.32368784535E+03  0.33523939670E+03  0.00000000000E+00 0. -1.
        -12    1    4    4    0    0  0.80582621280E+01  0.86627926965E+02 -0.45915593112E+03  0.46732590598E+03  0.00000000000E+00 0.  1.
</event>
<event>
12    1  0.8053217E-002  0.2035890E+03  0.7818608E-02  0.1146831E+00
         21   -1    0    0  503  502  0.00000000000E+00  0.00000000000E+00  0.16362397378E+03  0.16362397378E+03  0.00000000000E+00 0.  1.
         21   -1    0    0  501  503 -0.00000000000E+00 -0.00000000000E+00 -0.32686971146E+03  0.32686971146E+03  0.00000000000E+00 0. -1.
          6    2    1    2  501    0  0.94076698451E+02  0.51124476461E+02 -0.19842882453E+03  0.28429295573E+03  0.17315989428E+03 0.  0.
         24    2    3    3    0    0  0.99793459362E+02 -0.17632405718E+02 -0.96451161407E+02  0.16107881702E+03  0.79836849210E+02 0.  0.
         -6    2    1    2    0  502 -0.94076698451E+02 -0.51124476461E+02  0.35183086850E+02  0.20620072952E+03  0.17267528476E+03 0.  0.
        -24    2    5    5    0    0 -0.31915433325E+02 -0.30275909816E+02 -0.45354558204E+02  0.10224358506E+03  0.80383388432E+02 0.  0.
          5    1    3    3  501    0 -0.57167609118E+01  0.68756882179E+02 -0.10197766312E+03  0.12321413871E+03  0.47000000000E+01 0. -1.
        -11    1    4    4    0    0  0.93105915150E+02 -0.29519573587E+01 -0.38278530577E+02  0.10071083056E+03  0.00000000000E+00 0.  1.
         12    1    4    4    0    0  0.66875442125E+01 -0.14680448359E+02 -0.58172630830E+02  0.60367986461E+02  0.00000000000E+00 0. -1.
         -5    1    5    5    0  502 -0.62161265126E+02 -0.20848566645E+02  0.80537645054E+02  0.10395714446E+03  0.47000000000E+01 0.  1.
         11    1    6    6    0    0 -0.42346953595E+02 -0.21159455365E+02 -0.63631655886E+02  0.79309360487E+02  0.00000000000E+00 0. -1.
        -12    1    6    6    0    0  0.10431520270E+02 -0.91164544505E+01  0.18277097682E+02  0.22934224569E+02  0.00000000000E+00 0.  1.
</event>
<event>
12    1  0.8053217E-002  0.2364741E+03  0.7818608E-02  0.1122401E+00
         21   -1    0    0  501  502  0.00000000000E+00  0.00000000000E+00  0.75301779928E+03  0.75301779928E+03  0.00000000000E+00 0.  1.
         21   -1    0    0  502  503 -0.00000000000E+00 -0.00000000000E+00 -0.87036571125E+02  0.87036571125E+02  0.00000000000E+00 0.  1.
         -6    2    1    2    0  503  0.14832401908E+03  0.62240118302E+02  0.16852059778E+03  0.28924854243E+03  0.17144002000E+03 0.  0.
        -24    2    3    3    0    0  0.13823199137E+03  0.87549301837E+02  0.84426749695E+02  0.20072583867E+03  0.79937616656E+02 0.  0.
          6    2    1    2  501    0 -0.14832401908E+03 -0.62240118302E+02  0.49746063037E+03  0.55080582798E+03  0.17333820813E+03 0.  0.
         24    2    5    5    0    0 -0.87884829831E+02  0.29593866115E+02  0.31243709615E+03  0.33553350159E+03  0.79788792525E+02 0.  0.
          5    1    5    5  501    0 -0.60439189248E+02 -0.91833984417E+02  0.18502353422E+03  0.21527232638E+03  0.47000000000E+01 0. -1.
        -11    1    6    6    0    0 -0.11517770059E+01  0.28952736101E+02  0.38451168826E+02  0.48146442258E+02  0.00000000000E+00 0.  1.
         12    1    6    6    0    0 -0.86733052825E+02  0.64113001413E+00  0.27398592733E+03  0.28738705933E+03  0.00000000000E+00 0. -1.
         -5    1    3    3    0  503  0.10092027711E+02 -0.25309183535E+02  0.84093848082E+02  0.88522703753E+02  0.47000000000E+01 0.  1.
         11    1    4    4    0    0  0.47501280251E+02  0.75846570040E+02  0.52924246485E+02  0.10397138875E+03  0.00000000000E+00 0. -1.
        -12    1    4    4    0    0  0.90730711118E+02  0.11702731797E+02  0.31502503210E+02  0.96754449923E+02  0.00000000000E+00 0.  1.
</event>
<event>
12    1  0.8053217E-002  0.1807312E+03  0.7818608E-02  0.1169491E+00
         21   -1    0    0  503  502  0.00000000000E+00  0.00000000000E+00  0.20696704022E+03  0.20696704022E+03  0.00000000000E+00 0.  1.
         21   -1    0    0  501  503 -0.00000000000E+00 -0.00000000000E+00 -0.14953132451E+03  0.14953132451E+03  0.00000000000E+00 0. -1.
          6    2    1    2  501    0 -0.16305993190E+02  0.57882375841E+02  0.25422064605E+02  0.17295372965E+03  0.16015759858E+03 0.  0.
         24    2    3    3    0    0 -0.13291230994E+02 -0.26923097782E+02  0.30189369251E+02  0.87831027967E+02  0.76820449376E+02 0.  0.
         -6    2    1    2    0  502  0.16305993190E+02 -0.57882375841E+02  0.32013651106E+02  0.18354463508E+03  0.17043328419E+03 0.  0.
        -24    2    5    5    0    0  0.26089572419E+02  0.25859737672E+02  0.33502915423E+01  0.94369873065E+02  0.86862285644E+02 0.  0.
          5    1    3    3  501    0 -0.30147621960E+01  0.84805473623E+02 -0.47673046459E+01  0.85122701679E+02  0.47000000000E+01 0. -1.
        -13    1    4    4    0    0 -0.38196727186E+02  0.42491581244E+01  0.10911458902E+01  0.38447833643E+02  0.00000000000E+00 0.  1.
         14    1    4    4    0    0  0.24905496192E+02 -0.31172255906E+02  0.29098223360E+02  0.49383194323E+02  0.00000000000E+00 0. -1.
         -5    1    5    5    0  502 -0.97835792290E+01 -0.83742113513E+02  0.28663359564E+02  0.89174762011E+02  0.47000000000E+01 0.  1.
         11    1    6    6    0    0 -0.21156425861E+02 -0.17959190147E+02  0.10205136336E+02  0.29568085389E+02  0.00000000000E+00 0. -1.
        -12    1    6    6    0    0  0.47245998280E+02  0.43818927819E+02 -0.68548447941E+01  0.64801787675E+02  0.00000000000E+00 0.  1.
</event>
<event>
12    1  0.8053217E-002  0.1958356E+03  0.7818608E-02  0.1153404E+00
         21   -1    0    0  501  502  0.00000000000E+00  0.00000000000E+00  0.60624784206E+02  0.60624784206E+02  0.00000000000E+00 0. -1.
         21   -1    0    0  502  503 -0.00000000000E+00 -0.00000000000E+00 -0.77246445059E+03  0.77246445059E+03  0.00000000000E+00 0.  1.
         -6    2    1    2    0  503 -0.85486714671E+02 -0.11620026388E+02 -0.17734886888E+03  0.26385115421E+03  0.17527637287E+03 0.  0.
        -24    2    3    3    0    0  0.18680613741E+02  0.85403678869E+01 -0.36410754650E+02  0.87377598548E+02  0.76728081302E+02 0.  0.
          6    2    1    2  501    0  0.85486714671E+02  0.11620026388E+02 -0.53449079750E+03  0.56923808059E+03  0.17580835126E+03 0.  0.
         24    2    5    5    0    0  0.35778942152E+02  0.72561427447E+02 -0.34902049592E+03  0.36772867688E+03  0.82847931617E+02 0.  0.
          5    1    5    5  501    0  0.49707772520E+02 -0.60941401059E+02 -0.18547030159E+03  0.20150940371E+03  0.47000000000E+01 0. -1.
        -13    1    6    6    0    0  0.36210157936E+02  0.29057113976E+02 -0.29371498158E+03  0.29736170200E+03  0.00000000000E+00 0.  1.
         14    1    6    6    0    0 -0.43121578411E+00  0.43504313471E+02 -0.55305514335E+02  0.70366974878E+02  0.00000000000E+00 0. -1.
         -5    1    3    3    0  503 -0.10416732841E+03 -0.20160394274E+02 -0.14093811423E+03  0.17647355567E+03  0.47000000000E+01 0.  1.
         13    1    4    4    0    0  0.18467277993E+02  0.12214537866E+02  0.20603512043E+02  0.30244668956E+02  0.00000000000E+00 0. -1.
        -14    1    4    4    0    0  0.21333574767E+00 -0.36741699789E+01 -0.57014266693E+02  0.57132929592E+02  0.00000000000E+00 0.  1.
</event>
<event>
12    1  0.8053217E-002  0.2185342E+03  0.7818608E-02  0.1135385E+00
         21   -1    0    0  503  502  0.00000000000E+00  0.00000000000E+00  0.39365290857E+02  0.39365290857E+02  0.00000000000E+00 0.  1.
         21   -1    0    0  501  503 -0.00000000000E+00 -0.00000000000E+00 -0.12616454065E+04  0.12616454065E+04  0.00000000000E+00 0.  1.
          6    2    1    2  501    0  0.12307771353E+03 -0.48443732383E+02 -0.75051637159E+03  0.78108933650E+03  0.17126239750E+03 0.  0.
         24    2    3    3    0    0  0.14756860312E+03 -0.20647695139E+02 -0.54293841431E+03  0.57017911459E+03  0.90107053209E+02 0.  0.
         -6    2    1    2    0  502 -0.12307771353E+03  0.48443732383E+02 -0.47176374410E+03  0.51992136090E+03  0.17396054868E+03 0.  0.
        -24    2    5    5    0    0 -0.14499396858E+03  0.44774537547E+00 -0.36268584295E+03  0.39866124576E+03  0.79789202261E+02 0.  0.
          5    1    3    3  501    0 -0.24490889587E+02 -0.27796037244E+02 -0.20757795728E+03  0.21091022192E+03  0.47000000000E+01 0. -1.
        -11    1    4    4    0    0  0.20482551014E+02 -0.35215817332E+02 -0.20122838556E+03  0.20531086635E+03  0.00000000000E+00 0.  1.
         12    1    4    4    0    0  0.12708605211E+03  0.14568122193E+02 -0.34171002875E+03  0.36486824824E+03  0.00000000000E+00 0. -1.
         -5    1    5    5    0  502  0.21916255043E+02  0.47995987008E+02 -0.10907790115E+03  0.12126011514E+03  0.47000000000E+01 0.  1.
         13    1    6    6    0    0  0.77295812800E+01  0.86167291926E+01 -0.38629689735E+02  0.40326757591E+02  0.00000000000E+00 0. -1.
        -14    1    6    6    0    0 -0.15272354986E+03 -0.81689838171E+01 -0.32405615321E+03  0.35833448817E+03  0.00000000000E+00 0.  1.
</event>
<event>
12    1  0.8053217E-002  0.1865157E+03  0.7818608E-02  0.1161887E+00
         21   -1    0    0  503  502  0.00000000000E+00  0.00000000000E+00  0.13933432433E+03  0.13933432433E+03  0.00000000000E+00 0.  1.
         21   -1    0    0  501  503 -0.00000000000E+00 -0.00000000000E+00 -0.25552656599E+03  0.25552656599E+03  0.00000000000E+00 0. -1.
          6    2    1    2  501    0  0.66107426671E+02  0.19808460376E+02 -0.91233801897E+02  0.20668269793E+03  0.17213821206E+03 0.  0.
         24    2    3    3    0    0  0.59554103754E+02 -0.22472241477E+02  0.26386261505E+01  0.10341253507E+03  0.81458560937E+02 0.  0.
         -6    2    1    2    0  502 -0.66107426671E+02 -0.19808460376E+02 -0.24958439762E+02  0.18817819239E+03  0.17327879678E+03 0.  0.
        -24    2    5    5    0    0  0.31737789185E+02 -0.16398967759E+02 -0.18152321835E+02  0.89924825289E+02  0.80503130432E+02 0.  0.
          5    1    3    3  501    0  0.65533229164E+01  0.42280701852E+02 -0.93872428047E+02  0.10327016286E+03  0.47000000000E+01 0. -1.
        -11    1    4    4    0    0  0.27326745907E+02  0.26815784251E+02  0.18360353274E+02  0.42461039780E+02  0.00000000000E+00 0.  1.
         12    1    4    4    0    0  0.32227357848E+02 -0.49288025727E+02 -0.15721727123E+02  0.60951495287E+02  0.00000000000E+00 0. -1.
         -5    1    5    5    0  502 -0.97845215856E+02 -0.34094926168E+01 -0.68061179263E+01  0.98253367102E+02  0.47000000000E+01 0.  1.
         11    1    6    6    0    0 -0.26687894040E+01  0.50715096515E+01 -0.42325085617E+02  0.42711304353E+02  0.00000000000E+00 0. -1.
        -12    1    6    6    0    0  0.34406578589E+02 -0.21470477410E+02  0.24172763781E+02  0.47213520937E+02  0.00000000000E+00 0.  1.
</event>
<event>
12    1  0.8053217E-002  0.2021476E+03  0.7818608E-02  0.1148161E+00
         21   -1    0    0  501  502  0.00000000000E+00  0.00000000000E+00  0.10003060678E+03  0.10003060678E+03  0.00000000000E+00 0. -1.
         21   -1    0    0  502  503 -0.00000000000E+00 -0.00000000000E+00 -0.12874313205E+04  0.12874313205E+04  0.00000000000E+00 0. -1.
         -6    2    1    2    0  503 -0.10497890689E+03  0.20726824928E+02 -0.11680880573E+04  0.11854507052E+04  0.17150362305E+03 0.  0.
        -24    2    3    3    0    0 -0.13142392182E+03  0.47375801532E+02 -0.86391351821E+03  0.87893195049E+03  0.81597137471E+02 0.  0.
          6    2    1    2  501    0  0.10497890689E+03 -0.20726824928E+02 -0.19312656398E+02  0.20201122205E+03  0.17025094118E+03 0.  0.
         24    2    5    5    0    0  0.45819360655E+02  0.41134801975E+02 -0.48308616362E+02  0.11151498738E+03  0.79437927037E+02 0.  0.
          5    1    5    5  501    0  0.59159546237E+02 -0.61861626902E+02  0.28995959963E+02  0.90496234663E+02  0.47000000000E+01 0. -1.
        -11    1    6    6    0    0  0.47459918300E+02  0.43952573321E+02 -0.16133981308E+01  0.64706070814E+02  0.00000000000E+00 0.  1.
         12    1    6    6    0    0 -0.16405576454E+01 -0.28177713467E+01 -0.46695218231E+02  0.46808916569E+02  0.00000000000E+00 0. -1.
         -5    1    3    3    0  503  0.26445014926E+02 -0.26648976604E+02 -0.30417453911E+03  0.30651875474E+03  0.47000000000E+01 0.  1.
         11    1    4    4    0    0 -0.64298824940E+02  0.65926239939E+02 -0.50320822690E+03  0.51156536984E+03  0.00000000000E+00 0. -1.
        -12    1    4    4    0    0 -0.67125096877E+02 -0.18550438407E+02 -0.36070529131E+03  0.36736658065E+03  0.00000000000E+00 0.  1.
</event>
<event>
12    1  0.8053217E-002  0.4369342E+03  0.7818608E-02  0.1031700E+00
         21   -1    0    0  501  502  0.00000000000E+00  0.00000000000E+00  0.66986257829E+03  0.66986257829E+03  0.00000000000E+00 0. -1.
         21   -1    0    0  502  503 -0.00000000000E+00 -0.00000000000E+00 -0.31073541197E+03  0.31073541197E+03  0.00000000000E+00 0.  1.
         -6    2    1    2    0  503 -0.37085717868E+03 -0.15265232020E+03  0.38283123306E+02  0.43860813488E+03  0.17341776325E+03 0.  0.
        -24    2    3    3    0    0 -0.20339750456E+03 -0.30375796849E+02  0.64384465923E+02  0.22956828053E+03  0.79139131141E+02 0.  0.
          6    2    1    2  501    0  0.37085717868E+03  0.15265232020E+03  0.32084404301E+03  0.54198985538E+03  0.17313094915E+03 0.  0.
         24    2    5    5    0    0  0.93653769425E+02  0.98502908334E+01  0.11136813429E+03  0.16630861279E+03  0.79922691381E+02 0.  0.
          5    1    5    5  501    0  0.27720340926E+03  0.14280202937E+03  0.20947590872E+03  0.37568124259E+03  0.47000000000E+01 0. -1.
        -11    1    6    6    0    0 -0.96505028743E+01  0.37413726318E+01 -0.42083000107E+01  0.11173176087E+02  0.00000000000E+00 0.  1.
         12    1    6    6    0    0  0.10330427230E+03  0.61089182017E+01  0.11557643430E+03  0.15513543670E+03  0.00000000000E+00 0. -1.
         -5    1    3    3    0  503 -0.16745967412E+03 -0.12227652335E+03 -0.26101342617E+02  0.20903985435E+03  0.47000000000E+01 0.  1.
         11    1    4    4    0    0 -0.17253090046E+03  0.48410499280E+01  0.41853714118E+02  0.17760090304E+03  0.00000000000E+00 0. -1.
        -12    1    4    4    0    0 -0.30866604104E+02 -0.35216846777E+02  0.22530751805E+02  0.51967377486E+02  0.00000000000E+00 0.  1.
</event>
<event>
12    1  0.8053217E-002  0.2200099E+03  0.7818608E-02  0.1134057E+00
         21   -1    0    0  501  502  0.00000000000E+00  0.00000000000E+00  0.20838160656E+03  0.20838160656E+03  0.00000000000E+00 0.  1.
         21   -1    0    0  502  503 -0.00000000000E+00 -0.00000000000E+00 -0.23341621614E+03  0.23341621614E+03  0.00000000000E+00 0. -1.
         -6    2    1    2    0  503 -0.93304887015E+02  0.10113149198E+03  0.86782876562E+01  0.22018102728E+03  0.17167117256E+03 0.  0.
        -24    2    3    3    0    0 -0.26142877465E+02  0.10717562608E+03  0.44576783671E+02  0.14364306873E+03  0.80474695922E+02 0.  0.
          6    2    1    2  501    0  0.93304887015E+02 -0.10113149198E+03 -0.33712897231E+02  0.22161679542E+03  0.17042319079E+03 0.  0.
         24    2    5    5    0    0  0.81959370622E+02 -0.45521844901E+02  0.38200630347E+02  0.12988458167E+03  0.81370385273E+02 0.  0.
          5    1    5    5  501    0  0.11345516392E+02 -0.55609647080E+02 -0.71913527579E+02  0.91732213750E+02  0.47000000000E+01 0. -1.
        -11    1    6    6    0    0 -0.37080240318E+01  0.18819020687E+01  0.31471911796E+02  0.31745428486E+02  0.00000000000E+00 0.  1.
         12    1    6    6    0    0  0.85667394654E+02 -0.47403746970E+02  0.67287185512E+01  0.98139153180E+02  0.00000000000E+00 0. -1.
         -5    1    3    3    0  503 -0.67162009550E+02 -0.60441340962E+01 -0.35898496015E+02  0.76537958556E+02  0.47000000000E+01 0.  1.
         11    1    4    4    0    0 -0.12508585876E+02 -0.20884618443E+01 -0.14025124040E+02  0.18908476877E+02  0.00000000000E+00 0. -1.
        -12    1    4    4    0    0 -0.13634291589E+02  0.10926408792E+03  0.58601907711E+02  0.12473459185E+03  0.00000000000E+00 0.  1.
</event>
<event>
12    1  0.8053217E-002  0.1847283E+03  0.7818608E-02  0.1163735E+00
         21   -1    0    0  501  502  0.00000000000E+00  0.00000000000E+00  0.28285071553E+03  0.28285071553E+03  0.00000000000E+00 0.  1.
         21   -1    0    0  502  503 -0.00000000000E+00 -0.00000000000E+00 -0.15407157302E+03  0.15407157302E+03  0.00000000000E+00 0.  1.
         -6    2    1    2    0  503  0.57657978821E+02 -0.32211722175E+02  0.16819481281E+03  0.24982800240E+03  0.17251810967E+03 0.  0.
        -24    2    3    3    0    0  0.93829995760E+02  0.68327246129E+00  0.77524820115E+02  0.14670849379E+03  0.81906956064E+02 0.  0.
          6    2    1    2  501    0 -0.57657978821E+02  0.32211722175E+02 -0.39415670296E+02  0.18709428614E+03  0.17055391896E+03 0.  0.
         24    2    5    5    0    0 -0.47935574850E+02  0.65961614561E+02 -0.73772943428E+02  0.13773749742E+03  0.82948279567E+02 0.  0.
          5    1    5    5  501    0 -0.97224039712E+01 -0.33749892387E+02  0.34357273133E+02  0.49356788714E+02  0.47000000000E+01 0. -1.
        -11    1    6    6    0    0 -0.55065527957E+02  0.68076807092E+01 -0.45656770533E+02  0.71854697699E+02  0.00000000000E+00 0.  1.
         12    1    6    6    0    0  0.71299531072E+01  0.59153933852E+02 -0.28116172895E+02  0.65882799726E+02  0.00000000000E+00 0. -1.
         -5    1    3    3    0  503 -0.36172016939E+02 -0.32894994636E+02  0.90669992692E+02  0.10311950861E+03  0.47000000000E+01 0.  1.
         13    1    4    4    0    0 -0.15616729432E+01 -0.11343334583E+02  0.43083457281E+02  0.44579079770E+02  0.00000000000E+00 0. -1.
        -14    1    4    4    0    0  0.95391668703E+02  0.12026607044E+02  0.34441362834E+02  0.10212941402E+03  0.00000000000E+00 0.  1.
</event>
<event>
12    1  0.8053217E-002  0.2207654E+03  0.7818608E-02  0.1133417E+00
         21   -1    0    0  501  502  0.00000000000E+00  0.00000000000E+00  0.95888278032E+02  0.95888278032E+02  0.00000000000E+00 0.  1.
         21   -1    0    0  502  503 -0.00000000000E+00 -0.00000000000E+00 -0.75333114513E+03  0.75333114513E+03  0.00000000000E+00 0.  1.
         -6    2    1    2    0  503  0.85259572581E+02 -0.10977729879E+03 -0.57124870653E+03  0.61222407266E+03  0.17080099645E+03 0.  0.
        -24    2    3    3    0    0 -0.17576032862E+02 -0.22653599631E+02 -0.24260273437E+03  0.25698335748E+03  0.79763756140E+02 0.  0.
          6    2    1    2  501    0 -0.85259572581E+02  0.10977729879E+03 -0.86194160571E+02  0.23699535050E+03  0.17151417666E+03 0.  0.
         24    2    5    5    0    0 -0.58273060963E+02  0.12879308808E+03 -0.10963860335E+03  0.19623257399E+03  0.80642362193E+02 0.  0.
          5    1    5    5  501    0 -0.26986511618E+02 -0.19015789290E+02  0.23444442777E+02  0.40762776509E+02  0.47000000000E+01 0. -1.
        -11    1    6    6    0    0 -0.72124830817E+02  0.71169177909E+02 -0.84173625442E+02  0.13172791020E+03  0.00000000000E+00 0.  1.
         12    1    6    6    0    0  0.13851769854E+02  0.57623910173E+02 -0.25464977905E+02  0.64504663796E+02  0.00000000000E+00 0. -1.
         -5    1    3    3    0  503  0.10283560544E+03 -0.87123699161E+02 -0.32864597216E+03  0.35524071518E+03  0.47000000000E+01 0.  1.
         13    1    4    4    0    0 -0.11163340130E+01  0.14844449996E+02 -0.47423727847E+01  0.15623507831E+02  0.00000000000E+00 0. -1.
        -14    1    4    4    0    0 -0.16459698849E+02 -0.37498049627E+02 -0.23786036158E+03  0.24135984965E+03  0.00000000000E+00 0.  1.
</event>
<event>
12    1  0.8053217E-002  0.2203935E+03  0.7818608E-02  0.1133801E+00
         21   -1    0    0  501  502  0.00000000000E+00  0.00000000000E+00  0.29127187978E+03  0.29127187978E+03  0.00000000000E+00 0. -1.
         21   -1    0    0  502  503 -0.00000000000E+00 -0.00000000000E+00 -0.82892924596E+03  0.82892924596E+03  0.00000000000E+00 0.  1.
         -6    2    1    2    0  503 -0.83023627041E+02 -0.10758905970E+03 -0.76961298483E+03  0.80023755489E+03  0.17206879269E+03 0.  0.
        -24    2    3    3    0    0 -0.88767737711E+02 -0.76893155929E+02 -0.32978056594E+03  0.35927283972E+03  0.80805216428E+02 0.  0.
          6    2    1    2  501    0  0.83023627041E+02  0.10758905970E+03  0.23195561865E+03  0.31996357085E+03  0.17350777860E+03 0.  0.
         24    2    5    5    0    0  0.23821244968E+02  0.57395974756E+02  0.21861445758E+03  0.24106905648E+03  0.80375738243E+02 0.  0.
          5    1    5    5  501    0  0.59202382073E+02  0.50193084947E+02  0.13341161072E+02  0.78894514374E+02  0.47000000000E+01 0. -1.
        -11    1    6    6    0    0  0.46427810298E+02  0.16473152250E+02  0.72470661523E+02  0.87629350652E+02  0.00000000000E+00 0.  1.
         12    1    6    6    0    0 -0.22606565330E+02  0.40922822506E+02  0.14614379606E+03  0.15343970582E+03  0.00000000000E+00 0. -1.
         -5    1    3    3    0  503  0.57441106697E+01 -0.30695903774E+02 -0.43983241889E+03  0.44096471517E+03  0.47000000000E+01 0.  1.
         11    1    4    4    0    0 -0.18265309289E+02  0.16188886775E+02 -0.78077232111E+02  0.81803152461E+02  0.00000000000E+00 0. -1.
        -12    1    4    4    0    0 -0.70502428421E+02 -0.93082042703E+02 -0.25170333383E+03  0.27746968726E+03  0.00000000000E+00 0.  1.
</event>
<event>
12    1  0.8053217E-002  0.2962055E+03  0.7818608E-02  0.1087494E+00
         21   -1    0    0  503  502  0.00000000000E+00  0.00000000000E+00  0.51504311147E+03  0.51504311147E+03  0.00000000000E+00 0.  1.
         21   -1    0    0  501  503 -0.00000000000E+00 -0.00000000000E+00 -0.26200519079E+03  0.26200519079E+03  0.00000000000E+00 0.  1.
          6    2    1    2  501    0  0.77293888035E+02 -0.22705639202E+03 -0.10482030164E+03  0.31420529416E+03  0.17380656189E+03 0.  0.
         24    2    3    3    0    0  0.69673443140E+02 -0.21488487956E+03 -0.13938126217E+03  0.27648571186E+03  0.77377725976E+02 0.  0.
         -6    2    1    2    0  502 -0.77293888035E+02  0.22705639202E+03  0.35785822233E+03  0.46284300810E+03  0.16921049785E+03 0.  0.
        -24    2    5    5    0    0 -0.29536447202E+02  0.12616616272E+03  0.10543553234E+03  0.18680149684E+03  0.83593333542E+02 0.  0.
          5    1    3    3  501    0  0.76204448958E+01 -0.12171512453E+02  0.34560960526E+02  0.37719582292E+02  0.47000000000E+01 0. -1.
        -11    1    4    4    0    0  0.28312028849E+02 -0.17497651151E+03 -0.82108521744E+02  0.19534625642E+03  0.00000000000E+00 0.  1.
         12    1    4    4    0    0  0.41361414290E+02 -0.39908368057E+02 -0.57272740426E+02  0.81139455439E+02  0.00000000000E+00 0. -1.
         -5    1    5    5    0  502 -0.47757440833E+02  0.10089022930E+03  0.25242268998E+03  0.27604151126E+03  0.47000000000E+01 0.  1.
         13    1    6    6    0    0 -0.87619732851E+01 -0.60102683611E+01  0.32968189761E+02  0.34638086520E+02  0.00000000000E+00 0. -1.
        -14    1    6    6    0    0 -0.20774473917E+02  0.13217643108E+03  0.72467342582E+02  0.15216341032E+03  0.00000000000E+00 0.  1.
</event>
<event>
12    1  0.8053217E-002  0.2241525E+03  0.7818608E-02  0.1131200E+00
         21   -1    0    0  503  502  0.00000000000E+00  0.00000000000E+00  0.16753477656E+03  0.16753477656E+03  0.00000000000E+00 0.  1.
         21   -1    0    0  501  503 -0.00000000000E+00 -0.00000000000E+00 -0.40406067889E+03  0.40406067889E+03  0.00000000000E+00 0. -1.
          6    2    1    2  501    0  0.13394925581E+03 -0.39155278670E+02 -0.26486108927E+03  0.34565909241E+03  0.17278099598E+03 0.  0.
         24    2    3    3    0    0  0.88415471844E+02  0.26998823381E+02 -0.87340333640E+02  0.15076065891E+03  0.80958077225E+02 0.  0.
         -6    2    1    2    0  502 -0.13394925581E+03  0.39155278670E+02  0.28335186943E+02  0.22593636304E+03  0.17541042826E+03 0.  0.
        -24    2    5    5    0    0 -0.70314832346E+02  0.76386182078E+02  0.60315265868E+02  0.14543608064E+03  0.82065204524E+02 0.  0.
          5    1    3    3  501    0  0.45533783968E+02 -0.66154102050E+02 -0.17752075563E+03  0.19489843350E+03  0.47000000000E+01 0. -1.
        -13    1    4    4    0    0 -0.30986897076E+01 -0.15995551460E+02 -0.30979538943E+02  0.35002733858E+02  0.00000000000E+00 0.  1.
         14    1    4    4    0    0  0.91514161552E+02  0.42994374840E+02 -0.56360794696E+02  0.11575792505E+03  0.00000000000E+00 0. -1.
         -5    1    5    5    0  502 -0.63634423466E+02 -0.37230903409E+02 -0.31980078925E+02  0.80500282401E+02  0.47000000000E+01 0.  1.
         13    1    6    6    0    0 -0.10963882835E+02  0.42307042116E+02 -0.12548926503E+02  0.45470518974E+02  0.00000000000E+00 0. -1.
        -14    1    6    6    0    0 -0.59350949511E+02  0.34079139963E+02  0.72864192371E+02  0.99965561662E+02  0.00000000000E+00 0.  1.
</event>
<event>
12    1  0.8053217E-002  0.2207893E+03  0.7818608E-02  0.1133470E+00
         21   -1    0    0  501  502  0.00000000000E+00  0.00000000000E+00  0.24132118834E+03  0.24132118834E+03  0.00000000000E+00 0.  1.
         21   -1    0    0  502  503 -0.00000000000E+00 -0.00000000000E+00 -0.23967900835E+03  0.23967900835E+03  0.00000000000E+00 0. -1.
         -6    2    1    2    0  503 -0.12408858832E+03  0.60121831521E+02 -0.95606766898E+02  0.24060045566E+03  0.17243930240E+03 0.  0.
        -24    2    3    3    0    0 -0.83202254612E+02  0.43073860876E+02 -0.13375528806E+03  0.18195128470E+03  0.80236028434E+02 0.  0.
          6    2    1    2  501    0  0.12408858832E+03 -0.60121831521E+02  0.97248946894E+02  0.24039974103E+03  0.17123686939E+03 0.  0.
         24    2    5    5    0    0  0.80290995700E+02 -0.58068262323E+02 -0.66368028992E+01  0.12754237408E+03  0.80027763634E+02 0.  0.
          5    1    5    5  501    0  0.43797592620E+02 -0.20535691985E+01  0.10388574979E+03  0.11285736695E+03  0.47000000000E+01 0. -1.
        -11    1    6    6    0    0  0.46870608115E+02 -0.71481638584E+02  0.13101338247E+02  0.86476144824E+02  0.00000000000E+00 0.  1.
         12    1    6    6    0    0  0.33420387585E+02  0.13413376261E+02 -0.19738141146E+02  0.41066229252E+02  0.00000000000E+00 0. -1.
         -5    1    3    3    0  503 -0.40886333708E+02  0.17047970645E+02  0.38148521160E+02  0.58649170956E+02  0.47000000000E+01 0.  1.
         13    1    4    4    0    0 -0.43176008096E+02 -0.15342750929E+02 -0.83063445738E+02  0.94863605767E+02  0.00000000000E+00 0. -1.
        -14    1    4    4    0    0 -0.40026246516E+02  0.58416611805E+02 -0.50691842321E+02  0.87087678938E+02  0.00000000000E+00 0.  1.
</event>
<event>
12    1  0.8053217E-002  0.2006450E+03  0.7818608E-02  0.1149314E+00
         21   -1    0    0  501  502  0.00000000000E+00  0.00000000000E+00  0.51548355039E+02  0.51548355039E+02  0.00000000000E+00 0.  1.
         21   -1    0    0  502  503 -0.00000000000E+00 -0.00000000000E+00 -0.93265650453E+03  0.93265650453E+03  0.00000000000E+00 0.  1.
         -6    2    1    2    0  503 -0.80254210484E+02  0.66643767054E+02 -0.24119881763E+03  0.31374398884E+03  0.17139513098E+03 0.  0.
        -24    2    3    3    0    0 -0.47959225445E+02  0.98995687802E+01 -0.41744378562E+02  0.10382249552E+03  0.81476552868E+02 0.  0.
          6    2    1    2  501    0  0.80254210484E+02 -0.66643767054E+02 -0.63990933186E+03  0.67046087072E+03  0.17073867804E+03 0.  0.
         24    2    5    5    0    0  0.47842607718E+02  0.23814593845E+02 -0.40078693294E+03  0.41271130483E+03  0.82730922447E+02 0.  0.
          5    1    5    5  501    0  0.32411602766E+02 -0.90458360899E+02 -0.23912239893E+03  0.25774956590E+03  0.47000000000E+01 0. -1.
        -13    1    6    6    0    0  0.63791221707E+01  0.39573735367E+02 -0.29905576391E+03  0.30173021669E+03  0.00000000000E+00 0.  1.
         14    1    6    6    0    0  0.41463485548E+02 -0.15759141522E+02 -0.10173116902E+03  0.11098108814E+03  0.00000000000E+00 0. -1.
         -5    1    3    3    0  503 -0.32294985040E+02  0.56744198274E+02 -0.19945443906E+03  0.20992149332E+03  0.47000000000E+01 0.  1.
         11    1    4    4    0    0  0.12544805114E+02 -0.92440381072E+01 -0.37044269017E+02  0.40188334662E+02  0.00000000000E+00 0. -1.
        -12    1    4    4    0    0 -0.60504030558E+02  0.19143606887E+02 -0.47001095449E+01  0.63634160859E+02  0.00000000000E+00 0.  1.
</event>
<event>
12    1  0.8053217E-002  0.1807252E+03  0.7818608E-02  0.1167166E+00
         21   -1    0    0  501  502  0.00000000000E+00  0.00000000000E+00  0.14584476478E+03  0.14584476478E+03  0.00000000000E+00 0. -1.
         21   -1    0    0  502  503 -0.00000000000E+00 -0.00000000000E+00 -0.24031966582E+03  0.24031966582E+03  0.00000000000E+00 0. -1.
         -6    2    1    2    0  503 -0.55949853322E+02 -0.37353940664E+01 -0.98164556032E+02  0.20566449867E+03  0.17180589832E+03 0.  0.
        -24    2    3    3    0    0 -0.91686068593E+02 -0.38491854630E+02 -0.47730206059E+02  0.13459550199E+03  0.77135066850E+02 0.  0.
          6    2    1    2  501    0  0.55949853322E+02  0.37353940664E+01  0.36896549936E+01  0.18049993192E+03  0.17152921796E+03 0.  0.
         24    2    5    5    0    0 -0.26938425318E+02 -0.57680742111E+01 -0.29423075641E+02  0.90614863224E+02  0.81156556225E+02 0.  0.
          5    1    5    5  501    0  0.82888278640E+02  0.95034682776E+01  0.33112730634E+02  0.89885068700E+02  0.47000000000E+01 0. -1.
        -11    1    6    6    0    0 -0.63264405964E+01 -0.42829190623E+02 -0.14442562616E+02  0.45639358398E+02  0.00000000000E+00 0.  1.
         12    1    6    6    0    0 -0.20611984722E+02  0.37061116412E+02 -0.14980513024E+02  0.44975504826E+02  0.00000000000E+00 0. -1.
         -5    1    3    3    0  503  0.35736215272E+02  0.34756460564E+02 -0.50434349973E+02  0.71068996687E+02  0.47000000000E+01 0.  1.
         11    1    4    4    0    0 -0.23639837558E+01 -0.18162419159E+02  0.14912552226E+02  0.23618765903E+02  0.00000000000E+00 0. -1.
        -12    1    4    4    0    0 -0.89322084838E+02 -0.20329435472E+02 -0.62642758285E+02  0.11097673608E+03  0.00000000000E+00 0.  1.
</event>
<event>
12    1  0.8053217E-002  0.2028090E+03  0.7818608E-02  0.1147886E+00
         21   -1    0    0  503  502  0.00000000000E+00  0.00000000000E+00  0.56397819659E+02  0.56397819659E+02  0.00000000000E+00 0. -1.
         21   -1    0    0  501  503 -0.00000000000E+00 -0.00000000000E+00 -0.12035822445E+04  0.12035822445E+04  0.00000000000E+00 0.  1.
          6    2    1    2  501    0 -0.43314794402E+02 -0.98050919360E+02 -0.97056832605E+03  0.99104750607E+03  0.16935799232E+03 0.  0.
         24    2    3    3    0    0 -0.78139468734E+02 -0.10467286672E+03 -0.61741138341E+03  0.63608479780E+03  0.79654679901E+02 0.  0.
         -6    2    1    2    0  502  0.43314794402E+02  0.98050919360E+02 -0.17661609880E+03  0.26893255810E+03  0.17216654799E+03 0.  0.
        -24    2    5    5    0    0  0.93006163737E+02  0.51748454302E+02 -0.13239988250E+03  0.18775180766E+03  0.79956009024E+02 0.  0.
          5    1    3    3  501    0  0.34824674333E+02  0.66219473581E+01 -0.35315694264E+03  0.35496270827E+03  0.47000000000E+01 0. -1.
        -13    1    4    4    0    0  0.14466737632E+02 -0.25604335067E+01 -0.75412499380E+02  0.76830250424E+02  0.00000000000E+00 0.  1.
         14    1    4    4    0    0 -0.92606206366E+02 -0.10211243321E+03 -0.54199888403E+03  0.55925454738E+03  0.00000000000E+00 0. -1.
         -5    1    5    5    0  502 -0.49691369335E+02  0.46302465057E+02 -0.44216216305E+02  0.81180750434E+02  0.47000000000E+01 0.  1.
         13    1    6    6    0    0  0.28172338608E+02  0.32296393461E+02 -0.45619260930E+01  0.43099290747E+02  0.00000000000E+00 0. -1.
        -14    1    6    6    0    0  0.64833825129E+02  0.19452060842E+02 -0.12783795641E+03  0.14465251692E+03  0.00000000000E+00 0.  1.
</event>
<event>
12    1  0.8053217E-002  0.1820010E+03  0.7818608E-02  0.1166730E+00
         21   -1    0    0  503  502  0.00000000000E+00  0.00000000000E+00  0.10270381519E+04  0.10270381519E+04  0.00000000000E+00 0.  1.
         21   -1    0    0  501  503 -0.00000000000E+00 -0.00000000000E+00 -0.31681813481E+02  0.31681813481E+02  0.00000000000E+00 0.  1.
          6    2    1    2  501    0 -0.51835250423E+02 -0.54267484977E+01  0.52374695395E+03  0.55446841825E+03  0.17437893302E+03 0.  0.
         24    2    3    3    0    0  0.39184608043E+02  0.79282350034E+01  0.22842654488E+03  0.24511553847E+03  0.79401828526E+02 0.  0.
         -6    2    1    2    0  502  0.51835250423E+02  0.54267484977E+01  0.47160938450E+03  0.50425154715E+03  0.17069817948E+03 0.  0.
        -24    2    5    5    0    0 -0.40517810957E+01 -0.26254423622E+02  0.12049397317E+03  0.14727650737E+03  0.80410573702E+02 0.  0.
          5    1    3    3  501    0 -0.91019858466E+02 -0.13354983501E+02  0.29532040907E+03  0.30935287978E+03  0.47000000000E+01 0. -1.
        -11    1    4    4    0    0  0.58270270722E+01  0.35107781337E+02  0.48745443295E+02  0.60354194526E+02  0.00000000000E+00 0.  1.
         12    1    4    4    0    0  0.33357580971E+02 -0.27179546333E+02  0.17968110159E+03  0.18476134394E+03  0.00000000000E+00 0. -1.
         -5    1    5    5    0  502  0.55887031519E+02  0.31681172119E+02  0.35111541133E+03  0.35697503979E+03  0.47000000000E+01 0.  1.
         11    1    6    6    0    0  0.27946927347E+02  0.13957083123E+02  0.61928710824E+02  0.69361344723E+02  0.00000000000E+00 0. -1.
        -12    1    6    6    0    0 -0.31998708442E+02 -0.40211506745E+02  0.58565262343E+02  0.77915162645E+02  0.00000000000E+00 0.  1.
</event>
<event>
12    1  0.8053217E-002  0.1815484E+03  0.7818608E-02  0.1166972E+00
         21   -1    0    0  501  502  0.00000000000E+00  0.00000000000E+00  0.28042550206E+03  0.28042550206E+03  0.00000000000E+00 0. -1.
         21   -1    0    0  502  503 -0.00000000000E+00 -0.00000000000E+00 -0.16837465403E+03  0.16837465403E+03  0.00000000000E+00 0. -1.
         -6    2    1    2    0  503 -0.33275943033E+02 -0.36068731875E+02 -0.69105982680E+02  0.19425618794E+03  0.17479012532E+03 0.  0.
        -24    2    3    3    0    0  0.49948316544E+02 -0.14433569727E+02 -0.32338733317E+02  0.10061710289E+03  0.79842629350E+02 0.  0.
          6    2    1    2  501    0  0.33275943033E+02  0.36068731875E+02  0.18115683071E+03  0.25454396815E+03  0.17194938967E+03 0.  0.
         24    2    5    5    0    0  0.25885102133E+02 -0.36318377357E+02  0.14645074038E+03  0.17379051115E+03  0.82257275432E+02 0.  0.
          5    1    5    5  501    0  0.73908409000E+01  0.72387109232E+02  0.34706090329E+02  0.80753457004E+02  0.47000000000E+01 0. -1.
        -13    1    6    6    0    0  0.19652343117E+02  0.47713667990E+01 -0.13398828572E+01  0.20267605118E+02  0.00000000000E+00 0.  1.
         14    1    6    6    0    0  0.62327590160E+01 -0.41089744156E+02  0.14779062324E+03  0.15352290603E+03  0.00000000000E+00 0. -1.
         -5    1    3    3    0  503 -0.83224259578E+02 -0.21635162148E+02 -0.36767249363E+02  0.93639085051E+02  0.47000000000E+01 0.  1.
         11    1    4    4    0    0  0.12833105798E+01 -0.24438607303E+02 -0.43302156955E+02  0.49739010946E+02  0.00000000000E+00 0. -1.
        -12    1    4    4    0    0  0.48665005964E+02  0.10005037576E+02  0.10963423638E+02  0.50878091948E+02  0.00000000000E+00 0.  1.
</event>
<event>
12    1  0.8053217E-002  0.1925925E+03  0.7818608E-02  0.1156341E+00
         21   -1    0    0  503  502  0.00000000000E+00  0.00000000000E+00  0.89148983155E+03  0.89148983155E+03  0.00000000000E+00 0.  1.
         21   -1    0    0  501  503 -0.00000000000E+00 -0.00000000000E+00 -0.43879642581E+02  0.43879642581E+02  0.00000000000E+00 0.  1.
          6    2    1    2  501    0  0.80788839763E+02 -0.28275738118E+02  0.53556802407E+03  0.56914405988E+03  0.17252680514E+03 0.  0.
         24    2    3    3    0    0  0.30369054321E+02 -0.73267027039E+02  0.23074224589E+03  0.25688260551E+03  0.80351429748E+02 0.  0.
         -6    2    1    2    0  502 -0.80788839763E+02  0.28275738118E+02  0.31204216490E+03  0.36622541426E+03  0.17153538228E+03 0.  0.
        -24    2    5    5    0    0 -0.85473149720E+02 -0.13949369619E+02  0.11455177514E+03  0.16416243761E+03  0.79542142908E+02 0.  0.
          5    1    3    3  501    0  0.50419785443E+02  0.44991288920E+02  0.30482577817E+03  0.31226145437E+03  0.47000000000E+01 0. -1.
        -11    1    4    4    0    0  0.51218960272E+02 -0.20488740262E+02  0.96807167734E+02  0.11142171285E+03  0.00000000000E+00 0.  1.
         12    1    4    4    0    0 -0.20849905951E+02 -0.52778286776E+02  0.13393507816E+03  0.14546089267E+03  0.00000000000E+00 0. -1.
         -5    1    5    5    0  502  0.46843099561E+01  0.42225107737E+02  0.19749038976E+03  0.20206297665E+03  0.47000000000E+01 0.  1.
         11    1    6    6    0    0 -0.95914795713E+01  0.22223499973E+02  0.28629758299E+01  0.24373696109E+02  0.00000000000E+00 0. -1.
        -12    1    6    6    0    0 -0.75881670148E+02 -0.36172869591E+02  0.11168879931E+03  0.13978874150E+03  0.00000000000E+00 0.  1.
</event>
<event>
12    1  0.8053217E-002  0.1738439E+03  0.7818608E-02  0.1179581E+00
         21   -1    0    0  503  502  0.00000000000E+00  0.00000000000E+00  0.55277605128E+03  0.55277605128E+03  0.00000000000E+00 0.  1.
         21   -1    0    0  501  503 -0.00000000000E+00 -0.00000000000E+00 -0.53200242166E+02  0.53200242166E+02  0.00000000000E+00 0.  1.
          6    2    1    2  501    0 -0.10356362800E+02  0.11839958060E+02  0.14326665180E+03  0.20951957552E+03  0.15207129956E+03 0.  0.
         24    2    3    3    0    0 -0.62107670419E+02  0.15014555165E+02  0.90526615525E+02  0.13541237389E+03  0.77837287287E+02 0.  0.
         -6    2    1    2    0  502  0.10356362800E+02 -0.11839958060E+02  0.35630915732E+03  0.39645671793E+03  0.17313080242E+03 0.  0.
        -24    2    5    5    0    0  0.24658966923E+02  0.57359355696E+02  0.23721572618E+03  0.25789826511E+03  0.79637014396E+02 0.  0.
          5    1    3    3  501    0  0.51751307619E+02 -0.31745971051E+01  0.52740036271E+02  0.74107201627E+02  0.47000000000E+01 0. -1.
        -11    1    4    4    0    0  0.13720030760E+02 -0.10626050782E+02  0.45462044839E+01  0.17939347103E+02  0.00000000000E+00 0.  1.
         12    1    4    4    0    0 -0.75827701179E+02  0.25640605947E+02  0.85980411041E+02  0.11747302679E+03  0.00000000000E+00 0. -1.
         -5    1    5    5    0  502 -0.14302604123E+02 -0.69199313756E+02  0.11909343114E+03  0.13855845282E+03  0.47000000000E+01 0.  1.
         13    1    6    6    0    0  0.35844052501E+01 -0.11870175638E+02  0.29993913798E+01  0.12757169723E+02  0.00000000000E+00 0. -1.
        -14    1    6    6    0    0  0.21074561673E+02  0.69229531334E+02  0.23421633480E+03  0.24514109538E+03  0.00000000000E+00 0.  1.
</event>
<event>
12    1  0.8053217E-002  0.1985722E+03  0.7818608E-02  0.1151019E+00
         21   -1    0    0  503  502  0.00000000000E+00  0.00000000000E+00  0.17923749702E+03  0.17923749702E+03  0.00000000000E+00 0. -1.
         21   -1    0    0  501  503 -0.00000000000E+00 -0.00000000000E+00 -0.22970753695E+03  0.22970753695E+03  0.00000000000E+00 0. -1.
          6    2    1    2  501    0 -0.50379343838E+02  0.85970647671E+02 -0.68045581814E+02  0.20959656027E+03  0.17138111426E+03 0.  0.
         24    2    3    3    0    0 -0.20282567733E+02 -0.21308443246E+02 -0.47907027429E+02  0.96272817596E+02  0.78153309741E+02 0.  0.
         -6    2    1    2    0  502  0.50379343838E+02 -0.85970647671E+02  0.17575541888E+02  0.19934847370E+03  0.17176112409E+03 0.  0.
        -24    2    5    5    0    0  0.46600476359E+02 -0.12672664992E+03  0.93183685847E+01  0.15732940102E+03  0.80215087328E+02 0.  0.
          5    1    3    3  501    0 -0.30096776106E+02  0.10727909092E+03 -0.20138554385E+02  0.11332374267E+03  0.47000000000E+01 0. -1.
        -13    1    4    4    0    0  0.30766993740E+01 -0.31134524077E+02 -0.60397742732E+02  0.68019938221E+02  0.00000000000E+00 0.  1.
         14    1    4    4    0    0 -0.23359267106E+02  0.98260808303E+01  0.12490715302E+02  0.28252879375E+02  0.00000000000E+00 0. -1.
         -5    1    5    5    0  502  0.37788674791E+01  0.40756002246E+02  0.82571733035E+01  0.42019072687E+02  0.47000000000E+01 0.  1.
         13    1    6    6    0    0  0.14041615432E+01 -0.51241949969E+02  0.39071402642E+02  0.64453732325E+02  0.00000000000E+00 0. -1.
        -14    1    6    6    0    0  0.45196314816E+02 -0.75484699948E+02 -0.29753034057E+02  0.92875668691E+02  0.00000000000E+00 0.  1.
</event>
<event>
12    1  0.8053217E-002  0.1754664E+03  0.7818608E-02  0.1173134E+00
         21   -1    0    0  501  502  0.00000000000E+00  0.00000000000E+00  0.19632096304E+04  0.19632096304E+04  0.00000000000E+00 0. -1.
         21   -1    0    0  502  503 -0.00000000000E+00 -0.00000000000E+00 -0.21432886619E+02  0.21432886619E+02  0.00000000000E+00 0. -1.
         -6    2    1    2    0  503  0.35322666615E+01  0.16026474540E+02  0.43652341965E+03  0.46919669567E+03  0.17124111228E+03 0.  0.
        -24    2    3    3    0    0  0.11748401579E+01 -0.56857736565E+02  0.27814689605E+03  0.29477514048E+03  0.79325312531E+02 0.  0.
          6    2    1    2  501    0 -0.35322666615E+01 -0.16026474540E+02  0.15052533242E+04  0.15154458214E+04  0.17469728912E+03 0.  0.
         24    2    5    5    0    0  0.60983273058E+02  0.72403550658E+01  0.69402266721E+03  0.70130770717E+03  0.79960335152E+02 0.  0.
          5    1    5    5  501    0 -0.64515539719E+02 -0.23266829606E+02  0.81123065695E+03  0.81413811420E+03  0.47000000000E+01 0. -1.
        -13    1    6    6    0    0  0.36371012947E+02 -0.35460565848E+02  0.39454268421E+03  0.39779923577E+03  0.00000000000E+00 0.  1.
         14    1    6    6    0    0  0.24612260111E+02  0.42700920913E+02  0.29947998300E+03  0.30350847140E+03  0.00000000000E+00 0. -1.
         -5    1    3    3    0  503  0.23574265036E+01  0.72884211105E+02  0.15837652360E+03  0.17442155519E+03  0.47000000000E+01 0.  1.
         13    1    4    4    0    0 -0.20756713260E+02 -0.63304702504E+02  0.14361403029E+03  0.15831397981E+03  0.00000000000E+00 0. -1.
        -14    1    4    4    0    0  0.21931553418E+02  0.64469659397E+01  0.13453286576E+03  0.13646116068E+03  0.00000000000E+00 0.  1.
</event>
<event>
12    1  0.8053217E-002  0.2981946E+03  0.7818608E-02  0.1086225E+00
         21   -1    0    0  503  502  0.00000000000E+00  0.00000000000E+00  0.98099716294E+03  0.98099716294E+03  0.00000000000E+00 0.  1.
         21   -1    0    0  501  503 -0.00000000000E+00 -0.00000000000E+00 -0.95236514428E+02  0.95236514428E+02  0.00000000000E+00 0. -1.
          6    2    1    2  501    0  0.10203230300E+03  0.22059033380E+03  0.32272717493E+03  0.43940052608E+03  0.17276951891E+03 0.  0.
         24    2    3    3    0    0  0.10235938494E+03  0.23959140244E+03  0.28144700638E+03  0.39371365809E+03  0.88974959128E+02 0.  0.
         -6    2    1    2    0  502 -0.10203230300E+03 -0.22059033380E+03  0.56303347358E+03  0.63683315128E+03  0.17169474069E+03 0.  0.
        -24    2    5    5    0    0 -0.16607383495E+02 -0.18044253967E+03  0.42887769951E+03  0.47273219467E+03  0.81879981873E+02 0.  0.
          5    1    3    3  501    0 -0.32708194784E+00 -0.19001068642E+02  0.41280168549E+02  0.45686867999E+02  0.47000000000E+01 0. -1.
        -11    1    4    4    0    0  0.62534635611E+02  0.46517862232E+02  0.72482079740E+02  0.10643375424E+03  0.00000000000E+00 0.  1.
         12    1    4    4    0    0  0.39824749333E+02  0.19307354021E+03  0.20896492664E+03  0.28727990385E+03  0.00000000000E+00 0. -1.
         -5    1    5    5    0  502 -0.85424919501E+02 -0.40147794128E+02  0.13415577407E+03  0.16410095661E+03  0.47000000000E+01 0.  1.
         13    1    6    6    0    0  0.11674556005E+02 -0.28056269073E+02  0.22527641229E+02  0.37827821925E+02  0.00000000000E+00 0. -1.
        -14    1    6    6    0    0 -0.28281939500E+02 -0.15238627060E+03  0.40635005828E+03  0.43490437274E+03  0.00000000000E+00 0.  1.
</event>
<event>
12    1  0.8053217E-002  0.2255779E+03  0.7818608E-02  0.1130091E+00
         21   -1    0    0  503  502  0.00000000000E+00  0.00000000000E+00  0.21563628820E+02  0.21563628820E+02  0.00000000000E+00 0.  1.
         21   -1    0    0  501  503 -0.00000000000E+00 -0.00000000000E+00 -0.29360816181E+04  0.29360816181E+04  0.00000000000E+00 0. -1.
          6    2    1    2  501    0 -0.80317686235E+02  0.12092237562E+03 -0.78807106831E+03  0.81926691286E+03  0.17049666903E+03 0.  0.
         24    2    3    3    0    0 -0.18806847881E+01  0.10184274766E+03 -0.61301099541E+03  0.62643404605E+03  0.79130596654E+02 0.  0.
         -6    2    1    2    0  502  0.80317686235E+02 -0.12092237562E+03 -0.21264469210E+04  0.21383783341E+04  0.17266221427E+03 0.  0.
        -24    2    5    5    0    0 -0.95779194722E+01 -0.58552503007E+02 -0.63225963389E+03  0.64018309986E+03  0.81006324079E+02 0.  0.
          5    1    3    3  501    0 -0.78437001446E+02  0.19079627958E+02 -0.17506007291E+03  0.19283286682E+03  0.47000000000E+01 0. -1.
        -11    1    4    4    0    0  0.30797133883E+01  0.55523969470E+02 -0.13285701960E+03  0.14402563479E+03  0.00000000000E+00 0.  1.
         12    1    4    4    0    0 -0.49603981765E+01  0.46318778189E+02 -0.48015397581E+03  0.48240841126E+03  0.00000000000E+00 0. -1.
         -5    1    5    5    0  502  0.89895605707E+02 -0.62369872610E+02 -0.14941872871E+04  0.14981952342E+04  0.47000000000E+01 0.  1.
         11    1    6    6    0    0  0.45046558503E+01 -0.27572721681E+02 -0.55568958411E+03  0.55639146362E+03  0.00000000000E+00 0. -1.
        -12    1    6    6    0    0 -0.14082575323E+02 -0.30979781326E+02 -0.76570049787E+02  0.83791636236E+02  0.00000000000E+00 0.  1.
</event>
<event>
12    1  0.8053217E-002  0.1895896E+03  0.7818608E-02  0.1159149E+00
         21   -1    0    0  503  502  0.00000000000E+00  0.00000000000E+00  0.13535419859E+03  0.13535419859E+03  0.00000000000E+00 0.  1.
         21   -1    0    0  501  503 -0.00000000000E+00 -0.00000000000E+00 -0.38207692564E+03  0.38207692564E+03  0.00000000000E+00 0.  1.
          6    2    1    2  501    0 -0.59547766506E+02 -0.50770677407E+02  0.21017303007E+02  0.18936263224E+03  0.17115163243E+03 0.  0.
         24    2    3    3    0    0  0.31133130120E+02 -0.34502085107E+02 -0.84286492430E+01  0.92528515257E+02  0.79566439783E+02 0.  0.
         -6    2    1    2    0  502  0.59547766506E+02  0.50770677407E+02 -0.26774003006E+03  0.32806849199E+03  0.17268646026E+03 0.  0.
        -24    2    5    5    0    0  0.60869345082E+02  0.88766958454E+02 -0.14886708318E+03  0.20317521177E+03  0.86799240429E+02 0.  0.
          5    1    3    3  501    0 -0.90680896626E+02 -0.16268592300E+02  0.29445952250E+02  0.96834116985E+02  0.47000000000E+01 0. -1.
        -13    1    4    4    0    0 -0.14894922107E+02 -0.13448163564E+02 -0.31144664128E+02  0.37049992057E+02  0.00000000000E+00 0.  1.
         14    1    4    4    0    0  0.46028052227E+02 -0.21053921543E+02  0.22716014885E+02  0.55478523200E+02  0.00000000000E+00 0. -1.
         -5    1    5    5    0  502 -0.13215785758E+01 -0.37996281047E+02 -0.11887294689E+03  0.12489328022E+03  0.47000000000E+01 0.  1.
         13    1    6    6    0    0 -0.19688798536E+02  0.75902541924E+01 -0.10217112607E+02  0.23444618498E+02  0.00000000000E+00 0. -1.
        -14    1    6    6    0    0  0.80558143617E+02  0.81176704262E+02 -0.13864997057E+03  0.17973059327E+03  0.00000000000E+00 0.  1.
</event>
<event>
12    1  0.8053217E-002  0.2363805E+03  0.7818608E-02  0.1122289E+00
         21   -1    0    0  503  502  0.00000000000E+00  0.00000000000E+00  0.14110990121E+04  0.14110990121E+04  0.00000000000E+00 0. -1.
         21   -1    0    0  501  503 -0.00000000000E+00 -0.00000000000E+00 -0.47945032569E+02  0.47945032569E+02  0.00000000000E+00 0. -1.
          6    2    1    2  501    0  0.11591723416E+03 -0.11304642535E+03  0.98751072664E+03  0.10154078936E+04  0.17221920840E+03 0.  0.
         24    2    3    3    0    0 -0.37681191469E+01 -0.88201420224E+02  0.43519991404E+03  0.44971258536E+03  0.71054591679E+02 0.  0.
         -6    2    1    2    0  502 -0.11591723416E+03  0.11304642535E+03  0.37564325294E+03  0.44363615110E+03  0.17172327047E+03 0.  0.
        -24    2    5    5    0    0 -0.83940396301E+02  0.41924489844E+02  0.33249824202E+03  0.35439249678E+03  0.78963965485E+02 0.  0.
          5    1    3    3  501    0  0.11968535331E+03 -0.24845005121E+02  0.55231081260E+03  0.56569530826E+03  0.47000000000E+01 0. -1.
        -13    1    4    4    0    0 -0.24397838723E+02 -0.18243416769E+01  0.99726168393E+02  0.10268345251E+03  0.00000000000E+00 0.  1.
         14    1    4    4    0    0  0.20629719576E+02 -0.86377078547E+02  0.33547374565E+03  0.34702913285E+03  0.00000000000E+00 0. -1.
         -5    1    5    5    0  502 -0.31976837863E+02  0.71121935501E+02  0.43145010923E+02  0.89243654321E+02  0.47000000000E+01 0.  1.
         13    1    6    6    0    0 -0.61156371218E+02 -0.41653101278E+01  0.10897046586E+03  0.12502805276E+03  0.00000000000E+00 0. -1.
        -14    1    6    6    0    0 -0.22784025083E+02  0.46089799972E+02  0.22352777616E+03  0.22936444401E+03  0.00000000000E+00 0.  1.
</event>
<event>
12    1  0.8053217E-002  0.2002112E+03  0.7818608E-02  0.1150291E+00
         21   -1    0    0  501  502  0.00000000000E+00  0.00000000000E+00  0.25472296420E+03  0.25472296420E+03  0.00000000000E+00 0.  1.
         21   -1    0    0  502  503 -0.00000000000E+00 -0.00000000000E+00 -0.23523053961E+03  0.23523053961E+03  0.00000000000E+00 0.  1.
         -6    2    1    2    0  503  0.67515271713E+02  0.68848849230E+02 -0.13366389278E+03  0.23787936242E+03  0.17152865322E+03 0.  0.
        -24    2    3    3    0    0 -0.70893857533E+01 -0.10022438457E+02 -0.27579682617E+02  0.86015987690E+02  0.80544413724E+02 0.  0.
          6    2    1    2  501    0 -0.67515271713E+02 -0.68848849230E+02  0.15315631737E+03  0.25207414139E+03  0.17545950886E+03 0.  0.
         24    2    5    5    0    0 -0.19466160687E+02 -0.10833308170E+03  0.11291247214E+03  0.17784895184E+03  0.82255913483E+02 0.  0.
          5    1    5    5  501    0 -0.48049111026E+02  0.39484232473E+02  0.40243845233E+02  0.74225189548E+02  0.47000000000E+01 0. -1.
        -11    1    6    6    0    0 -0.26058186420E+02 -0.42440318091E+02  0.98060629629E+02  0.10998225658E+03  0.00000000000E+00 0.  1.
         12    1    6    6    0    0  0.65920257335E+01 -0.65892763612E+02  0.14851842511E+02  0.67866695261E+02  0.00000000000E+00 0. -1.
         -5    1    3    3    0  503  0.74604657467E+02  0.78871287686E+02 -0.10608421017E+03  0.15186337473E+03  0.47000000000E+01 0.  1.
         13    1    4    4    0    0  0.68013734627E+00 -0.44988650719E+02 -0.98943008328E+01  0.46068844888E+02  0.00000000000E+00 0. -1.
        -14    1    4    4    0    0 -0.77695230996E+01  0.34966212263E+02 -0.17685381784E+02  0.39947142802E+02  0.00000000000E+00 0.  1.
</event>
<event>
12    1  0.8053217E-002  0.1847566E+03  0.7818608E-02  0.1163827E+00
         21   -1    0    0  501  502  0.00000000000E+00  0.00000000000E+00  0.11202611917E+03  0.11202611917E+03  0.00000000000E+00 0.  1.
         21   -1    0    0  502  503 -0.00000000000E+00 -0.00000000000E+00 -0.87683667892E+03  0.87683667892E+03  0.00000000000E+00 0.  1.
         -6    2    1    2    0  503 -0.60009022045E+02  0.98877089913E+01 -0.78395960158E+03  0.80543631401E+03  0.17445959273E+03 0.  0.
        -24    2    3    3    0    0 -0.13232783863E+02  0.48670054866E+02 -0.24079918718E+03  0.25886755110E+03  0.80525025044E+02 0.  0.
          6    2    1    2  501    0  0.60009022045E+02 -0.98877089913E+01  0.19149041838E+02  0.18342648407E+03  0.17198761508E+03 0.  0.
         24    2    5    5    0    0  0.17997825096E+01 -0.39286451346E+02  0.59619223002E+02  0.10653352482E+03  0.79046035212E+02 0.  0.
          5    1    5    5  501    0  0.58209239536E+02  0.29398742354E+02 -0.40470181165E+02  0.76892959254E+02  0.47000000000E+01 0. -1.
        -13    1    6    6    0    0  0.40320620310E+02 -0.22864739602E+02  0.29336998936E+02  0.54856250745E+02  0.00000000000E+00 0.  1.
         14    1    6    6    0    0 -0.38520837800E+02 -0.16421711743E+02  0.30282224066E+02  0.51677274075E+02  0.00000000000E+00 0. -1.
         -5    1    3    3    0  503 -0.46776238182E+02 -0.38782345875E+02 -0.54316041441E+03  0.54656876291E+03  0.47000000000E+01 0.  1.
         11    1    4    4    0    0 -0.24495246476E+02  0.10103017012E+01 -0.17149568339E+02  0.29918982330E+02  0.00000000000E+00 0. -1.
        -12    1    4    4    0    0  0.11262462613E+02  0.47659753165E+02 -0.22364961884E+03  0.22894856877E+03  0.00000000000E+00 0.  1.
</event>
<event>
12    1  0.8053217E-002  0.2824484E+03  0.7818608E-02  0.1095546E+00
         21   -1    0    0  503  502  0.00000000000E+00  0.00000000000E+00  0.16518390205E+04  0.16518390205E+04  0.00000000000E+00 0.  1.
         21   -1    0    0  501  503 -0.00000000000E+00 -0.00000000000E+00 -0.47548247171E+02  0.47548247171E+02  0.00000000000E+00 0. -1.
          6    2    1    2  501    0  0.97982764444E+02  0.18365275416E+03  0.68536844648E+03  0.73803646449E+03  0.17787343605E+03 0.  0.
         24    2    3    3    0    0  0.35657880684E+02  0.19157551585E+03  0.55497103066E+03  0.59321679269E+03  0.77075648103E+02 0.  0.
         -6    2    1    2    0  502 -0.97982764444E+02 -0.18365275416E+03  0.91892232688E+03  0.96135080321E+03  0.19091403236E+03 0.  0.
        -24    2    5    5    0    0  0.64148105869E+01 -0.10014076030E+02  0.22266447372E+03  0.23619817630E+03  0.77901727325E+02 0.  0.
          5    1    3    3  501    0  0.62324883759E+02 -0.79227616889E+01  0.13039741582E+03  0.14481967180E+03  0.47000000000E+01 0. -1.
        -13    1    4    4    0    0  0.15313103441E+02  0.83210599506E+02  0.35417409608E+03  0.36413978819E+03  0.00000000000E+00 0.  1.
         14    1    4    4    0    0  0.20344777243E+02  0.10836491635E+03  0.20079693458E+03  0.22907700450E+03  0.00000000000E+00 0. -1.
         -5    1    5    5    0  502 -0.10439757503E+03 -0.17363867813E+03  0.69625785316E+03  0.72515262691E+03  0.47000000000E+01 0.  1.
         11    1    6    6    0    0  0.34052445174E+02 -0.64145272663E+01  0.19055426102E+03  0.19367922340E+03  0.00000000000E+00 0. -1.
        -12    1    6    6    0    0 -0.27637634587E+02 -0.35995487638E+01  0.32110212692E+02  0.42518952903E+02  0.00000000000E+00 0.  1.
</event>
<event>
12    1  0.8053217E-002  0.2117256E+03  0.7818608E-02  0.1140675E+00
         21   -1    0    0  503  502  0.00000000000E+00  0.00000000000E+00  0.61370033731E+03  0.61370033731E+03  0.00000000000E+00 0. -1.
         21   -1    0    0  501  503 -0.00000000000E+00 -0.00000000000E+00 -0.83730283166E+02  0.83730283166E+02  0.00000000000E+00 0. -1.
          6    2    1    2  501    0 -0.92909627913E+02 -0.68068690156E+02  0.13444133286E+03  0.24879858229E+03  0.17481623790E+03 0.  0.
         24    2    3    3    0    0 -0.13411035786E+03 -0.58857725620E+02  0.12251162763E+03  0.20467659364E+03  0.73712883070E+02 0.  0.
         -6    2    1    2    0  502  0.92909627913E+02  0.68068690156E+02  0.39552872128E+03  0.44863203818E+03  0.17765750979E+03 0.  0.
        -24    2    5    5    0    0  0.11321969473E+03  0.54792134364E+02  0.39673912465E+03  0.42388692100E+03  0.80357398545E+02 0.  0.
          5    1    3    3  501    0  0.41200729946E+02 -0.92109645357E+01  0.11929705233E+02  0.44121988653E+02  0.47000000000E+01 0. -1.
        -11    1    4    4    0    0 -0.19082889885E+02 -0.25497049716E+01  0.58328531443E+02  0.61423735332E+02  0.00000000000E+00 0.  1.
         12    1    4    4    0    0 -0.11502746797E+03 -0.56308020649E+02  0.64183096183E+02  0.14325285831E+03  0.00000000000E+00 0. -1.
         -5    1    5    5    0  502 -0.20310066818E+02  0.13276555792E+02 -0.12104033726E+01  0.24745117178E+02  0.47000000000E+01 0.  1.
         11    1    6    6    0    0  0.10085371152E+03  0.24730444805E+02  0.20923275357E+03  0.23358384190E+03  0.00000000000E+00 0. -1.
        -12    1    6    6    0    0  0.12365983208E+02  0.30061689559E+02  0.18750637108E+03  0.19030307910E+03  0.00000000000E+00 0.  1.
</event>
<event>
12    1  0.8053217E-002  0.2645717E+03  0.7818608E-02  0.1104531E+00
         21   -1    0    0  503  502  0.00000000000E+00  0.00000000000E+00  0.29455051297E+03  0.29455051297E+03  0.00000000000E+00 0. -1.
         21   -1    0    0  501  503 -0.00000000000E+00 -0.00000000000E+00 -0.34536111630E+03  0.34536111630E+03  0.00000000000E+00 0.  1.
          6    2    1    2  501    0  0.25589237352E+02 -0.19937283869E+03 -0.20459364860E+03  0.33389302339E+03  0.17094341797E+03 0.  0.
         24    2    3    3    0    0 -0.29691659960E+02 -0.18395679131E+03 -0.13634360595E+03  0.24459694035E+03  0.80724151316E+02 0.  0.
         -6    2    1    2    0  502 -0.25589237352E+02  0.19937283869E+03  0.15378304526E+03  0.30601860588E+03  0.17202855652E+03 0.  0.
        -24    2    5    5    0    0  0.18107492811E+02  0.82229303283E+02  0.13692244035E+03  0.17977130051E+03  0.80501094418E+02 0.  0.
          5    1    3    3  501    0  0.55280897313E+02 -0.15416047375E+02 -0.68250042647E+02  0.89296083036E+02  0.47000000000E+01 0. -1.
        -11    1    4    4    0    0 -0.29293196726E+02 -0.13304603639E+02 -0.26141167378E+02  0.41454366288E+02  0.00000000000E+00 0.  1.
         12    1    4    4    0    0 -0.39846323378E+00 -0.17065218768E+03 -0.11020243857E+03  0.20314257407E+03  0.00000000000E+00 0. -1.
         -5    1    5    5    0  502 -0.43696730164E+02  0.11714353540E+03  0.16860604914E+02  0.12624730537E+03  0.47000000000E+01 0.  1.
         11    1    6    6    0    0  0.88597491832E+01  0.20896385164E+02  0.10971876228E+03  0.11204178178E+03  0.00000000000E+00 0. -1.
        -12    1    6    6    0    0  0.92477436280E+01  0.61332918119E+02  0.27203678071E+02  0.67729518733E+02  0.00000000000E+00 0.  1.
</event>
<event>
12    1  0.8053217E-002  0.2016443E+03  0.7818608E-02  0.1148360E+00
         21   -1    0    0  501  502  0.00000000000E+00  0.00000000000E+00  0.11271209436E+03  0.11271209436E+03  0.00000000000E+00 0. -1.
         21   -1    0    0  502  503 -0.00000000000E+00 -0.00000000000E+00 -0.39278388769E+03  0.39278388769E+03  0.00000000000E+00 0. -1.
         -6    2    1    2    0  503 -0.88712544246E+02 -0.61138753272E+02 -0.21222428801E+03  0.29274331084E+03  0.17044540171E+03 0.  0.
        -24    2    3    3    0    0 -0.64370070130E+02 -0.20200381708E+02 -0.38985876971E+02  0.11301534036E+03  0.81859679968E+02 0.  0.
          6    2    1    2  501    0  0.88712544246E+02  0.61138753272E+02 -0.67847505325E+02  0.21275267121E+03  0.17044809318E+03 0.  0.
         24    2    5    5    0    0 -0.45320803251E+00 -0.56727309206E+01 -0.60865115300E+02  0.10101570521E+03  0.80419059711E+02 0.  0.
          5    1    5    5  501    0  0.89165752279E+02  0.66811484193E+02 -0.69823900253E+01  0.11173696600E+03  0.47000000000E+01 0. -1.
        -11    1    6    6    0    0 -0.18468159185E+02  0.13800479425E+02 -0.69415230561E+02  0.73143696721E+02  0.00000000000E+00 0.  1.
         12    1    6    6    0    0  0.18014951153E+02 -0.19473210346E+02  0.85501152614E+01  0.27872008489E+02  0.00000000000E+00 0. -1.
         -5    1    3    3    0  503 -0.24342474116E+02 -0.40938371565E+02 -0.17323841104E+03  0.17972797048E+03  0.47000000000E+01 0.  1.
         11    1    4    4    0    0 -0.73787838933E+02 -0.39700027327E+02 -0.35840467573E+02  0.91133289527E+02  0.00000000000E+00 0. -1.
        -12    1    4    4    0    0  0.94177688031E+01  0.19499645619E+02 -0.31454093971E+01  0.21882050836E+02  0.00000000000E+00 0.  1.
</event>
<event>
12    1  0.8053217E-002  0.2043763E+03  0.7818608E-02  0.1147740E+00
         21   -1    0    0  501  502  0.00000000000E+00  0.00000000000E+00  0.15289207064E+03  0.15289207064E+03  0.00000000000E+00 0. -1.
         21   -1    0    0  502  503 -0.00000000000E+00 -0.00000000000E+00 -0.51394963284E+03  0.51394963284E+03  0.00000000000E+00 0.  1.
         -6    2    1    2    0  503  0.56592103654E+02 -0.80320536257E+02 -0.41176797080E+03  0.45626820366E+03  0.17021679455E+03 0.  0.
        -24    2    3    3    0    0 -0.17799804368E+02 -0.77031700914E+02 -0.16915969324E+03  0.20244574846E+03  0.78221245663E+02 0.  0.
          6    2    1    2  501    0 -0.56592103654E+02  0.80320536257E+02  0.50710408612E+02  0.21057349982E+03  0.17920825468E+03 0.  0.
         24    2    5    5    0    0 -0.39986044141E+02  0.31983076477E+02 -0.42091946773E+02  0.10452333059E+03  0.80818276070E+02 0.  0.
          5    1    5    5  501    0 -0.16606059513E+02  0.48337459780E+02  0.92802355384E+02  0.10605016924E+03  0.47000000000E+01 0. -1.
        -11    1    6    6    0    0 -0.61794078843E+02  0.37843182820E+02 -0.26834092055E+02  0.77270195822E+02  0.00000000000E+00 0.  1.
         12    1    6    6    0    0  0.21808034702E+02 -0.58601063428E+01 -0.15257854718E+02  0.27253134765E+02  0.00000000000E+00 0. -1.
         -5    1    3    3    0  503  0.74391908022E+02 -0.32888353430E+01 -0.24260827756E+03  0.25382245519E+03  0.47000000000E+01 0.  1.
         11    1    4    4    0    0 -0.19522288266E+02 -0.10673266778E+02 -0.17059264945E+01  0.22314760767E+02  0.00000000000E+00 0. -1.
        -12    1    4    4    0    0  0.17224838981E+01 -0.66358434135E+02 -0.16745376675E+03  0.18013098770E+03  0.00000000000E+00 0.  1.
</event>
<event>
12    1  0.8053217E-002  0.1903824E+03  0.7818608E-02  0.1158486E+00
         21   -1    0    0  503  502  0.00000000000E+00  0.00000000000E+00  0.54462224580E+03  0.54462224580E+03  0.00000000000E+00 0.  1.
         21   -1    0    0  501  503 -0.00000000000E+00 -0.00000000000E+00 -0.67604451938E+02  0.67604451938E+02  0.00000000000E+00 0.  1.
          6    2    1    2  501    0  0.15922832306E+02  0.78273887849E+02  0.19007335288E+03  0.26786847407E+03  0.17101257795E+03 0.  0.
         24    2    3    3    0    0  0.10730522881E+02  0.12071145567E+03  0.15617124175E+03  0.21310214884E+03  0.79603199924E+02 0.  0.
         -6    2    1    2    0  502 -0.15922832306E+02 -0.78273887849E+02  0.28694444098E+03  0.34435822367E+03  0.17281532308E+03 0.  0.
        -24    2    5    5    0    0 -0.15343052485E+02 -0.10585628851E+03  0.28684786511E+03  0.31637207893E+03  0.79803706245E+02 0.  0.
          5    1    3    3  501    0  0.51923094251E+01 -0.42437567824E+02  0.33902111129E+02  0.54766325229E+02  0.47000000000E+01 0. -1.
        -13    1    4    4    0    0  0.36620329042E+02  0.37193333556E+02  0.31967874627E+02  0.61207332635E+02  0.00000000000E+00 0.  1.
         14    1    4    4    0    0 -0.25889806161E+02  0.83518122118E+02  0.12420336712E+03  0.15189481620E+03  0.00000000000E+00 0. -1.
         -5    1    5    5    0  502 -0.57977982121E+00  0.27582400658E+02  0.96575873175E-01  0.27986144743E+02  0.47000000000E+01 0.  1.
         11    1    6    6    0    0  0.72461868188E+00  0.11644397958E+02  0.51831226991E+02  0.53128082663E+02  0.00000000000E+00 0. -1.
        -12    1    6    6    0    0 -0.16067671167E+02 -0.11750068646E+03  0.23501663812E+03  0.26324399626E+03  0.00000000000E+00 0.  1.
</event>
<event>
12    1  0.8053217E-002  0.2438928E+03  0.7818608E-02  0.1117365E+00
         21   -1    0    0  503  502  0.00000000000E+00  0.00000000000E+00  0.10752981628E+03  0.10752981628E+03  0.00000000000E+00 0.  1.
         21   -1    0    0  501  503 -0.00000000000E+00 -0.00000000000E+00 -0.62228358328E+03  0.62228358328E+03  0.00000000000E+00 0. -1.
          6    2    1    2  501    0  0.48557567853E+02 -0.16592481746E+03 -0.38025659914E+03  0.45129379540E+03  0.17082776745E+03 0.  0.
         24    2    3    3    0    0  0.48918821477E+02 -0.10308006545E+03 -0.11807863054E+03  0.18164778564E+03  0.77684001246E+02 0.  0.
         -6    2    1    2    0  502 -0.48557567853E+02  0.16592481746E+03 -0.13449716786E+03  0.27851960416E+03  0.17203139044E+03 0.  0.
        -24    2    5    5    0    0 -0.60248036527E+02  0.70758160882E+02 -0.13588110512E+03  0.18251249576E+03  0.78807316551E+02 0.  0.
          5    1    3    3  501    0 -0.36125362410E+00 -0.62844752003E+02 -0.26217796860E+03  0.26964600976E+03  0.47000000000E+01 0. -1.
        -11    1    4    4    0    0 -0.18021134315E+01  0.11777887079E+02 -0.59890972471E+01  0.13335498592E+02  0.00000000000E+00 0.  1.
         12    1    4    4    0    0  0.50720934909E+02 -0.11485795253E+03 -0.11208953329E+03  0.16831228705E+03  0.00000000000E+00 0. -1.
         -5    1    5    5    0  502  0.11690468673E+02  0.95166656576E+02  0.13839372602E+01  0.96007108403E+02  0.47000000000E+01 0.  1.
         11    1    6    6    0    0 -0.26077412247E+02 -0.94052925712E+01 -0.63294081335E+02  0.69098709755E+02  0.00000000000E+00 0. -1.
        -12    1    6    6    0    0 -0.34170624279E+02  0.80163453453E+02 -0.72587023787E+02  0.11341378600E+03  0.00000000000E+00 0.  1.
</event>
<event>
12    1  0.8053217E-002  0.1868701E+03  0.7818608E-02  0.1161322E+00
         21   -1    0    0  501  502  0.00000000000E+00  0.00000000000E+00  0.67238034977E+02  0.67238034977E+02  0.00000000000E+00 0. -1.
         21   -1    0    0  502  503 -0.00000000000E+00 -0.00000000000E+00 -0.63374267708E+03  0.63374267708E+03  0.00000000000E+00 0. -1.
         -6    2    1    2    0  503 -0.62225889312E+02  0.37650691745E+02 -0.13431128425E+03  0.23013029082E+03  0.17213597470E+03 0.  0.
        -24    2    3    3    0    0  0.20052719358E+02 -0.85574804919E+01 -0.29900146894E+02  0.89315731099E+02  0.81289230599E+02 0.  0.
          6    2    1    2  501    0  0.62225889312E+02 -0.37650691745E+02 -0.43219335785E+03  0.47085042124E+03  0.17210283181E+03 0.  0.
         24    2    5    5    0    0  0.49535650541E+02  0.30814164905E+02 -0.34816777289E+03  0.36162190992E+03  0.78398432511E+02 0.  0.
          5    1    5    5  501    0  0.12690238771E+02 -0.68464856649E+02 -0.84025584959E+02  0.10922851131E+03  0.47000000000E+01 0. -1.
        -13    1    6    6    0    0  0.30852588009E+02  0.57348763552E+02 -0.24159302749E+03  0.25021581445E+03  0.00000000000E+00 0.  1.
         14    1    6    6    0    0  0.18683062532E+02 -0.26534598647E+02 -0.10657474541E+03  0.11140609548E+03  0.00000000000E+00 0. -1.
         -5    1    3    3    0  503 -0.82278608670E+02  0.46208172237E+02 -0.10441113736E+03  0.14081455972E+03  0.47000000000E+01 0.  1.
         13    1    4    4    0    0  0.41496195195E+02 -0.66770491239E+00  0.10582983036E+02  0.42829657662E+02  0.00000000000E+00 0. -1.
        -14    1    4    4    0    0 -0.21443475837E+02 -0.78897755796E+01 -0.40483129930E+02  0.46486073437E+02  0.00000000000E+00 0.  1.
</event>
<event>
12    1  0.8053217E-002  0.1867605E+03  0.7818608E-02  0.1161682E+00
         21   -1    0    0  501  502  0.00000000000E+00  0.00000000000E+00  0.50724125097E+02  0.50724125097E+02  0.00000000000E+00 0.  1.
         21   -1    0    0  502  503 -0.00000000000E+00 -0.00000000000E+00 -0.83587052898E+03  0.83587052898E+03  0.00000000000E+00 0. -1.
         -6    2    1    2    0  503  0.71278653053E+02 -0.15865615516E+02 -0.58091096248E+03  0.60984275112E+03  0.17064076482E+03 0.  0.
        -24    2    3    3    0    0  0.76161584047E+02  0.88859445142E+00 -0.58145047719E+03  0.59176161059E+03  0.79345887459E+02 0.  0.
          6    2    1    2  501    0 -0.71278653053E+02  0.15865615516E+02 -0.20423544140E+03  0.27675190296E+03  0.17189280419E+03 0.  0.
         24    2    5    5    0    0 -0.59504082539E+02  0.61092293347E+01 -0.22760035775E+03  0.24843517825E+03  0.79624471256E+02 0.  0.
          5    1    5    5  501    0 -0.11774570514E+02  0.97563861810E+01  0.23364916352E+02  0.28316724709E+02  0.47000000000E+01 0. -1.
        -11    1    6    6    0    0 -0.42254447960E+02 -0.35050470660E+02 -0.12988645403E+03  0.14101228601E+03  0.00000000000E+00 0.  1.
         12    1    6    6    0    0 -0.17249634579E+02  0.41159699995E+02 -0.97713903728E+02  0.10742289225E+03  0.00000000000E+00 0. -1.
         -5    1    3    3    0  503 -0.48829309939E+01 -0.16754209967E+02  0.53951470554E+00  0.18081140529E+02  0.47000000000E+01 0.  1.
         11    1    4    4    0    0 -0.74414615750E+01 -0.94924148873E+01 -0.23148476324E+03  0.23179878538E+03  0.00000000000E+00 0. -1.
        -12    1    4    4    0    0  0.83603045622E+02  0.10381009339E+02 -0.34996571395E+03  0.35996282521E+03  0.00000000000E+00 0.  1.
</event>
<event>
12    1  0.8053217E-002  0.1902697E+03  0.7818608E-02  0.1159531E+00
         21   -1    0    0  503  502  0.00000000000E+00  0.00000000000E+00  0.48767346533E+02  0.48767346533E+02  0.00000000000E+00 0.  1.
         21   -1    0    0  501  503 -0.00000000000E+00 -0.00000000000E+00 -0.75200113564E+03  0.75200113564E+03  0.00000000000E+00 0.  1.
          6    2    1    2  501    0 -0.64544306628E+02 -0.32918447524E+01 -0.27435525662E+03  0.33387626074E+03  0.17895738849E+03 0.  0.
         24    2    3    3    0    0 -0.59614468661E+02 -0.56983246340E+02 -0.24901518082E+03  0.27411607878E+03  0.79561857248E+02 0.  0.
         -6    2    1    2    0  502  0.64544306628E+02  0.32918447524E+01 -0.42887853250E+03  0.46689222143E+03  0.17284312842E+03 0.  0.
        -24    2    5    5    0    0  0.11933095705E+02 -0.14200577291E+02 -0.81492869111E+02  0.11507861529E+03  0.79107172953E+02 0.  0.
          5    1    3    3  501    0 -0.49298379675E+01  0.53691401588E+02 -0.25340075792E+02  0.59760181961E+02  0.47000000000E+01 0. -1.
        -13    1    4    4    0    0 -0.51439591280E+01  0.19716006002E+02 -0.39318523644E+02  0.44284619336E+02  0.00000000000E+00 0.  1.
         14    1    4    4    0    0 -0.54470509533E+02 -0.76699252342E+02 -0.20969665718E+03  0.22983145945E+03  0.00000000000E+00 0. -1.
         -5    1    5    5    0  502  0.52611210923E+02  0.17492422043E+02 -0.34738566338E+03  0.35181360614E+03  0.47000000000E+01 0.  1.
         11    1    6    6    0    0 -0.95068198446E+01  0.86358615566E+00 -0.87644776260E+02  0.88163100049E+02  0.00000000000E+00 0. -1.
        -12    1    6    6    0    0  0.21439915550E+02 -0.15064163446E+02  0.61519071485E+01  0.26915515241E+02  0.00000000000E+00 0.  1.
</event>
<event>
12    1  0.8053217E-002  0.2379749E+03  0.7818608E-02  0.1121157E+00
         21   -1    0    0  503  502  0.00000000000E+00  0.00000000000E+00  0.36617424981E+03  0.36617424981E+03  0.00000000000E+00 0. -1.
         21   -1    0    0  501  503 -0.00000000000E+00 -0.00000000000E+00 -0.17043006482E+03  0.17043006482E+03  0.00000000000E+00 0. -1.
          6    2    1    2  501    0  0.13150887452E+03  0.98602434915E+02  0.16171739955E+02  0.23847968718E+03  0.17202910154E+03 0.  0.
         24    2    3    3    0    0  0.11039534292E+03  0.15523540032E+00  0.13241813912E+02  0.13764166471E+03  0.81134002691E+02 0.  0.
         -6    2    1    2    0  502 -0.13150887452E+03 -0.98602434915E+02  0.17957244503E+03  0.29812462745E+03  0.17209011079E+03 0.  0.
        -24    2    5    5    0    0 -0.13944161044E+02 -0.88595127985E+02  0.87051334421E+02  0.14811178149E+03  0.79470929659E+02 0.  0.
          5    1    3    3  501    0  0.21113531600E+02  0.98447199514E+02  0.29299260427E+01  0.10083802247E+03  0.47000000000E+01 0. -1.
        -13    1    4    4    0    0  0.65329072232E+02  0.25290292296E+02 -0.23949273957E+02  0.74034142706E+02  0.00000000000E+00 0.  1.
         14    1    4    4    0    0  0.45066270685E+02 -0.25135056896E+02  0.37191087869E+02  0.63607522004E+02  0.00000000000E+00 0. -1.
         -5    1    5    5    0  502 -0.11756471347E+03 -0.10007306930E+02  0.92521110610E+02  0.15001284597E+03  0.47000000000E+01 0.  1.
         11    1    6    6    0    0 -0.72135464135E+01 -0.55597617065E+02  0.14038541073E+01  0.56081200785E+02  0.00000000000E+00 0. -1.
        -12    1    6    6    0    0 -0.67306146301E+01 -0.32997510920E+02  0.85647480314E+02  0.92030580702E+02  0.00000000000E+00 0.  1.
</event>
<event>
12    1  0.8053217E-002  0.1858843E+03  0.7818608E-02  0.1162279E+00
         21   -1    0    0  501  502  0.00000000000E+00  0.00000000000E+00  0.29546882088E+03  0.29546882088E+03  0.00000000000E+00 0.  1.
         21   -1    0    0  502  503 -0.00000000000E+00 -0.00000000000E+00 -0.15464176224E+03  0.15464176224E+03  0.00000000000E+00 0.  1.
         -6    2    1    2    0  503 -0.66979460415E+02  0.24187900268E+02  0.18177479656E+03  0.25999046661E+03  0.17170225224E+03 0.  0.
        -24    2    3    3    0    0 -0.22923348956E+02  0.74500721095E+02  0.14086915868E+03  0.18145587482E+03  0.83703508097E+02 0.  0.
          6    2    1    2  501    0  0.66979460415E+02 -0.24187900268E+02 -0.40947737920E+02  0.19012011651E+03  0.17145739653E+03 0.  0.
         24    2    5    5    0    0  0.11157192554E+03 -0.72575987511E+01 -0.17531711176E+02  0.13677666926E+03  0.76808391788E+02 0.  0.
          5    1    5    5  501    0 -0.44592465129E+02 -0.16930301517E+02 -0.23416026744E+02  0.53343447247E+02  0.47000000000E+01 0. -1.
        -13    1    6    6    0    0  0.91520421302E+02  0.27094439371E+02 -0.74154777094E+01  0.95734452888E+02  0.00000000000E+00 0.  1.
         14    1    6    6    0    0  0.20051504243E+02 -0.34352038122E+02 -0.10116233467E+02  0.41042216377E+02  0.00000000000E+00 0. -1.
         -5    1    3    3    0  503 -0.44056111459E+02 -0.50312820827E+02  0.40905637885E+02  0.78534591788E+02  0.47000000000E+01 0.  1.
         11    1    4    4    0    0  0.27110500356E+02  0.39186455519E+01  0.41190045210E+02  0.49466704326E+02  0.00000000000E+00 0. -1.
        -12    1    4    4    0    0 -0.50033849312E+02  0.70582075543E+02  0.99679113469E+02  0.13198917049E+03  0.00000000000E+00 0.  1.
</event>
<event>
12    1  0.8053217E-002  0.2000304E+03  0.7818608E-02  0.1149718E+00
         21   -1    0    0  501  502  0.00000000000E+00  0.00000000000E+00  0.11841585277E+04  0.11841585277E+04  0.00000000000E+00 0.  1.
         21   -1    0    0  502  503 -0.00000000000E+00 -0.00000000000E+00 -0.34333234259E+02  0.34333234259E+02  0.00000000000E+00 0. -1.
         -6    2    1    2    0  503 -0.83353958630E+02 -0.54954569592E+02  0.49800290490E+03  0.53667408442E+03  0.17333289493E+03 0.  0.
        -24    2    3    3    0    0 -0.19010603741E+02  0.31499494254E+02  0.22362418979E+03  0.24185186379E+03  0.84444801894E+02 0.  0.
          6    2    1    2  501    0  0.83353958630E+02  0.54954569592E+02  0.65182238852E+03  0.68181767751E+03  0.17330618009E+03 0.  0.
         24    2    5    5    0    0 -0.40502502893E+01  0.59640090157E+02  0.46331701077E+03  0.47392872331E+03  0.79827548044E+02 0.  0.
          5    1    5    5  501    0  0.87404208920E+02 -0.46855205656E+01  0.18850537775E+03  0.20788895420E+03  0.47000000000E+01 0. -1.
        -13    1    6    6    0    0  0.80772181770E+01  0.74267827577E+02  0.28597717355E+03  0.29557384096E+03  0.00000000000E+00 0.  1.
         14    1    6    6    0    0 -0.12127468466E+02 -0.14627737420E+02  0.17733983722E+03  0.17835488235E+03  0.00000000000E+00 0. -1.
         -5    1    3    3    0  503 -0.64343354889E+02 -0.86454063845E+02  0.27437871511E+03  0.29482222064E+03  0.47000000000E+01 0.  1.
         13    1    4    4    0    0 -0.31603147410E+02  0.15359824349E+02  0.27388308124E+02  0.44551122905E+02  0.00000000000E+00 0. -1.
        -14    1    4    4    0    0  0.12592543669E+02  0.16139669905E+02  0.19623588166E+03  0.19730074088E+03  0.00000000000E+00 0.  1.
</event>
<event>
12    1  0.8053217E-002  0.2240498E+03  0.7818608E-02  0.1131048E+00
         21   -1    0    0  503  502  0.00000000000E+00  0.00000000000E+00  0.29288443129E+03  0.29288443129E+03  0.00000000000E+00 0.  1.
         21   -1    0    0  501  503 -0.00000000000E+00 -0.00000000000E+00 -0.18104078008E+03  0.18104078008E+03  0.00000000000E+00 0.  1.
          6    2    1    2  501    0 -0.14185980686E+03  0.11882643666E+02  0.11226862830E+03  0.24987500741E+03  0.17195311107E+03 0.  0.
         24    2    3    3    0    0 -0.17115349390E+03  0.11817583361E+02  0.78169108201E+02  0.20467554277E+03  0.79677440850E+02 0.  0.
         -6    2    1    2    0  502  0.14185980686E+03 -0.11882643666E+02 -0.42497708650E+00  0.22405020396E+03  0.17301130386E+03 0.  0.
        -24    2    5    5    0    0  0.14195185321E+03  0.23078638028E+01  0.49979431636E+02  0.17147574825E+03  0.82160414949E+02 0.  0.
          5    1    3    3  501    0  0.29293687039E+02  0.65060305114E-01  0.34099520094E+02  0.45199464641E+02  0.47000000000E+01 0. -1.
        -11    1    4    4    0    0 -0.35009364515E+02 -0.60988217578E+01 -0.15169020080E+02  0.38638716344E+02  0.00000000000E+00 0.  1.
         12    1    4    4    0    0 -0.13614412939E+03  0.17916405119E+02  0.93338128281E+02  0.16603682643E+03  0.00000000000E+00 0. -1.
         -5    1    5    5    0  502 -0.92046348050E-01 -0.14190507469E+02 -0.50404408723E+02  0.52574455712E+02  0.47000000000E+01 0.  1.
         13    1    6    6    0    0  0.49939461929E+02  0.12601195328E+02 -0.20172322340E+02  0.55314216708E+02  0.00000000000E+00 0. -1.
        -14    1    6    6    0    0  0.92012391284E+02 -0.10293331525E+02  0.70151753977E+02  0.11616153154E+03  0.00000000000E+00 0.  1.
</event>
<event>
12    1  0.8053217E-002  0.1777086E+03  0.7818608E-02  0.1170293E+00
         21   -1    0    0  503  502  0.00000000000E+00  0.00000000000E+00  0.11283552150E+04  0.11283552150E+04  0.00000000000E+00 0.  1.
         21   -1    0    0  501  503 -0.00000000000E+00 -0.00000000000E+00 -0.51800648982E+02  0.51800648982E+02  0.00000000000E+00 0.  1.
          6    2    1    2  501    0  0.31888757277E+02 -0.18117136263E+02  0.13600174591E+03  0.22296207103E+03  0.17283080385E+03 0.  0.
         24    2    3    3    0    0  0.40049587232E+02 -0.38969993972E+02  0.12004008947E+02  0.96870954799E+02  0.78212887590E+02 0.  0.
         -6    2    1    2    0  502 -0.31888757277E+02  0.18117136263E+02  0.94055282013E+03  0.95719379298E+03  0.17388279498E+03 0.  0.
        -24    2    5    5    0    0 -0.59787197091E+02 -0.32311132318E+02  0.39834200247E+03  0.41190855203E+03  0.79835994944E+02 0.  0.
          5    1    3    3  501    0 -0.81608299546E+01  0.20852857708E+02  0.12399773696E+03  0.12609111623E+03  0.47000000000E+01 0. -1.
        -11    1    4    4    0    0 -0.22468338499E+02 -0.17708433128E+02  0.11504803023E+02  0.30834644985E+02  0.00000000000E+00 0.  1.
         12    1    4    4    0    0  0.62517925731E+02 -0.21261560844E+02  0.49920592423E+00  0.66036309813E+02  0.00000000000E+00 0. -1.
         -5    1    5    5    0  502  0.27898439814E+02  0.50428268582E+02  0.54221081766E+03  0.54528524095E+03  0.47000000000E+01 0.  1.
         11    1    6    6    0    0 -0.49431302583E+02 -0.58484516465E+02  0.29981849988E+03  0.30944308881E+03  0.00000000000E+00 0. -1.
        -12    1    6    6    0    0 -0.10355894508E+02  0.26173384146E+02  0.98523502594E+02  0.10246546322E+03  0.00000000000E+00 0.  1.
</event>
<event>
12    1  0.8053217E-002  0.2078962E+03  0.7818608E-02  0.1144122E+00
         21   -1    0    0  501  502  0.00000000000E+00  0.00000000000E+00  0.30336576892E+03  0.30336576892E+03  0.00000000000E+00 0. -1.
         21   -1    0    0  502  503 -0.00000000000E+00 -0.00000000000E+00 -0.23478271652E+03  0.23478271652E+03  0.00000000000E+00 0. -1.
         -6    2    1    2    0  503 -0.52565176942E+02 -0.10424418751E+03 -0.13688789125E+03  0.24891586793E+03  0.17201995838E+03 0.  0.
        -24    2    3    3    0    0  0.11880133045E+02 -0.82687625071E+02 -0.26642785927E+02  0.11932436894E+03  0.80932602078E+02 0.  0.
          6    2    1    2  501    0  0.52565176942E+02  0.10424418751E+03  0.20547094365E+03  0.28923261750E+03  0.16675505955E+03 0.  0.
         24    2    5    5    0    0 -0.26632891357E+02  0.80182306917E+02  0.14985219024E+03  0.18939853589E+03  0.79231390460E+02 0.  0.
          5    1    5    5  501    0  0.79198068299E+02  0.24061880597E+02  0.55618753409E+02  0.99834081610E+02  0.47000000000E+01 0. -1.
        -11    1    6    6    0    0 -0.27638580860E+02  0.27545685020E+02  0.10464480393E+02  0.40400015657E+02  0.00000000000E+00 0.  1.
         12    1    6    6    0    0  0.10056895032E+01  0.52636621896E+02  0.13938770985E+03  0.14899852024E+03  0.00000000000E+00 0. -1.
         -5    1    3    3    0  503 -0.64445309987E+02 -0.21556562443E+02 -0.11024510533E+03  0.12959149900E+03  0.47000000000E+01 0.  1.
         11    1    4    4    0    0  0.37436071026E+01 -0.66641297580E+01 -0.40849106123E+02  0.41558088149E+02  0.00000000000E+00 0. -1.
        -12    1    4    4    0    0  0.81365259425E+01 -0.76023495313E+02  0.14206320196E+02  0.77766280788E+02  0.00000000000E+00 0.  1.
</event>
<event>
12    1  0.8053217E-002  0.2768495E+03  0.7818608E-02  0.1097610E+00
         21   -1    0    0  503  502  0.00000000000E+00  0.00000000000E+00  0.18778094932E+03  0.18778094932E+03  0.00000000000E+00 0. -1.
         21   -1    0    0  501  503 -0.00000000000E+00 -0.00000000000E+00 -0.44931181628E+03  0.44931181628E+03  0.00000000000E+00 0. -1.
          6    2    1    2  501    0 -0.77116497662E+02  0.20353247038E+03 -0.22918029624E+03  0.35835953897E+03  0.16889502740E+03 0.  0.
         24    2    3    3    0    0 -0.10154849879E+03  0.91756306653E+02 -0.11007824349E+03  0.19313780183E+03  0.80334758281E+02 0.  0.
         -6    2    1    2    0  502  0.77116497662E+02 -0.20353247038E+03 -0.32350570727E+02  0.27873322663E+03  0.17109421818E+03 0.  0.
        -24    2    5    5    0    0  0.44603359340E+02 -0.11321754219E+03  0.48600311722E+02  0.15307883640E+03  0.79142076851E+02 0.  0.
          5    1    3    3  501    0  0.24432001130E+02  0.11177616373E+03 -0.11910205274E+03  0.16522173714E+03  0.47000000000E+01 0. -1.
        -13    1    4    4    0    0 -0.14952853575E+02 -0.59378470452E+01  0.72189184521E+01  0.17634019428E+02  0.00000000000E+00 0.  1.
         14    1    4    4    0    0 -0.86595645218E+02  0.97694153698E+02 -0.11729716195E+03  0.17550378240E+03  0.00000000000E+00 0. -1.
         -5    1    5    5    0  502  0.32513138323E+02 -0.90314928184E+02 -0.80950882448E+02  0.12565439024E+03  0.47000000000E+01 0.  1.
         11    1    6    6    0    0 -0.22413308687E+01 -0.49102945758E+02 -0.14947085535E+02  0.51376436351E+02  0.00000000000E+00 0. -1.
        -12    1    6    6    0    0  0.46844690208E+02 -0.64114596437E+02  0.63547397257E+02  0.10170240005E+03  0.00000000000E+00 0.  1.
</event>
<event>
12    1  0.8053217E-002  0.1759298E+03  0.7818608E-02  0.1172443E+00
         21   -1    0    0  503  502  0.00000000000E+00  0.00000000000E+00  0.33291071011E+03  0.33291071011E+03  0.00000000000E+00 0. -1.
         21   -1    0    0  501  503 -0.00000000000E+00 -0.00000000000E+00 -0.21661519179E+03  0.21661519179E+03  0.00000000000E+00 0. -1.
          6    2    1    2  501    0  0.28408903179E+01  0.14917794627E+02 -0.15038202369E+03  0.23144340621E+03  0.17527317528E+03 0.  0.
         24    2    3    3    0    0 -0.59574218606E+02 -0.11447251296E+02 -0.54921879439E+02  0.11428756722E+03  0.79781627556E+02 0.  0.
         -6    2    1    2    0  502 -0.28408903179E+01 -0.14917794627E+02  0.26667754200E+03  0.31808249569E+03  0.17271060014E+03 0.  0.
        -24    2    5    5    0    0  0.52113353937E+02  0.33471787986E+02  0.16482944611E+03  0.19255701898E+03  0.77931360844E+02 0.  0.
          5    1    3    3  501    0  0.62415108924E+02  0.26365045923E+02 -0.95460144246E+02  0.11715583898E+03  0.47000000000E+01 0. -1.
        -11    1    4    4    0    0 -0.10107695778E+02 -0.33972616117E+02  0.21050824651E+01  0.35506837820E+02  0.00000000000E+00 0.  1.
         12    1    4    4    0    0 -0.49466522828E+02  0.22525364821E+02 -0.57026961904E+02  0.78780729402E+02  0.00000000000E+00 0. -1.
         -5    1    5    5    0  502 -0.54954244255E+02 -0.48389582613E+02  0.10184809589E+03  0.12552547671E+03  0.47000000000E+01 0.  1.
         13    1    6    6    0    0  0.46858025203E+02 -0.15702300590E+01  0.36476018597E+02  0.59402357538E+02  0.00000000000E+00 0. -1.
        -14    1    6    6    0    0  0.52553287344E+01  0.35042018045E+02  0.12835342751E+03  0.13315466144E+03  0.00000000000E+00 0.  1.
</event>
<event>
12    1  0.8053217E-002  0.1795442E+03  0.7818608E-02  0.1168493E+00
         21   -1    0    0  501  502  0.00000000000E+00  0.00000000000E+00  0.12635547192E+03  0.12635547192E+03  0.00000000000E+00 0. -1.
         21   -1    0    0  502  503 -0.00000000000E+00 -0.00000000000E+00 -0.30623883717E+03  0.30623883717E+03  0.00000000000E+00 0.  1.
         -6    2    1    2    0  503  0.47155373784E+02  0.13633453297E+01 -0.17933882442E+03  0.25304924721E+03  0.17218019510E+03 0.  0.
        -24    2    3    3    0    0 -0.88277429314E+01 -0.22422322040E+02 -0.16859634645E+03  0.19110283358E+03  0.86688380969E+02 0.  0.
          6    2    1    2  501    0 -0.47155373784E+02 -0.13633453297E+01 -0.54454083252E+00  0.17954506188E+03  0.17323580673E+03 0.  0.
         24    2    5    5    0    0 -0.42801261242E+02 -0.58427753917E+02  0.32211599910E+02  0.11343636518E+03  0.81144755741E+02 0.  0.
          5    1    5    5  501    0 -0.43541125419E+01  0.57064408587E+02 -0.32756140742E+02  0.66108696703E+02  0.47000000000E+01 0. -1.
        -13    1    6    6    0    0 -0.17284021237E+02 -0.59405459748E+02 -0.11388873817E+02  0.62908286297E+02  0.00000000000E+00 0.  1.
         14    1    6    6    0    0 -0.25517240005E+02  0.97770583124E+00  0.43600473726E+02  0.50528078880E+02  0.00000000000E+00 0. -1.
         -5    1    3    3    0  503  0.55983116715E+02  0.23785667370E+02 -0.10742477968E+02  0.61946413635E+02  0.47000000000E+01 0.  1.
         11    1    4    4    0    0  0.70747050237E+01  0.48962867692E+01  0.79707741513E+01  0.11728525733E+02  0.00000000000E+00 0. -1.
        -12    1    4    4    0    0 -0.15902447955E+02 -0.27318608809E+02 -0.17656712060E+03  0.17937430784E+03  0.00000000000E+00 0.  1.
</event>
<event>
12    1  0.8053217E-002  0.1753235E+03  0.7818608E-02  0.1172907E+00
         21   -1    0    0  501  502  0.00000000000E+00  0.00000000000E+00  0.28826337492E+03  0.28826337492E+03  0.00000000000E+00 0. -1.
         21   -1    0    0  502  503 -0.00000000000E+00 -0.00000000000E+00 -0.16131847284E+03  0.16131847284E+03  0.00000000000E+00 0. -1.
         -6    2    1    2    0  503 -0.23492049343E+02 -0.15337518948E+02 -0.69074642307E+02  0.18659520270E+03  0.17105363952E+03 0.  0.
        -24    2    3    3    0    0  0.97514208396E+01 -0.30458050634E+02 -0.10417678475E+03  0.13572272299E+03  0.80901619256E+02 0.  0.
          6    2    1    2  501    0  0.23492049343E+02  0.15337518948E+02  0.19601954438E+03  0.26298664505E+03  0.17306414367E+03 0.  0.
         24    2    5    5    0    0 -0.39269007523E+02  0.28822163625E+02  0.59334389764E+02  0.11190485464E+03  0.81420848772E+02 0.  0.
          5    1    5    5  501    0  0.62761056866E+02 -0.13484644677E+02  0.13668515462E+03  0.15108179041E+03  0.47000000000E+01 0. -1.
        -11    1    6    6    0    0  0.21883317143E+02  0.46731939803E+01 -0.13698561187E+01  0.22418626562E+02  0.00000000000E+00 0.  1.
         12    1    6    6    0    0 -0.61152324665E+02  0.24148969645E+02  0.60704245883E+02  0.89486228075E+02  0.00000000000E+00 0. -1.
         -5    1    3    3    0  503 -0.33243470183E+02  0.15120531686E+02  0.35102142442E+02  0.50872479714E+02  0.47000000000E+01 0.  1.
         13    1    4    4    0    0  0.39352123045E+02 -0.35779586042E+02 -0.84289451548E+02  0.99666845077E+02  0.00000000000E+00 0. -1.
        -14    1    4    4    0    0 -0.29600702205E+02  0.53215354086E+01 -0.19887333201E+02  0.36055877912E+02  0.00000000000E+00 0.  1.
</event>
<event>
12    1  0.8053217E-002  0.2076021E+03  0.7818608E-02  0.1143777E+00
         21   -1    0    0  503  502  0.00000000000E+00  0.00000000000E+00  0.38519935549E+03  0.38519935549E+03  0.00000000000E+00 0. -1.
         21   -1    0    0  501  503 -0.00000000000E+00 -0.00000000000E+00 -0.62574846792E+03  0.62574846792E+03  0.00000000000E+00 0.  1.
          6    2    1    2  501    0  0.11542060555E+03  0.13396332446E+02 -0.57861178392E+03  0.61423001780E+03  0.17025140343E+03 0.  0.
         24    2    3    3    0    0  0.11955575855E+03  0.44053610910E+00 -0.58199598755E+03  0.59944844199E+03  0.79531953342E+02 0.  0.
         -6    2    1    2    0  502 -0.11542060555E+03 -0.13396332446E+02  0.33806267149E+03  0.39671780560E+03  0.17203856987E+03 0.  0.
        -24    2    5    5    0    0 -0.14761881615E+02 -0.23225006256E+02  0.24526619187E+03  0.25937859721E+03  0.79777426324E+02 0.  0.
          5    1    3    3  501    0 -0.41351530001E+01  0.12955796337E+02  0.33842036376E+01  0.14781575806E+02  0.47000000000E+01 0. -1.
        -13    1    4    4    0    0  0.21071256390E+02 -0.30400096928E+02 -0.21756749130E+03  0.22068932237E+03  0.00000000000E+00 0.  1.
         14    1    4    4    0    0  0.98484502160E+02  0.30840633037E+02 -0.36442849626E+03  0.37875911962E+03  0.00000000000E+00 0. -1.
         -5    1    5    5    0  502 -0.10065872393E+03  0.98286738103E+01  0.92796479614E+02  0.13733920839E+03  0.47000000000E+01 0.  1.
         13    1    6    6    0    0 -0.23584041044E+02 -0.40058137090E+02  0.23095840474E+03  0.23558999567E+03  0.00000000000E+00 0. -1.
        -14    1    6    6    0    0  0.88221594293E+01  0.16833130833E+02  0.14307787130E+02  0.23788601540E+02  0.00000000000E+00 0.  1.
</event>
<event>
12    1  0.8053217E-002  0.2011523E+03  0.7818608E-02  0.1148880E+00
         21   -1    0    0  503  502  0.00000000000E+00  0.00000000000E+00  0.49308598732E+02  0.49308598732E+02  0.00000000000E+00 0. -1.
         21   -1    0    0  501  503 -0.00000000000E+00 -0.00000000000E+00 -0.87886409380E+03  0.87886409380E+03  0.00000000000E+00 0. -1.
          6    2    1    2  501    0  0.10054811955E+03 -0.27444356445E+02 -0.53694352989E+03  0.57338522254E+03  0.17204401209E+03 0.  0.
         24    2    3    3    0    0  0.76492433064E+02  0.44017993455E+02 -0.24772546805E+03  0.27446262253E+03  0.78569380684E+02 0.  0.
         -6    2    1    2    0  502 -0.10054811955E+03  0.27444356445E+02 -0.29261196518E+03  0.35478746999E+03  0.17143298880E+03 0.  0.
        -24    2    5    5    0    0 -0.38589690339E+02  0.60974617128E+02 -0.21745508347E+03  0.25166728671E+03  0.10412800651E+03 0.  0.
          5    1    3    3  501    0  0.24055686483E+02 -0.71462349900E+02 -0.28921806184E+03  0.29892260002E+03  0.47000000000E+01 0. -1.
        -13    1    4    4    0    0  0.18561185066E+02  0.53356079906E+02 -0.90963804691E+02  0.10707848812E+03  0.00000000000E+00 0.  1.
         14    1    4    4    0    0  0.57931247998E+02 -0.93380864509E+01 -0.15676166336E+03  0.16738413441E+03  0.00000000000E+00 0. -1.
         -5    1    5    5    0  502 -0.61958429208E+02 -0.33530260682E+02 -0.75156881714E+02  0.10312018328E+03  0.47000000000E+01 0.  1.
         13    1    6    6    0    0 -0.60613476037E+02  0.64501956936E+01 -0.69438741010E+02  0.92397712390E+02  0.00000000000E+00 0. -1.
        -14    1    6    6    0    0  0.22023785698E+02  0.54524421434E+02 -0.14801634246E+03  0.15926957432E+03  0.00000000000E+00 0.  1.
</event>
<event>
12    1  0.8053217E-002  0.1837100E+03  0.7818608E-02  0.1166543E+00
         21   -1    0    0  501  502  0.00000000000E+00  0.00000000000E+00  0.90994323646E+03  0.90994323646E+03  0.00000000000E+00 0.  1.
         21   -1    0    0  502  503 -0.00000000000E+00 -0.00000000000E+00 -0.36787439153E+02  0.36787439153E+02  0.00000000000E+00 0.  1.
         -6    2    1    2    0  503 -0.19910850427E+02  0.20611079291E+02  0.54550179771E+03  0.57560541032E+03  0.18146106617E+03 0.  0.
        -24    2    3    3    0    0  0.51583439788E+01 -0.14726090165E+02  0.48073044036E+02  0.76271218591E+02  0.57121055472E+02 0.  0.
          6    2    1    2  501    0  0.19910850427E+02 -0.20611079291E+02  0.32765399960E+03  0.37112526529E+03  0.17191730724E+03 0.  0.
         24    2    5    5    0    0 -0.60155304132E+01  0.12966479440E+02  0.63755358871E+02  0.10379735382E+03  0.80652518125E+02 0.  0.
          5    1    5    5  501    0  0.25926380840E+02 -0.33577558732E+02  0.26389864073E+03  0.26732791147E+03  0.47000000000E+01 0. -1.
        -13    1    6    6    0    0  0.29821091302E+02 -0.14956658007E+02  0.13333587851E+02  0.35927477927E+02  0.00000000000E+00 0.  1.
         14    1    6    6    0    0 -0.35836621715E+02  0.27923137447E+02  0.50421771020E+02  0.67869875892E+02  0.00000000000E+00 0. -1.
         -5    1    3    3    0  503 -0.25069194406E+02  0.35337169456E+02  0.49742875367E+03  0.49933419173E+03  0.47000000000E+01 0.  1.
         13    1    4    4    0    0 -0.16553295578E+02 -0.25272597156E+02  0.41357583327E+02  0.51216847425E+02  0.00000000000E+00 0. -1.
        -14    1    4    4    0    0  0.21711639557E+02  0.10546506991E+02  0.67154607099E+01  0.25054371166E+02  0.00000000000E+00 0.  1.
</event>
<event>
12    1  0.8053217E-002  0.1778031E+03  0.7818608E-02  0.1170235E+00
         21   -1    0    0  501  502  0.00000000000E+00  0.00000000000E+00  0.24390790209E+03  0.24390790209E+03  0.00000000000E+00 0.  1.
         21   -1    0    0  502  503 -0.00000000000E+00 -0.00000000000E+00 -0.24150019938E+03  0.24150019938E+03  0.00000000000E+00 0. -1.
         -6    2    1    2    0  503  0.37993854908E+02 -0.19393149004E+02 -0.16462418664E+03  0.24145405286E+03  0.17140393688E+03 0.  0.
        -24    2    3    3    0    0  0.66991014436E+02 -0.22199480316E+02 -0.17913595465E+03  0.20856952509E+03  0.80193164345E+02 0.  0.
          6    2    1    2  501    0 -0.37993854908E+02  0.19393149004E+02  0.16703188935E+03  0.24395404861E+03  0.17261025038E+03 0.  0.
         24    2    5    5    0    0 -0.87312100824E+02  0.29097348305E+02  0.12584859284E+03  0.17880334044E+03  0.87536892812E+02 0.  0.
          5    1    5    5  501    0  0.49318245916E+02 -0.97041993007E+01  0.41183296514E+02  0.65150708178E+02  0.47000000000E+01 0. -1.
        -11    1    6    6    0    0 -0.76279590503E+02 -0.13248785877E+02  0.10465977246E+03  0.13018361735E+03  0.00000000000E+00 0.  1.
         12    1    6    6    0    0 -0.11032510321E+02  0.42346134182E+02  0.21188820376E+02  0.48619723087E+02  0.00000000000E+00 0. -1.
         -5    1    3    3    0  503 -0.28997159528E+02  0.28063313122E+01  0.14511768009E+02  0.32884527773E+02  0.47000000000E+01 0.  1.
         13    1    4    4    0    0  0.32099704720E+02 -0.21381329535E+01 -0.16142154886E+03  0.16459610898E+03  0.00000000000E+00 0. -1.
        -14    1    4    4    0    0  0.34891309716E+02 -0.20061347363E+02 -0.17714405784E+02  0.43973416106E+02  0.00000000000E+00 0.  1.
</event>
<event>
12    1  0.8053217E-002  0.1840643E+03  0.7818608E-02  0.1164974E+00
         21   -1    0    0  503  502  0.00000000000E+00  0.00000000000E+00  0.19717907427E+03  0.19717907427E+03  0.00000000000E+00 0.  1.
         21   -1    0    0  501  503 -0.00000000000E+00 -0.00000000000E+00 -0.18263737803E+03  0.18263737803E+03  0.00000000000E+00 0.  1.
          6    2    1    2  501    0 -0.41958682277E+02 -0.57936843880E+02  0.61427325115E+02  0.18987450919E+03  0.16480838592E+03 0.  0.
         24    2    3    3    0    0 -0.57089023918E+02 -0.21029026354E+02  0.93577381584E+02  0.13842715392E+03  0.81877799176E+02 0.  0.
         -6    2    1    2    0  502  0.41958682277E+02  0.57936843880E+02 -0.46885628881E+02  0.18994194311E+03  0.16959501956E+03 0.  0.
        -24    2    5    5    0    0 -0.70564335310E+01 -0.72520324867E+01  0.21844294662E+02  0.83180697478E+02  0.79620788706E+02 0.  0.
          5    1    3    3  501    0  0.15130341640E+02 -0.36907817526E+02 -0.32150056468E+02  0.51447355264E+02  0.47000000000E+01 0. -1.
        -13    1    4    4    0    0 -0.32681390469E+02  0.21200177960E+02  0.78064261663E+02  0.87244196240E+02  0.00000000000E+00 0.  1.
         14    1    4    4    0    0 -0.24407633448E+02 -0.42229204314E+02  0.15513119921E+02  0.51182957683E+02  0.00000000000E+00 0. -1.
         -5    1    5    5    0  502  0.49015115808E+02  0.65188876366E+02 -0.68729923543E+02  0.10676124564E+03  0.47000000000E+01 0.  1.
         11    1    6    6    0    0  0.26643153727E+02  0.22823846519E+02  0.89045794982E+01  0.36194987864E+02  0.00000000000E+00 0. -1.
        -12    1    6    6    0    0 -0.33699587258E+02 -0.30075879006E+02  0.12939715164E+02  0.46985709613E+02  0.00000000000E+00 0.  1.
</event>
<event>
12    1  0.8053217E-002  0.2010379E+03  0.7818608E-02  0.1149001E+00
         21   -1    0    0  501  502  0.00000000000E+00  0.00000000000E+00  0.84689253208E+02  0.84689253208E+02  0.00000000000E+00 0. -1.
         21   -1    0    0  502  503 -0.00000000000E+00 -0.00000000000E+00 -0.48675783052E+03  0.48675783052E+03  0.00000000000E+00 0.  1.
         -6    2    1    2    0  503 -0.10292723132E+03 -0.58167195567E+01 -0.24377157067E+03  0.31556783109E+03  0.17184477932E+03 0.  0.
        -24    2    3    3    0    0  0.10188287330E+02 -0.16318777060E+02 -0.12307291317E+03  0.14974964845E+03  0.83113847048E+02 0.  0.
          6    2    1    2  501    0  0.10292723132E+03  0.58167195567E+01 -0.15829700664E+03  0.25587925264E+03  0.17259316453E+03 0.  0.
         24    2    5    5    0    0  0.15901805308E+01 -0.33479144719E+02 -0.39185662882E+02  0.94562901870E+02  0.79266918884E+02 0.  0.
          5    1    5    5  501    0  0.10133705079E+03  0.39295864275E+02 -0.11911134376E+03  0.16131635077E+03  0.47000000000E+01 0. -1.
        -11    1    6    6    0    0 -0.19810022270E+02 -0.34222583376E+02 -0.55144670726E+02  0.67856885463E+02  0.00000000000E+00 0.  1.
         12    1    6    6    0    0  0.21400202801E+02  0.74343865740E+00  0.15959007844E+02  0.26706016407E+02  0.00000000000E+00 0. -1.
         -5    1    3    3    0  503 -0.11311551865E+03  0.10502057504E+02 -0.12069865750E+03  0.16581818264E+03  0.47000000000E+01 0.  1.
         11    1    4    4    0    0  0.19171283480E+02  0.30696916543E+02 -0.65906684630E+02  0.75189958601E+02  0.00000000000E+00 0. -1.
        -12    1    4    4    0    0 -0.89829961496E+01 -0.47015693603E+02 -0.57166228542E+02  0.74559689850E+02  0.00000000000E+00 0.  1.
</event>
<event>
12    1  0.8053217E-002  0.2954932E+03  0.7818608E-02  0.1087742E+00
         21   -1    0    0  501  502  0.00000000000E+00  0.00000000000E+00  0.17819718651E+03  0.17819718651E+03  0.00000000000E+00 0.  1.
         21   -1    0    0  502  503 -0.00000000000E+00 -0.00000000000E+00 -0.25960947935E+04  0.25960947935E+04  0.00000000000E+00 0. -1.
         -6    2    1    2    0  503 -0.23890710336E+03 -0.40981712067E+01 -0.24598989578E+04  0.24775833155E+04  0.17384707024E+03 0.  0.
        -24    2    3    3    0    0 -0.17608449878E+03  0.73583730713E+01 -0.22422395386E+04  0.22507008684E+04  0.83404761264E+02 0.  0.
          6    2    1    2  501    0  0.23890710336E+03  0.40981712067E+01  0.42001350764E+02  0.29670866452E+03  0.17081720959E+03 0.  0.
         24    2    5    5    0    0  0.22449222385E+03 -0.37086005027E+02  0.70087636384E+01  0.24057938271E+03  0.77827927368E+02 0.  0.
          5    1    5    5  501    0  0.14414879512E+02  0.41184176234E+02  0.34992587125E+02  0.56129281815E+02  0.47000000000E+01 0. -1.
        -13    1    6    6    0    0  0.76847557132E+02 -0.46796687664E+02 -0.14250067696E+02  0.91096330568E+02  0.00000000000E+00 0.  1.
         14    1    6    6    0    0  0.14764466672E+03  0.97106826375E+01  0.21258831334E+02  0.14948305214E+03  0.00000000000E+00 0. -1.
         -5    1    3    3    0  503 -0.62822604582E+02 -0.11456544278E+02 -0.21765941914E+03  0.22688244709E+03  0.47000000000E+01 0.  1.
         11    1    4    4    0    0 -0.12267605597E+03  0.27769893960E+02 -0.11271078831E+04  0.11341043876E+04  0.00000000000E+00 0. -1.
        -12    1    4    4    0    0 -0.53408442803E+02 -0.20411520888E+02 -0.11151316555E+04  0.11165964809E+04  0.00000000000E+00 0.  1.
</event>
<event>
12    1  0.8053217E-002  0.2078876E+03  0.7818608E-02  0.1143305E+00
         21   -1    0    0  503  502  0.00000000000E+00  0.00000000000E+00  0.41787775316E+03  0.41787775316E+03  0.00000000000E+00 0.  1.
         21   -1    0    0  501  503 -0.00000000000E+00 -0.00000000000E+00 -0.10377029457E+03  0.10377029457E+03  0.00000000000E+00 0.  1.
          6    2    1    2  501    0  0.97690236694E+02  0.64587006870E+02  0.13909359157E+03  0.24989983252E+03  0.17142938860E+03 0.  0.
         24    2    3    3    0    0  0.81365398266E+02  0.20688729499E+02  0.15976752675E+03  0.19848912642E+03  0.82607016294E+02 0.  0.
         -6    2    1    2    0  502 -0.97690236694E+02 -0.64587006870E+02  0.17501386702E+03  0.27174821521E+03  0.17176255418E+03 0.  0.
        -24    2    5    5    0    0 -0.31716045924E+02 -0.99692649500E+02  0.13032438457E+03  0.18454592261E+03  0.78282950932E+02 0.  0.
          5    1    3    3  501    0  0.16324838428E+02  0.43898277371E+02 -0.20673935175E+02  0.51410706097E+02  0.47000000000E+01 0. -1.
        -13    1    4    4    0    0  0.28064233304E+02  0.49646577312E+02  0.81332303210E+02  0.99334421905E+02  0.00000000000E+00 0.  1.
         14    1    4    4    0    0  0.53301164962E+02 -0.28957847813E+02  0.78435223538E+02  0.99154704516E+02  0.00000000000E+00 0. -1.
         -5    1    5    5    0  502 -0.65974190770E+02  0.35105642631E+02  0.44689482453E+02  0.87202292597E+02  0.47000000000E+01 0.  1.
         13    1    6    6    0    0 -0.41520858608E+02 -0.22744872748E+02  0.77089114309E+02  0.90465697813E+02  0.00000000000E+00 0. -1.
        -14    1    6    6    0    0  0.98048126843E+01 -0.76947776752E+02  0.53235270259E+02  0.94080224800E+02  0.00000000000E+00 0.  1.
</event>
<event>
12    1  0.8053217E-002  0.1748780E+03  0.7818608E-02  0.1173312E+00
         21   -1    0    0  501  502  0.00000000000E+00  0.00000000000E+00  0.12872927487E+03  0.12872927487E+03  0.00000000000E+00 0. -1.
         21   -1    0    0  502  503 -0.00000000000E+00 -0.00000000000E+00 -0.51021520465E+03  0.51021520465E+03  0.00000000000E+00 0. -1.
         -6    2    1    2    0  503  0.35336157702E+00 -0.23466277695E+02 -0.42578386218E+03  0.46029796465E+03  0.17329607010E+03 0.  0.
        -24    2    3    3    0    0  0.13483911017E+02 -0.54227907945E+02 -0.41270451762E+03  0.42407851575E+03  0.79969286607E+02 0.  0.
          6    2    1    2  501    0 -0.35336157702E+00  0.23466277695E+02  0.44297932399E+02  0.17864651488E+03  0.17146859598E+03 0.  0.
         24    2    5    5    0    0  0.49009354195E+02  0.38335943986E+02  0.62813314950E+02  0.12366748183E+03  0.86467173693E+02 0.  0.
          5    1    5    5  501    0 -0.49362715772E+02 -0.14869666290E+02 -0.18515382551E+02  0.54979033049E+02  0.47000000000E+01 0. -1.
        -11    1    6    6    0    0  0.96125187847E+01  0.16040885345E+02 -0.21178799595E+02  0.28253355064E+02  0.00000000000E+00 0.  1.
         12    1    6    6    0    0  0.39396835410E+02  0.22295058640E+02  0.83992114546E+02  0.95414126763E+02  0.00000000000E+00 0. -1.
         -5    1    3    3    0  503 -0.13130549440E+02  0.30761630250E+02 -0.13079344556E+02  0.36219448895E+02  0.47000000000E+01 0.  1.
         13    1    4    4    0    0 -0.33787285971E+02 -0.21426044587E+02 -0.17263733388E+03  0.17721259868E+03  0.00000000000E+00 0. -1.
        -14    1    4    4    0    0  0.47271196988E+02 -0.32801863358E+02 -0.24006718374E+03  0.24686591708E+03  0.00000000000E+00 0.  1.
</event>
<event>
12    1  0.8053217E-002  0.1905399E+03  0.7818608E-02  0.1158035E+00
         21   -1    0    0  501  502  0.00000000000E+00  0.00000000000E+00  0.34640927516E+03  0.34640927516E+03  0.00000000000E+00 0. -1.
         21   -1    0    0  502  503 -0.00000000000E+00 -0.00000000000E+00 -0.10600872613E+03  0.10600872613E+03  0.00000000000E+00 0. -1.
         -6    2    1    2    0  503  0.70940357948E+02  0.40820403775E+02  0.14581328251E+03  0.23993113950E+03  0.17206568105E+03 0.  0.
        -24    2    3    3    0    0  0.23281807093E+02  0.86567052329E+02  0.64539205555E+02  0.13509002682E+03  0.77769590467E+02 0.  0.
          6    2    1    2  501    0 -0.70940357948E+02 -0.40820403775E+02  0.94587266521E+02  0.21248686179E+03  0.17177041566E+03 0.  0.
         24    2    5    5    0    0  0.35045981220E+01 -0.57408542042E+02  0.95207059659E+02  0.13606898457E+03  0.78373218928E+02 0.  0.
          5    1    5    5  501    0 -0.74444956070E+02  0.16588138267E+02 -0.61979313892E+00  0.76417877221E+02  0.47000000000E+01 0. -1.
        -13    1    6    6    0    0 -0.25461876226E+00 -0.10986789166E+02 -0.13734194567E+02  0.17589839889E+02  0.00000000000E+00 0.  1.
         14    1    6    6    0    0  0.37592168842E+01 -0.46421752875E+02  0.10894125423E+03  0.11847914468E+03  0.00000000000E+00 0. -1.
         -5    1    3    3    0  503  0.47658550856E+02 -0.45746648554E+02  0.81274076953E+02  0.10484111268E+03  0.47000000000E+01 0.  1.
         11    1    4    4    0    0  0.34896939840E+02  0.85344149074E+01  0.50419864343E+01  0.36277462359E+02  0.00000000000E+00 0. -1.
        -12    1    4    4    0    0 -0.11615132748E+02  0.78032637421E+02  0.59497219120E+02  0.98812564458E+02  0.00000000000E+00 0.  1.
</event>
<event>
12    1  0.8053217E-002  0.1853697E+03  0.7818608E-02  0.1163243E+00
         21   -1    0    0  501  502  0.00000000000E+00  0.00000000000E+00  0.11744430030E+03  0.11744430030E+03  0.00000000000E+00 0. -1.
         21   -1    0    0  502  503 -0.00000000000E+00 -0.00000000000E+00 -0.34752087608E+03  0.34752087608E+03  0.00000000000E+00 0. -1.
         -6    2    1    2    0  503  0.38790028878E+02 -0.49306836130E+02 -0.20986789731E+03  0.27849718096E+03  0.17198928761E+03 0.  0.
        -24    2    3    3    0    0  0.73636132103E+02 -0.45247963544E+02 -0.73863850686E+02  0.13796278640E+03  0.78154998792E+02 0.  0.
          6    2    1    2  501    0 -0.38790028878E+02  0.49306836130E+02 -0.20208678460E+02  0.18646799542E+03  0.17443076621E+03 0.  0.
         24    2    5    5    0    0 -0.33628315821E+02  0.10038591104E+03 -0.25574530487E+02  0.13463559684E+03  0.79148547470E+02 0.  0.
          5    1    5    5  501    0 -0.51617130578E+01 -0.51079074906E+02  0.53658520261E+01  0.51832398583E+02  0.47000000000E+01 0. -1.
        -11    1    6    6    0    0  0.84964786016E+01 -0.47708038712E+01 -0.18772991980E+02  0.21151263464E+02  0.00000000000E+00 0.  1.
         12    1    6    6    0    0 -0.42124794422E+02  0.10515671491E+03 -0.68015385061E+01  0.11348433337E+03  0.00000000000E+00 0. -1.
         -5    1    3    3    0  503 -0.34846103224E+02 -0.40588725860E+01 -0.13600404663E+03  0.14053439457E+03  0.47000000000E+01 0.  1.
         13    1    4    4    0    0  0.41463008992E+02  0.17441158851E+02 -0.19790964118E+02  0.49143233486E+02  0.00000000000E+00 0. -1.
        -14    1    4    4    0    0  0.32173123111E+02 -0.62689122396E+02 -0.54072886567E+02  0.88819552910E+02  0.00000000000E+00 0.  1.
</event>
<event>
12    1  0.8053217E-002  0.1818849E+03  0.7818608E-02  0.1166220E+00
         21   -1    0    0  501  502  0.00000000000E+00  0.00000000000E+00  0.44790537564E+03  0.44790537564E+03  0.00000000000E+00 0. -1.
         21   -1    0    0  502  503 -0.00000000000E+00 -0.00000000000E+00 -0.84233628731E+02  0.84233628731E+02  0.00000000000E+00 0. -1.
         -6    2    1    2    0  503  0.55639948035E+02 -0.12454090367E+02  0.87149517402E+02  0.20168575532E+03  0.17271710202E+03 0.  0.
        -24    2    3    3    0    0 -0.57617444133E+01 -0.40562547072E+02 -0.15206497414E+01  0.90129752721E+02  0.80265447276E+02 0.  0.
          6    2    1    2  501    0 -0.55639948035E+02  0.12454090367E+02  0.27652222950E+03  0.33045324905E+03  0.17170875987E+03 0.  0.
         24    2    5    5    0    0 -0.50085991662E+02 -0.37124999359E+02  0.25694581482E+03  0.27665493513E+03  0.81424377414E+02 0.  0.
          5    1    5    5  501    0 -0.55539563731E+01  0.49579089727E+02  0.19576414684E+02  0.53798313927E+02  0.47000000000E+01 0. -1.
        -11    1    6    6    0    0  0.21605817480E+02  0.26466069957E+00  0.49636664210E+02  0.54135753695E+02  0.00000000000E+00 0.  1.
         12    1    6    6    0    0 -0.71691809142E+02 -0.37389660059E+02  0.20730915061E+03  0.22251918143E+03  0.00000000000E+00 0. -1.
         -5    1    3    3    0  503  0.61401692448E+02  0.28108456704E+02  0.88670167143E+02  0.11155600260E+03  0.47000000000E+01 0.  1.
         13    1    4    4    0    0  0.72852987632E+01  0.22369211427E+02  0.86389937116E+01  0.25061712038E+02  0.00000000000E+00 0. -1.
        -14    1    4    4    0    0 -0.13047043176E+02 -0.62931758498E+02 -0.10159643453E+02  0.65068040684E+02  0.00000000000E+00 0.  1.
</event>
<event>
12    1  0.8053217E-002  0.2226567E+03  0.7818608E-02  0.1132141E+00
         21   -1    0    0  503  502  0.00000000000E+00  0.00000000000E+00  0.28826325856E+03  0.28826325856E+03  0.00000000000E+00 0.  1.
         21   -1    0    0  501  503 -0.00000000000E+00 -0.00000000000E+00 -0.25936901666E+03  0.25936901666E+03  0.00000000000E+00 0.  1.
          6    2    1    2  501    0  0.32796394745E+02 -0.13466971104E+03 -0.14531117529E+03  0.26587847285E+03  0.17425409631E+03 0.  0.
         24    2    3    3    0    0  0.64560804343E+02 -0.21705358621E+02 -0.75593832420E+02  0.12930424200E+03  0.79786837568E+02 0.  0.
         -6    2    1    2    0  502 -0.32796394745E+02  0.13466971104E+03  0.17420541719E+03  0.28175380237E+03  0.17270247014E+03 0.  0.
        -24    2    5    5    0    0 -0.50002956612E+02  0.18696309873E+02  0.46183798516E+02  0.10809459473E+03  0.81863609082E+02 0.  0.
          5    1    3    3  501    0 -0.31764409598E+02 -0.11296435242E+03 -0.69717342871E+02  0.13657423085E+03  0.47000000000E+01 0. -1.
        -13    1    4    4    0    0  0.47713942155E+02 -0.45955131024E+02 -0.25160403337E+02  0.70862826923E+02  0.00000000000E+00 0.  1.
         14    1    4    4    0    0  0.16846862188E+02  0.24249772403E+02 -0.50433429083E+02  0.58441415078E+02  0.00000000000E+00 0. -1.
         -5    1    5    5    0  502  0.17206561868E+02  0.11597340117E+03  0.12802161868E+03  0.17365920764E+03  0.47000000000E+01 0.  1.
         13    1    6    6    0    0 -0.11649901600E+01 -0.96245512342E+01 -0.19322034538E+02  0.21617821519E+02  0.00000000000E+00 0. -1.
        -14    1    6    6    0    0 -0.48837966452E+02  0.28320861107E+02  0.65505833054E+02  0.86476773212E+02  0.00000000000E+00 0.  1.
</event>
<event>
12    1  0.8053217E-002  0.1800594E+03  0.7818608E-02  0.1167943E+00
         21   -1    0    0  503  502  0.00000000000E+00  0.00000000000E+00  0.58349388211E+03  0.58349388211E+03  0.00000000000E+00 0.  1.
         21   -1    0    0  501  503 -0.00000000000E+00 -0.00000000000E+00 -0.17488418042E+03  0.17488418042E+03  0.00000000000E+00 0.  1.
          6    2    1    2  501    0  0.45423154964E+02  0.16226425216E+02 -0.10908890303E+03  0.21052738478E+03  0.17347861856E+03 0.  0.
         24    2    3    3    0    0 -0.37296246926E+02  0.32861682914E+02 -0.72366407505E+02  0.11838693261E+03  0.79420832532E+02 0.  0.
         -6    2    1    2    0  502 -0.45423154964E+02 -0.16226425216E+02  0.51769860471E+03  0.54785067775E+03  0.17263244165E+03 0.  0.
        -24    2    5    5    0    0 -0.81728612922E+02  0.99110511486E+01  0.23389842876E+03  0.26050787931E+03  0.79862914417E+02 0.  0.
          5    1    3    3  501    0  0.82719401890E+02 -0.16635257697E+02 -0.36722495524E+02  0.92140452165E+02  0.47000000000E+01 0. -1.
        -13    1    4    4    0    0 -0.36646016462E+02  0.53673959739E+02 -0.72761768947E+02  0.97560747727E+02  0.00000000000E+00 0.  1.
         14    1    4    4    0    0 -0.65023046343E+00 -0.20812276826E+02  0.39536144227E+00  0.20826184888E+02  0.00000000000E+00 0. -1.
         -5    1    5    5    0  502  0.36305457958E+02 -0.26137476365E+02  0.28380017595E+03  0.28734279845E+03  0.47000000000E+01 0.  1.
         11    1    6    6    0    0  0.14653311463E+02 -0.23895713284E+01  0.15460924166E+02  0.21435245835E+02  0.00000000000E+00 0. -1.
        -12    1    6    6    0    0 -0.96381924385E+02  0.12300622477E+02  0.21843750459E+03  0.23907263347E+03  0.00000000000E+00 0.  1.
</event>
<event>
12    1  0.8053217E-002  0.2451729E+03  0.7818608E-02  0.1118253E+00
         21   -1    0    0  501  502  0.00000000000E+00  0.00000000000E+00  0.46626605035E+03  0.46626605035E+03  0.00000000000E+00 0.  1.
         21   -1    0    0  502  503 -0.00000000000E+00 -0.00000000000E+00 -0.25582174013E+03  0.25582174013E+03  0.00000000000E+00 0.  1.
         -6    2    1    2    0  503  0.51226168917E+01  0.15970644428E+03 -0.15361560353E+03  0.28932250623E+03  0.18594991105E+03 0.  0.
        -24    2    3    3    0    0  0.73206294079E+02  0.13023757149E+03 -0.91220782969E+02  0.19227094677E+03  0.79535521651E+02 0.  0.
          6    2    1    2  501    0 -0.51226168917E+01 -0.15970644428E+03  0.36405991374E+03  0.43276528425E+03  0.17092039348E+03 0.  0.
         24    2    5    5    0    0  0.23974658784E+02 -0.93346024269E+02  0.33750515981E+03  0.35545033258E+03  0.56097607063E+02 0.  0.
          5    1    5    5  501    0 -0.29097275675E+02 -0.66360420008E+02  0.26554753929E+02  0.77314951669E+02  0.47000000000E+01 0. -1.
        -11    1    6    6    0    0  0.19017257085E+02 -0.96523792402E+02  0.26442103756E+03  0.28212937400E+03  0.00000000000E+00 0.  1.
         12    1    6    6    0    0  0.49574016989E+01  0.31777681333E+01  0.73084122248E+02  0.73320958577E+02  0.00000000000E+00 0. -1.
         -5    1    3    3    0  503 -0.68083677187E+02  0.29468872783E+02 -0.62394820559E+02  0.97051559467E+02  0.47000000000E+01 0.  1.
         13    1    4    4    0    0  0.85767096246E+02  0.86467781022E+02 -0.78842438027E+02  0.14508205260E+03  0.00000000000E+00 0. -1.
        -14    1    4    4    0    0 -0.12560802168E+02  0.43769790472E+02 -0.12378344942E+02  0.47188894165E+02  0.00000000000E+00 0.  1.
</event>
<event>
12    1  0.8053217E-002  0.2333967E+03  0.7818608E-02  0.1124349E+00
         21   -1    0    0  503  502  0.00000000000E+00  0.00000000000E+00  0.12421962024E+03  0.12421962024E+03  0.00000000000E+00 0. -1.
         21   -1    0    0  501  503 -0.00000000000E+00 -0.00000000000E+00 -0.46317433808E+03  0.46317433808E+03  0.00000000000E+00 0.  1.
          6    2    1    2  501    0  0.79086137704E+02 -0.13554292815E+03 -0.10074134817E+03  0.25421023899E+03  0.17276435926E+03 0.  0.
         24    2    3    3    0    0  0.66312449840E+02 -0.94736120032E+02 -0.13818930826E+03  0.19717689431E+03  0.80063532833E+02 0.  0.
         -6    2    1    2    0  502 -0.79086137704E+02  0.13554292815E+03 -0.23821336967E+03  0.33318371933E+03  0.17216061917E+03 0.  0.
        -24    2    5    5    0    0 -0.47438729290E+02  0.12897237450E+03 -0.25169105521E+03  0.29785004358E+03  0.80510587938E+02 0.  0.
          5    1    3    3  501    0  0.12773687864E+02 -0.40806808117E+02  0.37447960095E+02  0.57033344682E+02  0.47000000000E+01 0. -1.
        -13    1    4    4    0    0  0.24200847447E+02 -0.14126083039E+02 -0.89980101143E+02  0.94242484267E+02  0.00000000000E+00 0.  1.
         14    1    4    4    0    0  0.42111602393E+02 -0.80610036993E+02 -0.48209207121E+02  0.10293441005E+03  0.00000000000E+00 0. -1.
         -5    1    5    5    0  502 -0.31647408413E+02  0.65705536509E+01  0.13477685539E+02  0.35333675751E+02  0.47000000000E+01 0.  1.
         11    1    6    6    0    0 -0.16536838083E+02  0.35294837807E+02 -0.15604716481E+02  0.41984518171E+02  0.00000000000E+00 0. -1.
        -12    1    6    6    0    0 -0.30901891207E+02  0.93677536691E+02 -0.23608633873E+03  0.25586552541E+03  0.00000000000E+00 0.  1.
</event>
<event>
12    1  0.8053217E-002  0.2398138E+03  0.7818608E-02  0.1120483E+00
         21   -1    0    0  501  502  0.00000000000E+00  0.00000000000E+00  0.14774485827E+03  0.14774485827E+03  0.00000000000E+00 0.  1.
         21   -1    0    0  502  503 -0.00000000000E+00 -0.00000000000E+00 -0.38583691424E+03  0.38583691424E+03  0.00000000000E+00 0.  1.
         -6    2    1    2    0  503  0.14752593570E+03 -0.58207405351E+02 -0.13755486769E+03  0.27354641242E+03  0.17536902344E+03 0.  0.
        -24    2    3    3    0    0  0.50289477643E+02 -0.78077595353E+02 -0.27416239179E+02  0.12521448492E+03  0.79384347359E+02 0.  0.
          6    2    1    2  501    0 -0.14752593570E+03  0.58207405351E+02 -0.10053718829E+03  0.26003536009E+03  0.17988512592E+03 0.  0.
         24    2    5    5    0    0 -0.13584194130E+03  0.10623793762E+03 -0.79764064623E+02  0.20621101223E+03  0.80132035742E+02 0.  0.
          5    1    5    5  501    0 -0.11683994396E+02 -0.48030532274E+02 -0.20773123667E+02  0.53824347859E+02  0.47000000000E+01 0. -1.
        -13    1    6    6    0    0 -0.88460020353E+02  0.47376855939E+02 -0.58651317442E+01  0.10051935858E+03  0.00000000000E+00 0.  1.
         14    1    6    6    0    0 -0.47381920949E+02  0.58861081686E+02 -0.73898932878E+02  0.10569165365E+03  0.00000000000E+00 0. -1.
         -5    1    3    3    0  503  0.97236458054E+02  0.19870190002E+02 -0.11013862851E+03  0.14833192750E+03  0.47000000000E+01 0.  1.
         11    1    4    4    0    0  0.22459304217E+01  0.38713776186E+01  0.18976665946E+02  0.19497323369E+02  0.00000000000E+00 0. -1.
        -12    1    4    4    0    0  0.48043547222E+02 -0.81948972971E+02 -0.46392905125E+02  0.10571716155E+03  0.00000000000E+00 0.  1.
</event>
<event>
12    1  0.8053217E-002  0.2177740E+03  0.7818608E-02  0.1135961E+00
         21   -1    0    0  501  502  0.00000000000E+00  0.00000000000E+00  0.43617211769E+03  0.43617211769E+03  0.00000000000E+00 0.  1.
         21   -1    0    0  502  503 -0.00000000000E+00 -0.00000000000E+00 -0.10991734091E+03  0.10991734091E+03  0.00000000000E+00 0.  1.
         -6    2    1    2    0  503  0.12973027545E+03 -0.27143622559E+02  0.12481226892E+03  0.25100521208E+03  0.17279697163E+03 0.  0.
        -24    2    3    3    0    0  0.57415828965E+02  0.37671792996E+02  0.10992374377E+03  0.15264782576E+03  0.80637384998E+02 0.  0.
          6    2    1    2  501    0 -0.12973027545E+03  0.27143622559E+02  0.20144250786E+03  0.29508424652E+03  0.17008500215E+03 0.  0.
         24    2    5    5    0    0 -0.82567604812E+02 -0.44798232950E+02  0.15097143961E+03  0.19523752997E+03  0.80628943254E+02 0.  0.
          5    1    5    5  501    0 -0.47162670635E+02  0.71941855509E+02  0.50471068246E+02  0.99846716548E+02  0.47000000000E+01 0. -1.
        -13    1    6    6    0    0 -0.56301459930E+02  0.11772065157E+02  0.48312046972E+02  0.75116508112E+02  0.00000000000E+00 0.  1.
         14    1    6    6    0    0 -0.26266144882E+02 -0.56570298107E+02  0.10265939264E+03  0.12012102186E+03  0.00000000000E+00 0. -1.
         -5    1    3    3    0  503  0.72314446482E+02 -0.64815415555E+02  0.14888525145E+02  0.98357386324E+02  0.47000000000E+01 0.  1.
         11    1    4    4    0    0  0.22026178198E+02  0.25597697302E+02 -0.27984089010E+01  0.33885479568E+02  0.00000000000E+00 0. -1.
        -12    1    4    4    0    0  0.35389650766E+02  0.12074095694E+02  0.11272215268E+03  0.11876234619E+03  0.00000000000E+00 0.  1.
</event>
<event>
12    1  0.8053217E-002  0.1969417E+03  0.7818608E-02  0.1152629E+00
         21   -1    0    0  501  502  0.00000000000E+00  0.00000000000E+00  0.13214986127E+03  0.13214986127E+03  0.00000000000E+00 0. -1.
         21   -1    0    0  502  503 -0.00000000000E+00 -0.00000000000E+00 -0.30992628001E+03  0.30992628001E+03  0.00000000000E+00 0. -1.
         -6    2    1    2    0  503 -0.87037596411E+02  0.26750032175E+02 -0.34777408878E+02  0.19869424281E+03  0.17314394747E+03 0.  0.
        -24    2    3    3    0    0  0.16218718319E+02  0.37900002327E+02 -0.75488816233E+00  0.89305896620E+02  0.79218156471E+02 0.  0.
          6    2    1    2  501    0  0.87037596411E+02 -0.26750032175E+02 -0.14299900986E+03  0.24338189848E+03  0.17462795960E+03 0.  0.
         24    2    5    5    0    0 -0.16325059074E+02 -0.75709220886E+01 -0.10134893803E+03  0.13020727545E+03  0.79740208968E+02 0.  0.
          5    1    5    5  501    0  0.10336265548E+03 -0.19179110087E+02 -0.41650071835E+02  0.11317462302E+03  0.47000000000E+01 0. -1.
        -13    1    6    6    0    0 -0.39310472453E+02  0.21162502287E+02 -0.61112092605E+02  0.75682577983E+02  0.00000000000E+00 0.  1.
         14    1    6    6    0    0  0.22985413379E+02 -0.28733424375E+02 -0.40236845424E+02  0.54524697470E+02  0.00000000000E+00 0. -1.
         -5    1    3    3    0  503 -0.10325631473E+03 -0.11149970152E+02 -0.34022520716E+02  0.10938834619E+03  0.47000000000E+01 0.  1.
         11    1    4    4    0    0  0.23740616445E+02 -0.18872833232E+02 -0.85462874032E+01  0.31509359431E+02  0.00000000000E+00 0. -1.
        -12    1    4    4    0    0 -0.75218981253E+01  0.56772835559E+02  0.77913992408E+01  0.57796537189E+02  0.00000000000E+00 0.  1.
</event>
<event>
12    1  0.8053217E-002  0.1908231E+03  0.7818608E-02  0.1160743E+00
         21   -1    0    0  501  502  0.00000000000E+00  0.00000000000E+00  0.13221569104E+04  0.13221569104E+04  0.00000000000E+00 0.  1.
         21   -1    0    0  502  503 -0.00000000000E+00 -0.00000000000E+00 -0.56957757662E+02  0.56957757662E+02  0.00000000000E+00 0.  1.
         -6    2    1    2    0  503 -0.18973766799E+02  0.49846251116E+02  0.11186107256E+03  0.21009705509E+03  0.16965618299E+03 0.  0.
        -24    2    3    3    0    0 -0.57721340145E+00 -0.25630680650E+02  0.10050090972E+03  0.13144374171E+03  0.80745027182E+02 0.  0.
          6    2    1    2  501    0  0.18973766799E+02 -0.49846251116E+02  0.11533380802E+04  0.11690176130E+04  0.18321790219E+03 0.  0.
         24    2    5    5    0    0 -0.32760229260E+02 -0.76547156766E+02  0.96693433662E+03  0.97367742171E+03  0.78441126881E+02 0.  0.
          5    1    5    5  501    0  0.51733996058E+02  0.26700905650E+02  0.18640374356E+03  0.19534019127E+03  0.47000000000E+01 0. -1.
        -11    1    6    6    0    0 -0.56845368077E+02 -0.39132695342E+02  0.64527002101E+03  0.64895004718E+03  0.00000000000E+00 0.  1.
         12    1    6    6    0    0  0.24085138818E+02 -0.37414461423E+02  0.32166431561E+03  0.32472737453E+03  0.00000000000E+00 0. -1.
         -5    1    3    3    0  503 -0.18396553397E+02  0.75476931766E+02  0.11360162843E+02  0.78653313379E+02  0.47000000000E+01 0.  1.
         11    1    4    4    0    0  0.39432680936E+02 -0.10374670811E+02  0.38391557651E+02  0.56004301791E+02  0.00000000000E+00 0. -1.
        -12    1    4    4    0    0 -0.40009894337E+02 -0.15256009839E+02  0.62109352069E+02  0.75439439920E+02  0.00000000000E+00 0.  1.
</event>
<event>
12    1  0.8053217E-002  0.4096717E+03  0.7818608E-02  0.1040602E+00
         21   -1    0    0  503  502  0.00000000000E+00  0.00000000000E+00  0.95463756059E+03  0.95463756059E+03  0.00000000000E+00 0. -1.
         21   -1    0    0  501  503 -0.00000000000E+00 -0.00000000000E+00 -0.17519317788E+03  0.17519317788E+03  0.00000000000E+00 0.  1.
          6    2    1    2  501    0  0.36227005428E+02 -0.36999518115E+03  0.39011511640E+03  0.56466864757E+03  0.16867734736E+03 0.  0.
         24    2    3    3    0    0  0.77397444060E+02 -0.14968226213E+03  0.20031616662E+03  0.27093659512E+03  0.69892260084E+02 0.  0.
         -6    2    1    2    0  502 -0.36227005428E+02  0.36999518115E+03  0.38932926632E+03  0.56516209090E+03  0.17211066610E+03 0.  0.
        -24    2    5    5    0    0 -0.31114576280E+02  0.34461500327E+03  0.40173016888E+03  0.53607321424E+03  0.79118550903E+02 0.  0.
          5    1    3    3  501    0 -0.41170438632E+02 -0.22031291902E+03  0.18979894977E+03  0.29373205246E+03  0.47000000000E+01 0. -1.
        -13    1    4    4    0    0  0.25986394382E+02 -0.34133902404E+02  0.12820415580E+02  0.44774758983E+02  0.00000000000E+00 0.  1.
         14    1    4    4    0    0  0.51411049677E+02 -0.11554835972E+03  0.18749575104E+03  0.22616183613E+03  0.00000000000E+00 0. -1.
         -5    1    5    5    0  502 -0.51124291478E+01  0.25380177885E+02 -0.12400902568E+02  0.29088876667E+02  0.47000000000E+01 0.  1.
         11    1    6    6    0    0  0.19997377063E+02  0.11939054306E+03  0.17193590278E+03  0.21027589383E+03  0.00000000000E+00 0. -1.
        -12    1    6    6    0    0 -0.51111953343E+02  0.22522446020E+03  0.22979426611E+03  0.32579732041E+03  0.00000000000E+00 0.  1.
</event>
<event>
12    1  0.8053217E-002  0.2161367E+03  0.7818608E-02  0.1136973E+00
         21   -1    0    0  503  502  0.00000000000E+00  0.00000000000E+00  0.27439052748E+03  0.27439052748E+03  0.00000000000E+00 0. -1.
         21   -1    0    0  501  503 -0.00000000000E+00 -0.00000000000E+00 -0.24280365361E+03  0.24280365361E+03  0.00000000000E+00 0.  1.
          6    2    1    2  501    0  0.98369673800E+02  0.85443104308E+02 -0.12629498088E+03  0.24953438041E+03  0.17128884382E+03 0.  0.
         24    2    3    3    0    0 -0.17308073519E+02  0.10688329226E+02 -0.45737494659E+02  0.89906011356E+02  0.74681742546E+02 0.  0.
         -6    2    1    2    0  502 -0.98369673800E+02 -0.85443104308E+02  0.15788185475E+03  0.26765980068E+03  0.17244701227E+03 0.  0.
        -24    2    5    5    0    0 -0.12143034848E+03 -0.24895429040E+02  0.13025786763E+03  0.19706950133E+03  0.80648399603E+02 0.  0.
          5    1    3    3  501    0  0.11567774732E+03  0.74754775082E+02 -0.80557486219E+02  0.15962836906E+03  0.47000000000E+01 0. -1.
        -11    1    4    4    0    0  0.19708953072E+02  0.24587128228E+02 -0.29547005193E+01  0.31649643929E+02  0.00000000000E+00 0.  1.
         12    1    4    4    0    0 -0.37017026591E+02 -0.13898799003E+02 -0.42782794140E+02  0.58256367427E+02  0.00000000000E+00 0. -1.
         -5    1    5    5    0  502  0.23060674678E+02 -0.60547675268E+02  0.27623987126E+02  0.70590299345E+02  0.47000000000E+01 0.  1.
         11    1    6    6    0    0 -0.84584698438E+02  0.35958995569E+01  0.36129508535E+02  0.92048047728E+02  0.00000000000E+00 0. -1.
        -12    1    6    6    0    0 -0.36845650040E+02 -0.28491328597E+02  0.94128359092E+02  0.10502145361E+03  0.00000000000E+00 0.  1.
</event>
<event>
12    1  0.8053217E-002  0.2058247E+03  0.7818608E-02  0.1145124E+00
         21   -1    0    0  501  502  0.00000000000E+00  0.00000000000E+00  0.22325439999E+03  0.22325439999E+03  0.00000000000E+00 0.  1.
         21   -1    0    0  502  503 -0.00000000000E+00 -0.00000000000E+00 -0.21583020295E+03  0.21583020295E+03  0.00000000000E+00 0. -1.
         -6    2    1    2    0  503 -0.53644897134E+02  0.99838619554E+02 -0.73972319534E+02  0.21774953055E+03  0.17057968535E+03 0.  0.
        -24    2    3    3    0    0 -0.24032895052E+02  0.13021378693E+03 -0.80872876351E+02  0.17451494781E+03  0.79886385110E+02 0.  0.
          6    2    1    2  501    0  0.53644897134E+02 -0.99838619554E+02  0.81396516575E+02  0.22133507239E+03  0.17180889505E+03 0.  0.
         24    2    5    5    0    0 -0.78884385504E+01 -0.91773827076E+02  0.10383104073E+03  0.15517775872E+03  0.69387239346E+02 0.  0.
          5    1    5    5  501    0  0.61533335685E+02 -0.80647924774E+01 -0.22434524154E+02  0.66157313671E+02  0.47000000000E+01 0. -1.
        -11    1    6    6    0    0  0.72719203291E+01 -0.87553894772E+02  0.10768393859E+03  0.13897624238E+03  0.00000000000E+00 0.  1.
         12    1    6    6    0    0 -0.15160358880E+02 -0.42199323039E+01 -0.38528978585E+01  0.16201516346E+02  0.00000000000E+00 0. -1.
         -5    1    3    3    0  503 -0.29612002082E+02 -0.30375167381E+02  0.69005568169E+01  0.43234582745E+02  0.47000000000E+01 0.  1.
         11    1    4    4    0    0 -0.46217465654E+02  0.88813018161E+02 -0.78955261328E+02  0.12750584150E+03  0.00000000000E+00 0. -1.
        -12    1    4    4    0    0  0.22184570602E+02  0.41400768774E+02 -0.19176150229E+01  0.47009106301E+02  0.00000000000E+00 0.  1.
</event>
<event>
12    1  0.8053217E-002  0.1855716E+03  0.7818608E-02  0.1162574E+00
         21   -1    0    0  503  502  0.00000000000E+00  0.00000000000E+00  0.59041246653E+03  0.59041246653E+03  0.00000000000E+00 0.  1.
         21   -1    0    0  501  503 -0.00000000000E+00 -0.00000000000E+00 -0.33625997744E+03  0.33625997744E+03  0.00000000000E+00 0.  1.
          6    2    1    2  501    0  0.61835383549E+02 -0.32309186224E+02 -0.29423545777E+03  0.34773706505E+03  0.17169468142E+03 0.  0.
         24    2    3    3    0    0 -0.29308798545E+02  0.46814709758E+01 -0.16217281740E+03  0.18300030039E+03  0.79423959838E+02 0.  0.
         -6    2    1    2    0  502 -0.61835383549E+02  0.32309186224E+02  0.54838794686E+03  0.57893537891E+03  0.17195736251E+03 0.  0.
        -24    2    5    5    0    0  0.19268088698E+02  0.57989482781E+02  0.26128656008E+03  0.27945825603E+03  0.78052617042E+02 0.  0.
          5    1    3    3  501    0  0.91144182094E+02 -0.36990657200E+02 -0.13206264038E+03  0.16473676467E+03  0.47000000000E+01 0. -1.
        -11    1    4    4    0    0  0.45855808809E+01 -0.32682319834E+02 -0.80519054317E+02  0.87019995920E+02  0.00000000000E+00 0.  1.
         12    1    4    4    0    0 -0.33894379426E+02  0.37363790810E+02 -0.81653763080E+02  0.95980304467E+02  0.00000000000E+00 0. -1.
         -5    1    5    5    0  502 -0.81103472247E+02 -0.25680296556E+02  0.28710138678E+03  0.29947712288E+03  0.47000000000E+01 0.  1.
         13    1    6    6    0    0  0.14376826341E+02 -0.17904001194E+02  0.55082477924E+02  0.59676844493E+02  0.00000000000E+00 0. -1.
        -14    1    6    6    0    0  0.48912623570E+01  0.75893483975E+02  0.20620408216E+03  0.21978141154E+03  0.00000000000E+00 0.  1.
</event>
<event>
12    1  0.8053217E-002  0.1898689E+03  0.7818608E-02  0.1159341E+00
         21   -1    0    0  503  502  0.00000000000E+00  0.00000000000E+00  0.17604344333E+03  0.17604344333E+03  0.00000000000E+00 0.  1.
         21   -1    0    0  501  503 -0.00000000000E+00 -0.00000000000E+00 -0.20142351718E+03  0.20142351718E+03  0.00000000000E+00 0.  1.
          6    2    1    2  501    0 -0.68158915876E+02  0.32721420780E+02 -0.18963598747E+02  0.18748969034E+03  0.17051814189E+03 0.  0.
         24    2    3    3    0    0 -0.20790714184E+02  0.78847351682E+02  0.88818585649E+01  0.11559527104E+03  0.81450725052E+02 0.  0.
         -6    2    1    2    0  502  0.68158915876E+02 -0.32721420780E+02 -0.64164751112E+01  0.18997727017E+03  0.17416619316E+03 0.  0.
        -24    2    5    5    0    0  0.90959205245E+02 -0.14279715477E+02  0.45768772168E+02  0.12993278897E+03  0.79437156608E+02 0.  0.
          5    1    3    3  501    0 -0.47368201691E+02 -0.46125930902E+02 -0.27845457312E+02  0.71894419297E+02  0.47000000000E+01 0. -1.
        -13    1    4    4    0    0 -0.44557799204E+02  0.17747048724E+02 -0.60907869211E+01  0.48347211850E+02  0.00000000000E+00 0.  1.
         14    1    4    4    0    0  0.23767085020E+02  0.61100302958E+02  0.14972645486E+02  0.67248059189E+02  0.00000000000E+00 0. -1.
         -5    1    5    5    0  502 -0.22800289370E+02 -0.18441705303E+02 -0.52185247279E+02  0.60044481207E+02  0.47000000000E+01 0.  1.
         13    1    6    6    0    0  0.37759012802E+02  0.27431500442E+02  0.41067215428E+02  0.62167084918E+02  0.00000000000E+00 0. -1.
        -14    1    6    6    0    0  0.53200192444E+02 -0.41711215919E+02  0.47015567400E+01  0.67765704049E+02  0.00000000000E+00 0.  1.
</event>
<event>
12    1  0.8053217E-002  0.1807598E+03  0.7818608E-02  0.1168384E+00
         21   -1    0    0  503  502  0.00000000000E+00  0.00000000000E+00  0.17200951777E+03  0.17200951777E+03  0.00000000000E+00 0. -1.
         21   -1    0    0  501  503 -0.00000000000E+00 -0.00000000000E+00 -0.74946221739E+03  0.74946221739E+03  0.00000000000E+00 0. -1.
          6    2    1    2  501    0 -0.22585799960E+01 -0.42324898421E+02 -0.68986405851E+03  0.71315253410E+03  0.17572028753E+03 0.  0.
         24    2    3    3    0    0  0.73400343628E+01  0.37880657276E+02 -0.47399808083E+03  0.48261994447E+03  0.82213197610E+02 0.  0.
         -6    2    1    2    0  502  0.22585799960E+01  0.42324898421E+02  0.11241135890E+03  0.20831920106E+03  0.17018835951E+03 0.  0.
        -24    2    5    5    0    0 -0.20986728828E+02 -0.27434019371E+02  0.10678877158E+03  0.13442498964E+03  0.73980861708E+02 0.  0.
          5    1    3    3  501    0 -0.95986143587E+01 -0.80205555697E+02 -0.21586597768E+03  0.23053258963E+03  0.47000000000E+01 0. -1.
        -13    1    4    4    0    0 -0.33367955437E+02  0.37358378491E+02 -0.25701993293E+03  0.26185552279E+03  0.00000000000E+00 0.  1.
         14    1    4    4    0    0  0.40707989800E+02  0.52227878454E+00 -0.21697814791E+03  0.22076442168E+03  0.00000000000E+00 0. -1.
         -5    1    5    5    0  502  0.23245308824E+02  0.69758917792E+02  0.56225873225E+01  0.73894211424E+02  0.47000000000E+01 0.  1.
         13    1    6    6    0    0  0.47619136195E+01 -0.14055528974E+02  0.10424593130E+03  0.10529695109E+03  0.00000000000E+00 0. -1.
        -14    1    6    6    0    0 -0.25748642447E+02 -0.13378490396E+02  0.25428402777E+01  0.29128038551E+02  0.00000000000E+00 0.  1.
</event>
<event>
12    1  0.8053217E-002  0.1793363E+03  0.7818608E-02  0.1168551E+00
         21   -1    0    0  501  502  0.00000000000E+00  0.00000000000E+00  0.26397773045E+03  0.26397773045E+03  0.00000000000E+00 0. -1.
         21   -1    0    0  502  503 -0.00000000000E+00 -0.00000000000E+00 -0.13076640595E+03  0.13076640595E+03  0.00000000000E+00 0. -1.
         -6    2    1    2    0  503  0.51325922255E+02 -0.65869972867E+01  0.14266591717E+02  0.17990282708E+03  0.17170833621E+03 0.  0.
        -24    2    3    3    0    0  0.61140395979E+02 -0.64995194158E+02  0.13678781447E+02  0.12048669394E+03  0.79796059243E+02 0.  0.
          6    2    1    2  501    0 -0.51325922255E+02  0.65869972867E+01  0.11894473279E+03  0.21484130932E+03  0.17126353933E+03 0.  0.
         24    2    5    5    0    0 -0.70321609143E+02  0.46352798400E+02  0.12652889598E+03  0.16987727269E+03  0.75861819292E+02 0.  0.
          5    1    5    5  501    0  0.18995686888E+02 -0.39765801114E+02 -0.75841631934E+01  0.44964036628E+02  0.47000000000E+01 0. -1.
        -11    1    6    6    0    0 -0.88083538703E+01 -0.19331531084E+02  0.38605936314E+02  0.44064878425E+02  0.00000000000E+00 0.  1.
         12    1    6    6    0    0 -0.61513255273E+02  0.65684329484E+02  0.87922959668E+02  0.12581239427E+03  0.00000000000E+00 0. -1.
         -5    1    3    3    0  503 -0.98144737233E+01  0.58408196872E+02  0.58781026948E+00  0.59416133139E+02  0.47000000000E+01 0.  1.
         13    1    4    4    0    0  0.16092604157E+02 -0.70948092641E+02  0.17691296650E+02  0.74870459696E+02  0.00000000000E+00 0. -1.
        -14    1    4    4    0    0  0.45047791822E+02  0.59528984828E+01 -0.40125152026E+01  0.45616234244E+02  0.00000000000E+00 0.  1.
</event>
<event>
12    1  0.8053217E-002  0.1799449E+03  0.7818608E-02  0.1167926E+00
         21   -1    0    0  503  502  0.00000000000E+00  0.00000000000E+00  0.29107414002E+03  0.29107414002E+03  0.00000000000E+00 0. -1.
         21   -1    0    0  501  503 -0.00000000000E+00 -0.00000000000E+00 -0.15315305736E+03  0.15315305736E+03  0.00000000000E+00 0. -1.
          6    2    1    2  501    0  0.42494718814E+02 -0.30400944279E+02 -0.47513023002E+02  0.18583608239E+03  0.17189398949E+03 0.  0.
         24    2    3    3    0    0  0.10123706116E+02 -0.43947272954E+02  0.33713336740E+02  0.97229101851E+02  0.79265736274E+02 0.  0.
         -6    2    1    2    0  502 -0.42494718814E+02  0.30400944279E+02  0.18543410566E+03  0.25839111499E+03  0.17219216656E+03 0.  0.
        -24    2    5    5    0    0 -0.46927369476E+02  0.65966446666E+02  0.18995958855E+03  0.22196141080E+03  0.81415431635E+02 0.  0.
          5    1    3    3  501    0  0.32371012698E+02  0.13546328675E+02 -0.81226359742E+02  0.88606980541E+02  0.47000000000E+01 0. -1.
        -11    1    4    4    0    0  0.27231995739E+02 -0.56593029853E+02  0.71699275021E+01  0.63212027972E+02  0.00000000000E+00 0.  1.
         12    1    4    4    0    0 -0.17108289623E+02  0.12645756899E+02  0.26543409238E+02  0.34017073880E+02  0.00000000000E+00 0. -1.
         -5    1    5    5    0  502  0.44326506623E+01 -0.35565502387E+02 -0.45254828960E+01  0.36429704190E+02  0.47000000000E+01 0.  1.
         13    1    6    6    0    0 -0.55487141025E+02  0.58733430848E+02  0.19391692663E+03  0.21007668398E+03  0.00000000000E+00 0. -1.
        -14    1    6    6    0    0  0.85597715493E+01  0.72330158174E+01 -0.39573380796E+01  0.11884726815E+02  0.00000000000E+00 0.  1.
</event>
<event>
12    1  0.8053217E-002  0.3008096E+03  0.7818608E-02  0.1084876E+00
         21   -1    0    0  501  502  0.00000000000E+00  0.00000000000E+00  0.12383122974E+03  0.12383122974E+03  0.00000000000E+00 0.  1.
         21   -1    0    0  502  503 -0.00000000000E+00 -0.00000000000E+00 -0.77675034482E+03  0.77675034482E+03  0.00000000000E+00 0. -1.
         -6    2    1    2    0  503  0.68574227185E+02  0.23656363280E+03 -0.21578654037E+03  0.36994865316E+03  0.17214353887E+03 0.  0.
        -24    2    3    3    0    0 -0.69138893555E+00  0.20151114106E+03 -0.12793044085E+03  0.25261499654E+03  0.82709859083E+02 0.  0.
          6    2    1    2  501    0 -0.68574227185E+02 -0.23656363280E+03 -0.43713257471E+03  0.53063292140E+03  0.17268941023E+03 0.  0.
         24    2    5    5    0    0 -0.54959099259E+02 -0.47625750684E+02 -0.11384980303E+03  0.15591071033E+03  0.77830952880E+02 0.  0.
          5    1    5    5  501    0 -0.13615127926E+02 -0.18893788211E+03 -0.32328277168E+03  0.37472221107E+03  0.47000000000E+01 0. -1.
        -13    1    6    6    0    0 -0.50775373878E+02 -0.68039048976E+02 -0.83358706814E+02  0.11897951412E+03  0.00000000000E+00 0.  1.
         14    1    6    6    0    0 -0.41837253813E+01  0.20413298292E+02 -0.30491096217E+02  0.36931196213E+02  0.00000000000E+00 0. -1.
         -5    1    3    3    0  503  0.69265616120E+02  0.35052491735E+02 -0.87856099525E+02  0.11733365663E+03  0.47000000000E+01 0.  1.
         11    1    4    4    0    0 -0.80783729755E+01 -0.59933753490E+01 -0.78259805794E+01  0.12744670652E+02  0.00000000000E+00 0. -1.
        -12    1    4    4    0    0  0.73869840400E+01  0.20750451641E+03 -0.12010446027E+03  0.23987032588E+03  0.00000000000E+00 0.  1.
</event>
<event>
12    1  0.8053217E-002  0.3230365E+03  0.7818608E-02  0.1074397E+00
         21   -1    0    0  503  502  0.00000000000E+00  0.00000000000E+00  0.75664558607E+02  0.75664558607E+02  0.00000000000E+00 0.  1.
         21   -1    0    0  501  503 -0.00000000000E+00 -0.00000000000E+00 -0.14865028608E+04  0.14865028608E+04  0.00000000000E+00 0. -1.
          6    2    1    2  501    0 -0.27059486420E+03  0.40822520492E+02 -0.91907166818E+03  0.97379082976E+03  0.16937470342E+03 0.  0.
         24    2    3    3    0    0 -0.99732170131E+02  0.48200934709E+02 -0.26988718948E+03  0.30244063902E+03  0.79758442932E+02 0.  0.
         -6    2    1    2    0  502  0.27059486420E+03 -0.40822520492E+02 -0.49176663403E+03  0.58837658966E+03  0.17165235276E+03 0.  0.
        -24    2    5    5    0    0  0.27265363963E+03 -0.46514364028E+02 -0.50016762263E+03  0.57700547500E+03  0.79145904414E+02 0.  0.
          5    1    3    3  501    0 -0.17086269407E+03 -0.73784142172E+01 -0.64918447870E+03  0.67135019074E+03  0.47000000000E+01 0. -1.
        -13    1    4    4    0    0 -0.81220684332E+02  0.63960535735E+02 -0.25162358327E+03  0.27203341220E+03  0.00000000000E+00 0.  1.
         14    1    4    4    0    0 -0.18511485799E+02 -0.15759601026E+02 -0.18263606205E+02  0.30407226816E+02  0.00000000000E+00 0. -1.
         -5    1    5    5    0  502 -0.20587754327E+01  0.56918435365E+01  0.84009886038E+01  0.11371114662E+02  0.47000000000E+01 0.  1.
         11    1    6    6    0    0  0.15409704756E+03  0.77847940640E+01 -0.31205261155E+03  0.34811396907E+03  0.00000000000E+00 0. -1.
        -12    1    6    6    0    0  0.11855659208E+03 -0.54299158092E+02 -0.18811501108E+03  0.22889150593E+03  0.00000000000E+00 0.  1.
</event>
<event>
12    1  0.8053217E-002  0.1963723E+03  0.7818608E-02  0.1154724E+00
         21   -1    0    0  501  502  0.00000000000E+00  0.00000000000E+00  0.36224536902E+02  0.36224536902E+02  0.00000000000E+00 0. -1.
         21   -1    0    0  502  503 -0.00000000000E+00 -0.00000000000E+00 -0.10936244777E+04  0.10936244777E+04  0.00000000000E+00 0.  1.
         -6    2    1    2    0  503  0.39761286637E+02 -0.85309930520E+02 -0.68739882129E+03  0.71489804974E+03  0.17234656320E+03 0.  0.
        -24    2    3    3    0    0 -0.29700992842E+02  0.26574992761E+01 -0.22507552003E+03  0.23915841311E+03  0.75156806502E+02 0.  0.
          6    2    1    2  501    0 -0.39761286637E+02  0.85309930520E+02 -0.37000111954E+03  0.41495096489E+03  0.16255685358E+03 0.  0.
         24    2    5    5    0    0 -0.49383918552E+02 -0.22950562690E+01 -0.23743037291E+03  0.25568916276E+03  0.80992143332E+02 0.  0.
          5    1    5    5  501    0  0.96226319151E+01  0.87604986789E+02 -0.13257074663E+03  0.15926180213E+03  0.47000000000E+01 0. -1.
        -13    1    6    6    0    0 -0.64068209601E+02  0.77017757702E+01 -0.22483714454E+03  0.23391407482E+03  0.00000000000E+00 0.  1.
         14    1    6    6    0    0  0.14684291049E+02 -0.99968320392E+01 -0.12593228362E+02  0.21775087945E+02  0.00000000000E+00 0. -1.
         -5    1    3    3    0  503  0.69462279479E+02 -0.87967429796E+02 -0.46232330126E+03  0.47573963663E+03  0.47000000000E+01 0.  1.
         13    1    4    4    0    0 -0.26927712962E+01  0.23287829700E+02 -0.18657495719E+02  0.29961244565E+02  0.00000000000E+00 0. -1.
        -14    1    4    4    0    0 -0.27008221546E+02 -0.20630330423E+02 -0.20641802431E+03  0.20919716854E+03  0.00000000000E+00 0.  1.
</event>
<event>
12    1  0.8053217E-002  0.1993522E+03  0.7818608E-02  0.1151031E+00
         21   -1    0    0  503  502  0.00000000000E+00  0.00000000000E+00  0.39862712927E+03  0.39862712927E+03  0.00000000000E+00 0.  1.
         21   -1    0    0  501  503 -0.00000000000E+00 -0.00000000000E+00 -0.13806162336E+03  0.13806162336E+03  0.00000000000E+00 0.  1.
          6    2    1    2  501    0 -0.84417967100E+02 -0.54822780986E+02 -0.13516748582E+02  0.19980992960E+03  0.17207374869E+03 0.  0.
         24    2    3    3    0    0 -0.88048657772E+02 -0.19198484407E+02 -0.65682931586E+02  0.13636173758E+03  0.78480112352E+02 0.  0.
         -6    2    1    2    0  502  0.84417967100E+02  0.54822780986E+02  0.27408225449E+03  0.33687882303E+03  0.16803073736E+03 0.  0.
        -24    2    5    5    0    0 -0.94549956226E+01  0.16973397099E+02  0.68175621597E+02  0.10739169821E+03  0.80669500514E+02 0.  0.
          5    1    3    3  501    0  0.36306906716E+01 -0.35624296579E+02  0.52166183004E+02  0.63448192020E+02  0.47000000000E+01 0. -1.
        -11    1    4    4    0    0 -0.99828857602E+02 -0.29232560422E+02 -0.57588509955E+02  0.11889819123E+03  0.00000000000E+00 0.  1.
         12    1    4    4    0    0  0.11780199830E+02  0.10034076016E+02 -0.80944216304E+01  0.17463546348E+02  0.00000000000E+00 0. -1.
         -5    1    5    5    0  502  0.93872962723E+02  0.37849383887E+02  0.20590663289E+03  0.22948712482E+03  0.47000000000E+01 0.  1.
         13    1    6    6    0    0  0.61178274838E+01 -0.29805833208E+02  0.41118093393E+02  0.51151863217E+02  0.00000000000E+00 0. -1.
        -14    1    6    6    0    0 -0.15572823106E+02  0.46779230307E+02  0.27057528205E+02  0.56239834994E+02  0.00000000000E+00 0.  1.
</event>
<event>
12    1  0.8053217E-002  0.2342131E+03  0.7818608E-02  0.1123875E+00
         21   -1    0    0  501  502  0.00000000000E+00  0.00000000000E+00  0.15197800204E+04  0.15197800204E+04  0.00000000000E+00 0. -1.
         21   -1    0    0  502  503 -0.00000000000E+00 -0.00000000000E+00 -0.63054340145E+02  0.63054340145E+02  0.00000000000E+00 0.  1.
         -6    2    1    2    0  503 -0.91163188273E+02  0.12691465699E+03  0.21030326862E+03  0.31477492158E+03  0.17446412069E+03 0.  0.
        -24    2    3    3    0    0  0.19430529595E+02  0.68630685536E+02  0.83739845180E+02  0.13681879802E+03  0.81359113456E+02 0.  0.
          6    2    1    2  501    0  0.91163188273E+02 -0.12691465699E+03  0.12464224116E+04  0.12680594390E+04  0.17317001895E+03 0.  0.
         24    2    5    5    0    0  0.15112609317E+02 -0.23188042632E+02  0.28398636480E+03  0.29705576475E+03  0.82630476813E+02 0.  0.
          5    1    5    5  501    0  0.76050578957E+02 -0.10372661436E+03  0.96243604684E+03  0.97100367422E+03  0.47000000000E+01 0. -1.
        -13    1    6    6    0    0  0.10711218304E+00 -0.28527030489E+02  0.26060890293E+02  0.38639008067E+02  0.00000000000E+00 0.  1.
         14    1    6    6    0    0  0.15005497134E+02  0.53389878575E+01  0.25792547451E+03  0.25841675668E+03  0.00000000000E+00 0. -1.
         -5    1    3    3    0  503 -0.11059371787E+03  0.58283971459E+02  0.12656342344E+03  0.17795612356E+03  0.47000000000E+01 0.  1.
         13    1    4    4    0    0  0.24867894120E+02 -0.78801682649E+01  0.43846607772E+01  0.26452494400E+02  0.00000000000E+00 0. -1.
        -14    1    4    4    0    0 -0.54373645253E+01  0.76510853801E+02  0.79355184402E+02  0.11036630362E+03  0.00000000000E+00 0.  1.
</event>
<event>
12    1  0.8053217E-002  0.1771746E+03  0.7818608E-02  0.1170878E+00
         21   -1    0    0  501  502  0.00000000000E+00  0.00000000000E+00  0.33365079449E+03  0.33365079449E+03  0.00000000000E+00 0. -1.
         21   -1    0    0  502  503 -0.00000000000E+00 -0.00000000000E+00 -0.96953992733E+02  0.96953992733E+02  0.00000000000E+00 0. -1.
         -6    2    1    2    0  503 -0.43044428544E+02  0.20072123650E+01  0.76816248648E+02  0.19195729282E+03  0.17055795050E+03 0.  0.
        -24    2    3    3    0    0 -0.56122867702E+02 -0.57287189049E+02  0.34750373430E+02  0.11794040645E+03  0.79188084400E+02 0.  0.
          6    2    1    2  501    0  0.43044428544E+02 -0.20072123650E+01  0.15988055311E+03  0.23864749441E+03  0.17185454197E+03 0.  0.
         24    2    5    5    0    0  0.60576320951E+02 -0.58493386650E+02  0.12074537099E+03  0.16757212866E+03  0.80062517737E+02 0.  0.
          5    1    5    5  501    0 -0.17531892407E+02  0.56486174285E+02  0.39135182119E+02  0.71075365748E+02  0.47000000000E+01 0. -1.
        -13    1    6    6    0    0 -0.77682188046E+01 -0.17709129608E+02  0.71297644798E+02  0.73873626204E+02  0.00000000000E+00 0.  1.
         14    1    6    6    0    0  0.68344539756E+02 -0.40784257042E+02  0.49447726193E+02  0.93698502456E+02  0.00000000000E+00 0. -1.
         -5    1    3    3    0  503  0.13078439158E+02  0.59294401414E+02  0.42065875218E+02  0.74016886369E+02  0.47000000000E+01 0.  1.
         13    1    4    4    0    0 -0.57537232043E+02 -0.11526615947E+02 -0.27723900605E+01  0.58745911287E+02  0.00000000000E+00 0. -1.
        -14    1    4    4    0    0  0.14143643406E+01 -0.45760573103E+02  0.37522763490E+02  0.59194495159E+02  0.00000000000E+00 0.  1.
</event>
<event>
12    1  0.8053217E-002  0.1910568E+03  0.7818608E-02  0.1157602E+00
         21   -1    0    0  503  502  0.00000000000E+00  0.00000000000E+00  0.15175274736E+03  0.15175274736E+03  0.00000000000E+00 0.  1.
         21   -1    0    0  501  503 -0.00000000000E+00 -0.00000000000E+00 -0.24028210077E+03  0.24028210077E+03  0.00000000000E+00 0.  1.
          6    2    1    2  501    0  0.64082659995E+02  0.52686000921E+02 -0.50628536477E+02  0.19765108628E+03  0.17210549438E+03 0.  0.
         24    2    3    3    0    0 -0.13397176076E+02  0.58727679655E+02  0.84411117403E+01  0.99922174383E+02  0.79276502708E+02 0.  0.
         -6    2    1    2    0  502 -0.64082659995E+02 -0.52686000921E+02 -0.37900816930E+02  0.19438376185E+03  0.17165713776E+03 0.  0.
        -24    2    5    5    0    0  0.10528487476E+01 -0.63864641568E+02  0.22123354878E+02  0.10498248833E+03  0.80324834843E+02 0.  0.
          5    1    3    3  501    0  0.77479836071E+02 -0.60416787341E+01 -0.59069648217E+02  0.97728911894E+02  0.47000000000E+01 0. -1.
        -11    1    4    4    0    0 -0.26251025972E+02  0.61108136031E+02 -0.19302963067E+02  0.69252617546E+02  0.00000000000E+00 0.  1.
         12    1    4    4    0    0  0.12853849896E+02 -0.23804563763E+01  0.27744074807E+02  0.30669556837E+02  0.00000000000E+00 0. -1.
         -5    1    5    5    0  502 -0.65135508743E+02  0.11178640648E+02 -0.60024171809E+02  0.89401273521E+02  0.47000000000E+01 0.  1.
         11    1    6    6    0    0 -0.42761864296E+01 -0.41554805185E+02 -0.27706244796E+02  0.50127074571E+02  0.00000000000E+00 0. -1.
        -12    1    6    6    0    0  0.53290351772E+01 -0.22309836383E+02  0.49829599674E+02  0.54855413763E+02  0.00000000000E+00 0.  1.
</event>
<event>
12    1  0.8053217E-002  0.1868557E+03  0.7818608E-02  0.1161637E+00
         21   -1    0    0  503  502  0.00000000000E+00  0.00000000000E+00  0.82324118860E+03  0.82324118860E+03  0.00000000000E+00 0.  1.
         21   -1    0    0  501  503 -0.00000000000E+00 -0.00000000000E+00 -0.42166631320E+02  0.42166631320E+02  0.00000000000E+00 0.  1.
          6    2    1    2  501    0  0.63137863836E+02  0.30815831090E+02  0.37602115971E+03  0.41988923462E+03  0.17314459710E+03 0.  0.
         24    2    3    3    0    0  0.25473442203E+02 -0.49386654149E+02  0.16057064718E+03  0.18688266681E+03  0.77809128969E+02 0.  0.
         -6    2    1    2    0  502 -0.63137863836E+02 -0.30815831090E+02  0.40505339757E+03  0.44551858530E+03  0.17170483298E+03 0.  0.
        -24    2    5    5    0    0 -0.99671658566E+02 -0.37001861942E+02  0.37367487684E+03  0.39673655276E+03  0.80395282254E+02 0.  0.
          5    1    3    3  501    0  0.37664421633E+02  0.80202485240E+02  0.21545051253E+03  0.23300656781E+03  0.47000000000E+01 0. -1.
        -11    1    4    4    0    0  0.19581687043E+02 -0.27410797435E+01  0.12840028366E+03  0.12991377460E+03  0.00000000000E+00 0.  1.
         12    1    4    4    0    0  0.58917551602E+01 -0.46645574406E+02  0.32170363517E+02  0.56968892208E+02  0.00000000000E+00 0. -1.
         -5    1    5    5    0  502  0.36533794730E+02  0.61860308519E+01  0.31378520729E+02  0.48782032534E+02  0.47000000000E+01 0.  1.
         13    1    6    6    0    0 -0.57532471493E+02 -0.10103308474E+01  0.29465606032E+03  0.30022191781E+03  0.00000000000E+00 0. -1.
        -14    1    6    6    0    0 -0.42139187072E+02 -0.35991531095E+02  0.79018816517E+02  0.96514634959E+02  0.00000000000E+00 0.  1.
</event>
<event>
12    1  0.8053217E-002  0.1764609E+03  0.7818608E-02  0.1171657E+00
         21   -1    0    0  501  502  0.00000000000E+00  0.00000000000E+00  0.97435031383E+02  0.97435031383E+02  0.00000000000E+00 0. -1.
         21   -1    0    0  502  503 -0.00000000000E+00 -0.00000000000E+00 -0.67789774141E+03  0.67789774141E+03  0.00000000000E+00 0.  1.
         -6    2    1    2    0  503  0.26830891134E+02  0.13260584912E+02 -0.57375943039E+03  0.60028187404E+03  0.17390429699E+03 0.  0.
        -24    2    3    3    0    0 -0.22525970939E+02  0.58679070533E+02 -0.25815694608E+03  0.27759633552E+03  0.80399402976E+02 0.  0.
          6    2    1    2  501    0 -0.26830891134E+02 -0.13260584912E+02 -0.67032796385E+01  0.17505089875E+03  0.17234309782E+03 0.  0.
         24    2    5    5    0    0 -0.19765654960E+02 -0.70346117530E+02 -0.31418247275E+02  0.11226877373E+03  0.79233287994E+02 0.  0.
          5    1    5    5  501    0 -0.70652361737E+01  0.57085532619E+02  0.24714967637E+02  0.62782125018E+02  0.47000000000E+01 0. -1.
        -13    1    6    6    0    0  0.18406228634E+02  0.78378983698E+01 -0.75854159568E+00  0.20019922296E+02  0.00000000000E+00 0.  1.
         14    1    6    6    0    0 -0.38171883594E+02 -0.78184015900E+02 -0.30659705679E+02  0.92248851438E+02  0.00000000000E+00 0. -1.
         -5    1    3    3    0  503  0.49356862073E+02 -0.45418485622E+02 -0.31560248431E+03  0.32268553852E+03  0.47000000000E+01 0.  1.
         13    1    4    4    0    0 -0.32160126275E+02 -0.92203080945E+01 -0.82261334458E+02  0.88804363352E+02  0.00000000000E+00 0. -1.
        -14    1    4    4    0    0  0.96341553366E+01  0.67899378628E+02 -0.17589561162E+03  0.18879197217E+03  0.00000000000E+00 0.  1.
</event>
<event>
12    1  0.8053217E-002  0.1988780E+03  0.7818608E-02  0.1153030E+00
         21   -1    0    0  503  502  0.00000000000E+00  0.00000000000E+00  0.19828178593E+03  0.19828178593E+03  0.00000000000E+00 0.  1.
         21   -1    0    0  501  503 -0.00000000000E+00 -0.00000000000E+00 -0.70774551416E+03  0.70774551416E+03  0.00000000000E+00 0. -1.
          6    2    1    2  501    0  0.15453651975E+02  0.75657162600E+02 -0.64069182099E+03  0.66775590713E+03  0.17160746024E+03 0.  0.
         24    2    3    3    0    0  0.21371373018E+02  0.11079405870E+03 -0.59087989890E+03  0.60633165726E+03  0.75940533602E+02 0.  0.
         -6    2    1    2    0  502 -0.15453651975E+02 -0.75657162600E+02  0.13122809277E+03  0.23827139295E+03  0.18327471936E+03 0.  0.
        -24    2    5    5    0    0 -0.26196417789E+02  0.18120890940E+02  0.10694918870E+03  0.14069431816E+03  0.85686306991E+02 0.  0.
          5    1    3    3  501    0 -0.59177210430E+01 -0.35136896100E+02 -0.49811922095E+02  0.61424249875E+02  0.47000000000E+01 0. -1.
        -11    1    4    4    0    0 -0.20284803824E+02  0.12615566314E+02 -0.55339407957E+02  0.60275001888E+02  0.00000000000E+00 0.  1.
         12    1    4    4    0    0  0.41656176842E+02  0.98178492385E+02 -0.53554049094E+03  0.54605665537E+03  0.00000000000E+00 0. -1.
         -5    1    5    5    0  502  0.10742765814E+02 -0.93778053539E+02  0.24278904073E+02  0.97577074797E+02  0.47000000000E+01 0.  1.
         11    1    6    6    0    0 -0.57059153026E+02  0.33151610472E+01  0.68612864459E+02  0.89299845498E+02  0.00000000000E+00 0. -1.
        -12    1    6    6    0    0  0.30862735237E+02  0.14805729892E+02  0.38336324237E+02  0.51394472659E+02  0.00000000000E+00 0.  1.
</event>
<event>
12    1  0.8053217E-002  0.1934034E+03  0.7818608E-02  0.1155609E+00
         21   -1    0    0  503  502  0.00000000000E+00  0.00000000000E+00  0.57620178741E+03  0.57620178741E+03  0.00000000000E+00 0.  1.
         21   -1    0    0  501  503 -0.00000000000E+00 -0.00000000000E+00 -0.68183470743E+02  0.68183470743E+02  0.00000000000E+00 0.  1.
          6    2    1    2  501    0 -0.41153714413E+02 -0.78547819028E+02  0.18107563853E+03  0.26494008149E+03  0.17187632713E+03 0.  0.
         24    2    3    3    0    0 -0.72632975256E+01 -0.51309676035E+02  0.20328712831E+02  0.98350343172E+02  0.81080793601E+02 0.  0.
         -6    2    1    2    0  502  0.41153714413E+02  0.78547819028E+02  0.32694267813E+03  0.37944517666E+03  0.17094952244E+03 0.  0.
        -24    2    5    5    0    0  0.60892297515E+01 -0.22374359657E+02  0.16238956693E+03  0.18319375465E+03  0.81559117243E+02 0.  0.
          5    1    3    3  501    0 -0.33890416888E+02 -0.27238142993E+02  0.16074692570E+03  0.16658973832E+03  0.47000000000E+01 0. -1.
        -11    1    4    4    0    0  0.18804599776E+02 -0.64335694720E+02  0.15728415214E+02  0.68848221712E+02  0.00000000000E+00 0.  1.
         12    1    4    4    0    0 -0.26067897301E+02  0.13026018684E+02  0.46002976170E+01  0.29502121460E+02  0.00000000000E+00 0. -1.
         -5    1    5    5    0  502  0.35064484662E+02  0.10092217869E+03  0.16455311120E+03  0.19625142201E+03  0.47000000000E+01 0.  1.
         13    1    6    6    0    0  0.19373451776E+01 -0.15169129314E+02  0.17073144560E+03  0.17141494190E+03  0.00000000000E+00 0. -1.
        -14    1    6    6    0    0  0.41518845739E+01 -0.72052303436E+01 -0.83418786743E+01  0.11778812743E+02  0.00000000000E+00 0.  1.
</event>
<event>
12    1  0.8053217E-002  0.1912389E+03  0.7818608E-02  0.1158273E+00
         21   -1    0    0  501  502  0.00000000000E+00  0.00000000000E+00  0.26853385930E+03  0.26853385930E+03  0.00000000000E+00 0. -1.
         21   -1    0    0  502  503 -0.00000000000E+00 -0.00000000000E+00 -0.15934549679E+03  0.15934549679E+03  0.00000000000E+00 0. -1.
         -6    2    1    2    0  503 -0.19909500628E+02 -0.69630926328E+02 -0.32392300742E+02  0.18993524843E+03  0.17257254513E+03 0.  0.
        -24    2    3    3    0    0 -0.45620198147E+02 -0.10650739587E+03 -0.31666787066E+02  0.14472982461E+03  0.80739760183E+02 0.  0.
          6    2    1    2  501    0  0.19909500628E+02  0.69630926328E+02  0.14158066325E+03  0.23794410766E+03  0.17699564980E+03 0.  0.
         24    2    5    5    0    0  0.68991005810E+02  0.22164775980E+02  0.39471746549E+02  0.11501994222E+03  0.80128223212E+02 0.  0.
          5    1    5    5  501    0 -0.49081505183E+02  0.47466150349E+02  0.10210891670E+03  0.12292416544E+03  0.47000000000E+01 0. -1.
        -11    1    6    6    0    0  0.33100520959E+02 -0.28045958577E+02  0.29590354669E+02  0.52514849040E+02  0.00000000000E+00 0.  1.
         12    1    6    6    0    0  0.35890484851E+02  0.50210734557E+02  0.98813918795E+01  0.62505093177E+02  0.00000000000E+00 0. -1.
         -5    1    3    3    0  503  0.25710697519E+02  0.36876469541E+02 -0.72551367597E+00  0.45205423821E+02  0.47000000000E+01 0.  1.
         13    1    4    4    0    0 -0.26909367507E+02 -0.47280614169E+01  0.15045768893E+02  0.31190443824E+02  0.00000000000E+00 0. -1.
        -14    1    4    4    0    0 -0.18710830640E+02 -0.10177933445E+03 -0.46712555959E+02  0.11353938079E+03  0.00000000000E+00 0.  1.
</event>
<event>
12    1  0.8053217E-002  0.1841108E+03  0.7818608E-02  0.1163919E+00
         21   -1    0    0  501  502  0.00000000000E+00  0.00000000000E+00  0.84119914283E+03  0.84119914283E+03  0.00000000000E+00 0. -1.
         21   -1    0    0  502  503 -0.00000000000E+00 -0.00000000000E+00 -0.45818505225E+02  0.45818505225E+02  0.00000000000E+00 0. -1.
         -6    2    1    2    0  503 -0.26089913134E+02 -0.57757072987E+02  0.24339355151E+03  0.30518388508E+03  0.17285895911E+03 0.  0.
        -24    2    3    3    0    0  0.11286025655E+02 -0.95866613323E+02  0.19935075556E+03  0.23582138987E+03  0.80951974990E+02 0.  0.
          6    2    1    2  501    0  0.26089913134E+02  0.57757072987E+02  0.55198708609E+03  0.58183376298E+03  0.17269690642E+03 0.  0.
         24    2    5    5    0    0 -0.27766489664E+02  0.89869123007E+02  0.36064246122E+03  0.38042236473E+03  0.76228298765E+02 0.  0.
          5    1    5    5  501    0  0.53856402797E+02 -0.32112050021E+02  0.19134462487E+03  0.20141139825E+03  0.47000000000E+01 0. -1.
        -11    1    6    6    0    0 -0.40000123467E+02  0.11322946573E+02  0.12204704907E+03  0.12893293289E+03  0.00000000000E+00 0.  1.
         12    1    6    6    0    0  0.12233633803E+02  0.78546176434E+02  0.23859541216E+03  0.25148943185E+03  0.00000000000E+00 0. -1.
         -5    1    3    3    0  503 -0.37375938789E+02  0.38109540337E+02  0.44042795957E+02  0.69362495203E+02  0.47000000000E+01 0.  1.
         11    1    4    4    0    0 -0.26195329596E+02 -0.13811941375E+02  0.22153369439E+02  0.36982925719E+02  0.00000000000E+00 0. -1.
        -12    1    4    4    0    0  0.37481355251E+02 -0.82054671948E+02  0.17719738612E+03  0.19883846415E+03  0.00000000000E+00 0.  1.
</event>
<event>
12    1  0.8053217E-002  0.4147745E+03  0.7818608E-02  0.1038788E+00
         21   -1    0    0  501  502  0.00000000000E+00  0.00000000000E+00  0.12866996132E+04  0.12866996132E+04  0.00000000000E+00 0. -1.
         21   -1    0    0  502  503 -0.00000000000E+00 -0.00000000000E+00 -0.17153202512E+03  0.17153202512E+03  0.00000000000E+00 0.  1.
         -6    2    1    2    0  503 -0.37261719618E+03 -0.59497192030E+02  0.90006285015E+03  0.99099730407E+03  0.17198555668E+03 0.  0.
        -24    2    3    3    0    0 -0.38662369910E+03 -0.54828343517E+02  0.85429649843E+03  0.94267930308E+03  0.79609856547E+02 0.  0.
          6    2    1    2  501    0  0.37261719618E+03  0.59497192030E+02  0.21510473791E+03  0.46723433423E+03  0.17220448329E+03 0.  0.
         24    2    5    5    0    0  0.77950437676E+02  0.15535565542E+02  0.95084764342E+02  0.14600543263E+03  0.77193584032E+02 0.  0.
          5    1    5    5  501    0  0.29466675851E+03  0.43961626488E+02  0.12001997357E+03  0.32122890161E+03  0.47000000000E+01 0. -1.
        -11    1    6    6    0    0  0.88831689709E+02  0.27729375819E+01  0.60335072472E+02  0.10742010636E+03  0.00000000000E+00 0.  1.
         12    1    6    6    0    0 -0.10881252033E+02  0.12762627960E+02  0.34749691870E+02  0.38585326269E+02  0.00000000000E+00 0. -1.
         -5    1    3    3    0  503  0.14006502919E+02 -0.46688485130E+01  0.45766351714E+02  0.48318000990E+02  0.47000000000E+01 0.  1.
         13    1    4    4    0    0 -0.22666258321E+03 -0.57617931524E+02  0.57609506004E+03  0.62175660099E+03  0.00000000000E+00 0. -1.
        -14    1    4    4    0    0 -0.15996111589E+03  0.27895880062E+01  0.27820143839E+03  0.32092270209E+03  0.00000000000E+00 0.  1.
</event>
<event>
12    1  0.8053217E-002  0.1737635E+03  0.7818608E-02  0.1173992E+00
         21   -1    0    0  503  502  0.00000000000E+00  0.00000000000E+00  0.17257451353E+03  0.17257451353E+03  0.00000000000E+00 0.  1.
         21   -1    0    0  501  503 -0.00000000000E+00 -0.00000000000E+00 -0.30854341461E+03  0.30854341461E+03  0.00000000000E+00 0.  1.
          6    2    1    2  501    0  0.53305853789E+01 -0.27076778163E+02 -0.22630438365E+03  0.28531985532E+03  0.17155809140E+03 0.  0.
         24    2    3    3    0    0 -0.56170417402E+02 -0.70978694115E+01 -0.83287274710E+02  0.12829274432E+03  0.79478063491E+02 0.  0.
         -6    2    1    2    0  502 -0.53305853789E+01  0.27076778163E+02  0.90335482564E+02  0.19579807282E+03  0.17150748920E+03 0.  0.
        -24    2    5    5    0    0  0.14475105093E+02  0.57958636096E+02  0.17797348444E+00  0.98348491146E+02  0.78125935967E+02 0.  0.
          5    1    3    3  501    0  0.61501002781E+02 -0.19978908752E+02 -0.14301710894E+03  0.15702711099E+03  0.47000000000E+01 0. -1.
        -13    1    4    4    0    0 -0.42269076656E+02  0.68684243637E+00 -0.97922739243E+02  0.10665837733E+03  0.00000000000E+00 0.  1.
         14    1    4    4    0    0 -0.13901340746E+02 -0.77847118479E+01  0.14635464534E+02  0.21634366993E+02  0.00000000000E+00 0. -1.
         -5    1    5    5    0  502 -0.19805690472E+02 -0.30881857932E+02  0.90157509080E+02  0.97449581671E+02  0.47000000000E+01 0.  1.
         11    1    6    6    0    0 -0.19842556827E+02  0.60483346320E+02 -0.34431437678E+01  0.63748078265E+02  0.00000000000E+00 0. -1.
        -12    1    6    6    0    0  0.34317661920E+02 -0.25247102246E+01  0.36211172522E+01  0.34600412881E+02  0.00000000000E+00 0.  1.
</event>
<event>
12    1  0.8053217E-002  0.2254445E+03  0.7818608E-02  0.1129928E+00
         21   -1    0    0  503  502  0.00000000000E+00  0.00000000000E+00  0.18282134077E+03  0.18282134077E+03  0.00000000000E+00 0. -1.
         21   -1    0    0  501  503 -0.00000000000E+00 -0.00000000000E+00 -0.27821022846E+03  0.27821022846E+03  0.00000000000E+00 0.  1.
          6    2    1    2  501    0 -0.18041351882E+02 -0.14390465051E+03 -0.38180354759E+02  0.22865469711E+03  0.17260125204E+03 0.  0.
         24    2    3    3    0    0  0.47121353654E+02 -0.39379137877E+02 -0.31742794503E+02  0.10522336735E+03  0.79329777287E+02 0.  0.
         -6    2    1    2    0  502  0.18041351882E+02  0.14390465051E+03 -0.57208532929E+02  0.23237687212E+03  0.17231411910E+03 0.  0.
        -24    2    5    5    0    0  0.44327082222E+02  0.11444488696E+03  0.15930902670E+02  0.14912854284E+03  0.83204604802E+02 0.  0.
          5    1    3    3  501    0 -0.65162705535E+02 -0.10452551263E+03 -0.64375602561E+01  0.12343132976E+03  0.47000000000E+01 0. -1.
        -13    1    4    4    0    0  0.54858853983E+02 -0.58194217991E+02 -0.25567091651E+02  0.83962712220E+02  0.00000000000E+00 0.  1.
         14    1    4    4    0    0 -0.77375003292E+01  0.18815080113E+02 -0.61757028516E+01  0.21260655134E+02  0.00000000000E+00 0. -1.
         -5    1    5    5    0  502 -0.26285730341E+02  0.29459763552E+02 -0.73139435599E+02  0.83248329279E+02  0.47000000000E+01 0.  1.
         13    1    6    6    0    0 -0.51057866992E+01  0.95027703975E+02  0.10452453259E+02  0.95737074113E+02  0.00000000000E+00 0. -1.
        -14    1    6    6    0    0  0.49432868922E+02  0.19417182984E+02  0.54784494109E+01  0.53391468727E+02  0.00000000000E+00 0.  1.
</event>
<event>
12    1  0.8053217E-002  0.1874898E+03  0.7818608E-02  0.1160823E+00
         21   -1    0    0  503  502  0.00000000000E+00  0.00000000000E+00  0.35685414242E+03  0.35685414242E+03  0.00000000000E+00 0. -1.
         21   -1    0    0  501  503 -0.00000000000E+00 -0.00000000000E+00 -0.24430759365E+03  0.24430759365E+03  0.00000000000E+00 0.  1.
          6    2    1    2  501    0 -0.61392091644E+02 -0.41673741305E+02 -0.17609528210E+03  0.25697203512E+03  0.17181207416E+03 0.  0.
         24    2    3    3    0    0  0.10904874721E+02 -0.41236191793E+02 -0.15810780053E+03  0.18232163467E+03  0.80148375363E+02 0.  0.
         -6    2    1    2    0  502  0.61392091644E+02  0.41673741305E+02  0.28864183088E+03  0.34418970094E+03  0.17218232799E+03 0.  0.
        -24    2    5    5    0    0  0.86374242767E+01 -0.33464031703E+02  0.91412719311E+02  0.12658879949E+03  0.80461123467E+02 0.  0.
          5    1    3    3  501    0 -0.72296966366E+02 -0.43754951189E+00 -0.17987481573E+02  0.74650400458E+02  0.47000000000E+01 0. -1.
        -13    1    4    4    0    0 -0.21409805983E+02 -0.50279067077E+02 -0.11791372366E+03  0.12996157357E+03  0.00000000000E+00 0.  1.
         14    1    4    4    0    0  0.32314680704E+02  0.90428752834E+01 -0.40194076869E+02  0.52360061094E+02  0.00000000000E+00 0. -1.
         -5    1    5    5    0  502  0.52754667367E+02  0.75137773008E+02  0.19722911157E+03  0.21760090145E+03  0.47000000000E+01 0.  1.
         13    1    6    6    0    0 -0.31465634836E+02 -0.27994330549E+02  0.25479603082E+02  0.49223763486E+02  0.00000000000E+00 0. -1.
        -14    1    6    6    0    0  0.40103059112E+02 -0.54697011542E+01  0.65933116228E+02  0.77365036008E+02  0.00000000000E+00 0.  1.
</event>
<event>
12    1  0.8053217E-002  0.1733004E+03  0.7818608E-02  0.1174462E+00
         21   -1    0    0  501  502  0.00000000000E+00  0.00000000000E+00  0.69638000936E+02  0.69638000936E+02  0.00000000000E+00 0. -1.
         21   -1    0    0  502  503 -0.00000000000E+00 -0.00000000000E+00 -0.12789657456E+04  0.12789657456E+04  0.00000000000E+00 0. -1.
         -6    2    1    2    0  503 -0.53813056535E+01 -0.52123137350E+01 -0.11536986236E+04  0.11666419902E+04  0.17313836255E+03 0.  0.
        -24    2    3    3    0    0 -0.38809505388E+02  0.54636815039E+02 -0.62851187357E+03  0.63697929080E+03  0.78892854062E+02 0.  0.
          6    2    1    2  501    0  0.53813056535E+01  0.52123137350E+01 -0.55629121065E+02  0.18196175631E+03  0.17308770894E+03 0.  0.
         24    2    5    5    0    0  0.20852595182E+02  0.66503216564E+02 -0.58592986932E+02  0.11850460487E+03  0.75846520800E+02 0.  0.
          5    1    5    5  501    0 -0.15471289528E+02 -0.61290902829E+02  0.29638658669E+01  0.63457151450E+02  0.47000000000E+01 0. -1.
        -11    1    6    6    0    0 -0.11624482355E+02  0.51352869608E+02 -0.63326967152E+02  0.82356241875E+02  0.00000000000E+00 0.  1.
         12    1    6    6    0    0  0.32477077536E+02  0.15150346956E+02  0.47339802202E+01  0.36148362991E+02  0.00000000000E+00 0. -1.
         -5    1    3    3    0  503  0.33428199734E+02 -0.59849128774E+02 -0.52518675004E+03  0.52966269943E+03  0.47000000000E+01 0.  1.
         13    1    4    4    0    0 -0.28229387402E+02 -0.54073411007E+01 -0.78464988018E+02  0.83563700226E+02  0.00000000000E+00 0. -1.
        -14    1    4    4    0    0 -0.10580117986E+02  0.60044156140E+02 -0.55004688556E+03  0.55341559058E+03  0.00000000000E+00 0.  1.
</event>
<event>
12    1  0.8053217E-002  0.2428047E+03  0.7818608E-02  0.1118139E+00
         21   -1    0    0  501  502  0.00000000000E+00  0.00000000000E+00  0.57144178896E+02  0.57144178896E+02  0.00000000000E+00 0. -1.
         21   -1    0    0  502  503 -0.00000000000E+00 -0.00000000000E+00 -0.13049869447E+04  0.13049869447E+04  0.00000000000E+00 0. -1.
         -6    2    1    2    0  503 -0.16425717320E+03  0.60487306551E+02 -0.93978649646E+03  0.97064554663E+03  0.16827057096E+03 0.  0.
        -24    2    3    3    0    0 -0.18855500340E+03  0.50834792474E+02 -0.75456604202E+03  0.78352990772E+03  0.80075208948E+02 0.  0.
          6    2    1    2  501    0  0.16425717320E+03 -0.60487306551E+02 -0.30805626933E+03  0.39148557696E+03  0.16650272878E+03 0.  0.
         24    2    5    5    0    0  0.70614945595E+02 -0.94804279326E+02 -0.17775246999E+03  0.22732805647E+03  0.78152304832E+02 0.  0.
          5    1    5    5  501    0  0.93642227604E+02  0.34316972775E+02 -0.13030379934E+03  0.16415752049E+03  0.47000000000E+01 0. -1.
        -13    1    6    6    0    0 -0.17036744483E+02 -0.11163917296E+02 -0.21639569765E+02  0.29717918696E+02  0.00000000000E+00 0.  1.
         14    1    6    6    0    0  0.87651690078E+02 -0.83640362030E+02 -0.15611290022E+03  0.19761013777E+03  0.00000000000E+00 0. -1.
         -5    1    3    3    0  503  0.24297830197E+02  0.96525140770E+01 -0.18522045444E+03  0.18711563891E+03  0.47000000000E+01 0.  1.
         11    1    4    4    0    0 -0.17310155754E+02 -0.11432417295E+02 -0.30485049327E+02  0.36873837472E+02  0.00000000000E+00 0. -1.
        -12    1    4    4    0    0 -0.17124484764E+03  0.62267209769E+02 -0.72408099270E+03  0.74665607025E+03  0.00000000000E+00 0.  1.
</event>
<event>
12    1  0.8053217E-002  0.2505176E+03  0.7818608E-02  0.1113027E+00
         21   -1    0    0  501  502  0.00000000000E+00  0.00000000000E+00  0.82432838445E+03  0.82432838445E+03  0.00000000000E+00 0. -1.
         21   -1    0    0  502  503 -0.00000000000E+00 -0.00000000000E+00 -0.19853233249E+03  0.19853233249E+03  0.00000000000E+00 0.  1.
         -6    2    1    2    0  503  0.97874703663E+02  0.15199203875E+03 -0.88900652533E+02  0.26552956763E+03  0.17297857614E+03 0.  0.
        -24    2    3    3    0    0  0.13580528703E+03  0.13464331272E+03 -0.67137960960E+02  0.21824942175E+03  0.80953113878E+02 0.  0.
          6    2    1    2  501    0 -0.97874703663E+02 -0.15199203875E+03  0.71469670449E+03  0.75733114931E+03  0.17343025358E+03 0.  0.
         24    2    5    5    0    0 -0.73193025459E+01 -0.25652317086E+02  0.33009695398E+03  0.34248049663E+03  0.87277018650E+02 0.  0.
          5    1    5    5  501    0 -0.90555401117E+02 -0.12633972166E+03  0.38459975050E+03  0.41485065268E+03  0.47000000000E+01 0. -1.
        -11    1    6    6    0    0 -0.36331590456E+02 -0.30042870242E+01  0.62427783681E+02  0.72292727027E+02  0.00000000000E+00 0.  1.
         12    1    6    6    0    0  0.29012287910E+02 -0.22648030061E+02  0.26766917030E+03  0.27018776961E+03  0.00000000000E+00 0. -1.
         -5    1    3    3    0  503 -0.37930583370E+02  0.17348726023E+02 -0.21762691573E+02  0.47280145874E+02  0.47000000000E+01 0.  1.
         13    1    4    4    0    0  0.11545751075E+02  0.57309070926E+02 -0.32412772853E+01  0.58550319015E+02  0.00000000000E+00 0. -1.
        -14    1    4    4    0    0  0.12425953596E+03  0.77334241799E+02 -0.63896683675E+02  0.15969910274E+03  0.00000000000E+00 0.  1.
</event>
<event>
12    1  0.8053217E-002  0.1898948E+03  0.7818608E-02  0.1158861E+00
         21   -1    0    0  503  502  0.00000000000E+00  0.00000000000E+00  0.97703728819E+03  0.97703728819E+03  0.00000000000E+00 0.  1.
         21   -1    0    0  501  503 -0.00000000000E+00 -0.00000000000E+00 -0.29876103796E+03  0.29876103796E+03  0.00000000000E+00 0.  1.
          6    2    1    2  501    0 -0.63255193326E+02  0.49204018035E+02 -0.25821017640E+03  0.32051915164E+03  0.17215625604E+03 0.  0.
         24    2    3    3    0    0 -0.10517527054E+03  0.44202379453E+02 -0.15291135221E+03  0.20697514414E+03  0.80256717948E+02 0.  0.
         -6    2    1    2    0  502  0.63255193326E+02 -0.49204018035E+02  0.93648642663E+03  0.95527917451E+03  0.17067284237E+03 0.  0.
        -24    2    5    5    0    0 -0.97195370346E+01  0.26971563282E+02  0.45148863267E+03  0.45891944548E+03  0.77091746529E+02 0.  0.
          5    1    3    3  501    0  0.41920077212E+02  0.50016385819E+01 -0.10529882419E+03  0.11354400749E+03  0.47000000000E+01 0. -1.
        -13    1    4    4    0    0 -0.74158478956E+02  0.21958552154E+02 -0.14991466420E+03  0.16868925442E+03  0.00000000000E+00 0.  1.
         14    1    4    4    0    0 -0.31016791582E+02  0.22243827300E+02 -0.29966880107E+01  0.38285889725E+02  0.00000000000E+00 0. -1.
         -5    1    5    5    0  502  0.72974730361E+02 -0.76175581318E+02  0.48499779396E+03  0.49635972904E+03  0.47000000000E+01 0.  1.
         13    1    6    6    0    0 -0.20627799855E+02 -0.10823320111E+02  0.33808974697E+03  0.33889132091E+03  0.00000000000E+00 0. -1.
        -14    1    6    6    0    0  0.10908262821E+02  0.37794883394E+02  0.11339888570E+03  0.12002812456E+03  0.00000000000E+00 0.  1.
</event>
<event>
12    1  0.8053217E-002  0.2961777E+03  0.7818608E-02  0.1087253E+00
         21   -1    0    0  503  502  0.00000000000E+00  0.00000000000E+00  0.46342573926E+03  0.46342573926E+03  0.00000000000E+00 0. -1.
         21   -1    0    0  501  503 -0.00000000000E+00 -0.00000000000E+00 -0.20085612334E+03  0.20085612334E+03  0.00000000000E+00 0. -1.
          6    2    1    2  501    0 -0.13797657833E+03  0.19926912423E+03  0.49972316253E+02  0.29970149051E+03  0.16905038002E+03 0.  0.
         24    2    3    3    0    0 -0.62368082885E+02  0.10211230049E+03 -0.37203912407E+02  0.14877807342E+03  0.80212744364E+02 0.  0.
         -6    2    1    2    0  502  0.13797657833E+03 -0.19926912423E+03  0.21259729966E+03  0.36458037209E+03  0.17022196055E+03 0.  0.
        -24    2    5    5    0    0  0.15563697956E+03 -0.14912481187E+03  0.12037174112E+03  0.25802529017E+03  0.75010768477E+02 0.  0.
          5    1    3    3  501    0 -0.75608495445E+02  0.97156823734E+02  0.87176228660E+02  0.15092341709E+03  0.47000000000E+01 0. -1.
        -13    1    4    4    0    0 -0.10453208448E+02 -0.83293549612E+01 -0.22078973307E+02  0.25809470805E+02  0.00000000000E+00 0.  1.
         14    1    4    4    0    0 -0.51914874437E+02  0.11044165545E+03 -0.15124939100E+02  0.12296860262E+03  0.00000000000E+00 0. -1.
         -5    1    5    5    0  502 -0.17660401231E+02 -0.50144312357E+02  0.92225558547E+02  0.10655508192E+03  0.47000000000E+01 0.  1.
         13    1    6    6    0    0  0.13779044188E+02 -0.57561860834E+02  0.36002806472E+02  0.69277932672E+02  0.00000000000E+00 0. -1.
        -14    1    6    6    0    0  0.14185793537E+03 -0.91562951035E+02  0.84368934646E+02  0.18874735750E+03  0.00000000000E+00 0.  1.
</event>
<event>
12    1  0.8053217E-002  0.1758974E+03  0.7818608E-02  0.1172624E+00
         21   -1    0    0  503  502  0.00000000000E+00  0.00000000000E+00  0.10211610376E+03  0.10211610376E+03  0.00000000000E+00 0. -1.
         21   -1    0    0  501  503 -0.00000000000E+00 -0.00000000000E+00 -0.38803007581E+03  0.38803007581E+03  0.00000000000E+00 0. -1.
          6    2    1    2  501    0  0.19400121831E+02  0.17292499537E+02 -0.25640816945E+02  0.17775640411E+03  0.17396692916E+03 0.  0.
         24    2    3    3    0    0 -0.31663097393E+02 -0.16685299268E+02 -0.65156513825E+02  0.10464331725E+03  0.73647142538E+02 0.  0.
         -6    2    1    2    0  502 -0.19400121831E+02 -0.17292499537E+02 -0.26027315511E+03  0.31238977546E+03  0.17079186536E+03 0.  0.
        -24    2    5    5    0    0 -0.60287394250E+02 -0.19134030608E+02 -0.82015058155E+02  0.12943295156E+03  0.77625628193E+02 0.  0.
          5    1    3    3  501    0  0.51063219224E+02  0.33977798805E+02  0.39515696879E+02  0.73113086852E+02  0.47000000000E+01 0. -1.
        -13    1    4    4    0    0 -0.12202923827E+02  0.14817407763E+02 -0.64831217531E+02  0.67613265631E+02  0.00000000000E+00 0.  1.
         14    1    4    4    0    0 -0.19460173566E+02 -0.31502707031E+02 -0.32529629342E+00  0.37030051623E+02  0.00000000000E+00 0. -1.
         -5    1    5    5    0  502  0.40887272419E+02  0.18415310707E+01 -0.17825809695E+03  0.18295682390E+03  0.47000000000E+01 0.  1.
         11    1    6    6    0    0 -0.44319383572E+02 -0.62109050372E+01 -0.95081636344E+02  0.10508710992E+03  0.00000000000E+00 0. -1.
        -12    1    6    6    0    0 -0.15968010678E+02 -0.12923125571E+02  0.13066578189E+02  0.24345841639E+02  0.00000000000E+00 0.  1.
</event>
<event>
12    1  0.8053217E-002  0.2551210E+03  0.7818608E-02  0.1110135E+00
         21   -1    0    0  503  502  0.00000000000E+00  0.00000000000E+00  0.90306965725E+03  0.90306965725E+03  0.00000000000E+00 0.  1.
         21   -1    0    0  501  503 -0.00000000000E+00 -0.00000000000E+00 -0.87375659516E+02  0.87375659516E+02  0.00000000000E+00 0.  1.
          6    2    1    2  501    0  0.13889956300E+03 -0.12606103762E+03  0.20019577345E+03  0.32416850537E+03  0.17269162794E+03 0.  0.
         24    2    3    3    0    0  0.15999692063E+03 -0.13285498790E+03  0.14830903277E+03  0.26755066263E+03  0.79613600893E+02 0.  0.
         -6    2    1    2    0  502 -0.13889956300E+03  0.12606103762E+03  0.61549822428E+03  0.66627681139E+03  0.17292267489E+03 0.  0.
        -24    2    5    5    0    0 -0.77201721969E+02  0.11590921195E+03  0.26690432559E+03  0.31208833140E+03  0.82256648888E+02 0.  0.
          5    1    3    3  501    0 -0.21097357634E+02  0.67939502750E+01  0.51886740675E+02  0.56617842747E+02  0.47000000000E+01 0. -1.
        -13    1    4    4    0    0  0.99044573730E+02 -0.56601280304E+02  0.12074931586E+03  0.16611420709E+03  0.00000000000E+00 0.  1.
         14    1    4    4    0    0  0.60952346905E+02 -0.76253707594E+02  0.27559716917E+02  0.10143645554E+03  0.00000000000E+00 0. -1.
         -5    1    5    5    0  502 -0.61697841032E+02  0.10151825669E+02  0.34859389869E+03  0.35418847999E+03  0.47000000000E+01 0.  1.
         13    1    6    6    0    0  0.30951708093E+01  0.24388305953E+02  0.11405534208E+03  0.11667472137E+03  0.00000000000E+00 0. -1.
        -14    1    6    6    0    0 -0.80296892778E+02  0.91520906001E+02  0.15284898351E+03  0.19541361003E+03  0.00000000000E+00 0.  1.
</event>
<event>
12    1  0.8053217E-002  0.1869033E+03  0.7818608E-02  0.1162929E+00
         21   -1    0    0  503  502  0.00000000000E+00  0.00000000000E+00  0.19213239058E+03  0.19213239058E+03  0.00000000000E+00 0.  1.
         21   -1    0    0  501  503 -0.00000000000E+00 -0.00000000000E+00 -0.17649249658E+03  0.17649249658E+03  0.00000000000E+00 0.  1.
          6    2    1    2  501    0 -0.47805522487E+02  0.20003709932E+02  0.24484113352E+02  0.18850018280E+03  0.17957541791E+03 0.  0.
         24    2    3    3    0    0 -0.50021163630E+02  0.52348461449E+02  0.72644606846E+02  0.13025402284E+03  0.80289434761E+02 0.  0.
         -6    2    1    2    0  502  0.47805522487E+02 -0.20003709932E+02 -0.88442193514E+01  0.18012470436E+03  0.17228224666E+03 0.  0.
        -24    2    5    5    0    0  0.69392626745E+01 -0.46247004186E+01 -0.69162854132E+02  0.10551242101E+03  0.79245374472E+02 0.  0.
          5    1    3    3  501    0  0.22156411427E+01 -0.32344751517E+02 -0.48160493494E+02  0.58246159959E+02  0.47000000000E+01 0. -1.
        -11    1    4    4    0    0 -0.30588676334E+02  0.31524183300E+02 -0.80706237001E+01  0.44660678673E+02  0.00000000000E+00 0.  1.
         12    1    4    4    0    0 -0.19432487297E+02  0.20824278148E+02  0.80715230547E+02  0.85593344164E+02  0.00000000000E+00 0. -1.
         -5    1    5    5    0  502  0.40866259813E+02 -0.15379009513E+02  0.60318634780E+02  0.74612283348E+02  0.47000000000E+01 0.  1.
         11    1    6    6    0    0  0.29307326119E+02  0.17080857656E+02 -0.65970939852E+02  0.74181129457E+02  0.00000000000E+00 0. -1.
        -12    1    6    6    0    0 -0.22368063444E+02 -0.21705558075E+02 -0.31919142794E+01  0.31331291553E+02  0.00000000000E+00 0.  1.
</event>
<event>
12    1  0.8053217E-002  0.2487519E+03  0.7818608E-02  0.1114337E+00
         21   -1    0    0  501  502  0.00000000000E+00  0.00000000000E+00  0.16408806188E+03  0.16408806188E+03  0.00000000000E+00 0. -1.
         21   -1    0    0  502  503 -0.00000000000E+00 -0.00000000000E+00 -0.41303413736E+03  0.41303413736E+03  0.00000000000E+00 0.  1.
         -6    2    1    2    0  503  0.17670383146E+03 -0.17154618926E+02 -0.21258989160E+03  0.32721855952E+03  0.17423833872E+03 0.  0.
        -24    2    3    3    0    0  0.16641284231E+03 -0.67099825690E+02 -0.15348903647E+03  0.24901734972E+03  0.79089414290E+02 0.  0.
          6    2    1    2  501    0 -0.17670383146E+03  0.17154618926E+02 -0.36356183880E+02  0.24990363972E+03  0.17208001637E+03 0.  0.
         24    2    5    5    0    0 -0.17431156508E+03  0.49539051363E+02  0.51219924262E+01  0.19701693522E+03  0.77141419660E+02 0.  0.
          5    1    5    5  501    0 -0.23922663830E+01 -0.32384432438E+02 -0.41478176306E+02  0.52886704496E+02  0.47000000000E+01 0. -1.
        -13    1    6    6    0    0 -0.20590809497E+02  0.26521593230E+02 -0.20711203398E+02  0.39450352209E+02  0.00000000000E+00 0.  1.
         14    1    6    6    0    0 -0.15372075558E+03  0.23017458134E+02  0.25833195825E+02  0.15756658301E+03  0.00000000000E+00 0. -1.
         -5    1    3    3    0  503  0.10290989152E+02  0.49945206765E+02 -0.59100855126E+02  0.78201209793E+02  0.47000000000E+01 0.  1.
         11    1    4    4    0    0  0.71290796288E+02 -0.33192280540E+02 -0.19118079739E+02  0.80929636697E+02  0.00000000000E+00 0. -1.
        -12    1    4    4    0    0  0.95122046024E+02 -0.33907545150E+02 -0.13437095673E+03  0.16808771303E+03  0.00000000000E+00 0.  1.
</event>
<event>
12    1  0.8053217E-002  0.2574554E+03  0.7818608E-02  0.1108827E+00
         21   -1    0    0  501  502  0.00000000000E+00  0.00000000000E+00  0.98760074969E+02  0.98760074969E+02  0.00000000000E+00 0. -1.
         21   -1    0    0  502  503 -0.00000000000E+00 -0.00000000000E+00 -0.67728491375E+03  0.67728491375E+03  0.00000000000E+00 0.  1.
         -6    2    1    2    0  503  0.14937513096E+03 -0.11839343035E+03 -0.33248354257E+03  0.41992761724E+03  0.17165070214E+03 0.  0.
        -24    2    3    3    0    0  0.16261089626E+03 -0.11677919303E+03 -0.34069148823E+03  0.40357978506E+03  0.82013835758E+02 0.  0.
          6    2    1    2  501    0 -0.14937513096E+03  0.11839343035E+03 -0.24604129622E+03  0.35611737148E+03  0.17307029994E+03 0.  0.
         24    2    5    5    0    0 -0.13809882255E+03  0.21480542203E+02 -0.12943740333E+03  0.20400615934E+03  0.73018991956E+02 0.  0.
          5    1    5    5  501    0 -0.11276308417E+02  0.96912888149E+02 -0.11660389289E+03  0.15211121214E+03  0.47000000000E+01 0. -1.
        -13    1    6    6    0    0 -0.23278566963E+01 -0.16420074381E+02 -0.11085810030E+02  0.19948256653E+02  0.00000000000E+00 0.  1.
         14    1    6    6    0    0 -0.13577096585E+03  0.37900616584E+02 -0.11835159330E+03  0.18405790269E+03  0.00000000000E+00 0. -1.
         -5    1    3    3    0  503 -0.13235765295E+02 -0.16142373240E+01  0.82079456600E+01  0.16347832181E+02  0.47000000000E+01 0.  1.
         13    1    4    4    0    0  0.63365081811E+02 -0.12060142984E+02 -0.60555290832E+02  0.88473294781E+02  0.00000000000E+00 0. -1.
        -14    1    4    4    0    0  0.99245814447E+02 -0.10471905004E+03 -0.28013619739E+03  0.31510649028E+03  0.00000000000E+00 0.  1.
</event>
<event>
12    1  0.8053217E-002  0.2417910E+03  0.7818608E-02  0.1118885E+00
         21   -1    0    0  503  502  0.00000000000E+00  0.00000000000E+00  0.22527854225E+03  0.22527854225E+03  0.00000000000E+00 0.  1.
         21   -1    0    0  501  503 -0.00000000000E+00 -0.00000000000E+00 -0.27875943700E+03  0.27875943700E+03  0.00000000000E+00 0. -1.
          6    2    1    2  501    0  0.37636750969E+02  0.16224718598E+03 -0.95912279509E+02  0.25855212603E+03  0.17294323384E+03 0.  0.
         24    2    3    3    0    0  0.60882467072E+02  0.17813633196E+03 -0.10122053159E+03  0.22951601373E+03  0.83622825731E+02 0.  0.
         -6    2    1    2    0  502 -0.37636750969E+02 -0.16224718598E+03  0.42431384763E+02  0.24548585322E+03  0.17527751521E+03 0.  0.
        -24    2    5    5    0    0 -0.57380435301E+02 -0.18130537930E+03  0.15645061531E+02  0.20685134901E+03  0.79865873312E+02 0.  0.
          5    1    3    3  501    0 -0.23245716103E+02 -0.15889145981E+02  0.53082520765E+01  0.29036112296E+02  0.47000000000E+01 0. -1.
        -13    1    4    4    0    0  0.11130680480E+02  0.13642494016E+03 -0.46355917969E+02  0.14451480020E+03  0.00000000000E+00 0.  1.
         14    1    4    4    0    0  0.49751786592E+02  0.41711391806E+02 -0.54864613617E+02  0.85001213537E+02  0.00000000000E+00 0. -1.
         -5    1    5    5    0  502  0.19743684332E+02  0.19058193316E+02  0.26786323232E+02  0.38634504213E+02  0.47000000000E+01 0.  1.
         13    1    6    6    0    0  0.13788913727E+01 -0.79622689150E+02  0.36455350999E+02  0.87582341744E+02  0.00000000000E+00 0. -1.
        -14    1    6    6    0    0 -0.58759326674E+02 -0.10168269015E+03 -0.20810289468E+02  0.11926900727E+03  0.00000000000E+00 0.  1.
</event>
<event>
12    1  0.8053217E-002  0.2653496E+03  0.7818608E-02  0.1104199E+00
         21   -1    0    0  501  502  0.00000000000E+00  0.00000000000E+00  0.16307794141E+03  0.16307794141E+03  0.00000000000E+00 0.  1.
         21   -1    0    0  502  503 -0.00000000000E+00 -0.00000000000E+00 -0.47995054379E+03  0.47995054379E+03  0.00000000000E+00 0.  1.
         -6    2    1    2    0  503  0.13481960321E+03 -0.14661332718E+03 -0.26253334409E+03  0.37217213581E+03  0.17296401013E+03 0.  0.
        -24    2    3    3    0    0  0.76628911291E+02 -0.16932690915E+03 -0.21091657183E+03  0.29100290143E+03  0.75188404429E+02 0.  0.
          6    2    1    2  501    0 -0.13481960321E+03  0.14661332718E+03 -0.54339258292E+02  0.27085634938E+03  0.17532431061E+03 0.  0.
         24    2    5    5    0    0 -0.12302022473E+03  0.43459690528E+02 -0.65709671496E+02  0.16630361444E+03  0.79475850776E+02 0.  0.
          5    1    5    5  501    0 -0.11799378485E+02  0.10315363665E+03  0.11370413204E+02  0.10455273494E+03  0.47000000000E+01 0. -1.
        -13    1    6    6    0    0 -0.96278265770E+02  0.33557113559E+02 -0.84272230779E+02  0.13227771245E+03  0.00000000000E+00 0.  1.
         14    1    6    6    0    0 -0.26741958956E+02  0.99025769681E+01  0.18562559284E+02  0.34025901995E+02  0.00000000000E+00 0. -1.
         -5    1    3    3    0  503  0.58190691920E+02  0.22713581970E+02 -0.51616772264E+02  0.81169234388E+02  0.47000000000E+01 0.  1.
         11    1    4    4    0    0 -0.37644591945E+01 -0.59103743072E+02 -0.36498799711E+02  0.69567132890E+02  0.00000000000E+00 0. -1.
        -12    1    4    4    0    0  0.80393370485E+02 -0.11022316607E+03 -0.17441777212E+03  0.22143576854E+03  0.00000000000E+00 0.  1.
</event>
<event>
12    1  0.8053217E-002  0.1889580E+03  0.7818608E-02  0.1162183E+00
         21   -1    0    0  501  502  0.00000000000E+00  0.00000000000E+00  0.89151355941E+02  0.89151355941E+02  0.00000000000E+00 0. -1.
         21   -1    0    0  502  503 -0.00000000000E+00 -0.00000000000E+00 -0.41548177152E+03  0.41548177152E+03  0.00000000000E+00 0. -1.
         -6    2    1    2    0  503 -0.46757514572E+02 -0.49509849732E+01 -0.23630065808E+03  0.29532354576E+03  0.17078412763E+03 0.  0.
        -24    2    3    3    0    0 -0.18698499469E+02 -0.68458263996E+02 -0.15176266446E+03  0.18582813406E+03  0.80399137389E+02 0.  0.
          6    2    1    2  501    0  0.46757514572E+02  0.49509849732E+01 -0.90029757505E+02  0.20930958171E+03  0.18301466154E+03 0.  0.
         24    2    5    5    0    0  0.50372002426E+02 -0.63891823061E+02 -0.82525797164E+02  0.13980565260E+03  0.78202363259E+02 0.  0.
          5    1    5    5  501    0 -0.36144878544E+01  0.68842808034E+02 -0.75039603404E+01  0.69503929107E+02  0.47000000000E+01 0. -1.
        -13    1    6    6    0    0  0.40946924716E+01  0.15594973773E+02 -0.29552080540E+02  0.33664449760E+02  0.00000000000E+00 0.  1.
         14    1    6    6    0    0  0.46277309955E+02 -0.79486796834E+02 -0.52973716625E+02  0.10614120284E+03  0.00000000000E+00 0. -1.
         -5    1    3    3    0  503 -0.28059015103E+02  0.63507279023E+02 -0.84537993617E+02  0.10949541169E+03  0.47000000000E+01 0.  1.
         13    1    4    4    0    0 -0.40697541767E+02 -0.18801797769E+02 -0.10495854363E+03  0.11413191222E+03  0.00000000000E+00 0. -1.
        -14    1    4    4    0    0  0.21999042298E+02 -0.49656466227E+02 -0.46804120832E+02  0.71696221846E+02  0.00000000000E+00 0.  1.
</event>
<event>
12    1  0.8053217E-002  0.2168290E+03  0.7818608E-02  0.1138233E+00
         21   -1    0    0  501  502  0.00000000000E+00  0.00000000000E+00  0.26989069003E+02  0.26989069003E+02  0.00000000000E+00 0. -1.
         21   -1    0    0  502  503 -0.00000000000E+00 -0.00000000000E+00 -0.20901314368E+04  0.20901314368E+04  0.00000000000E+00 0. -1.
         -6    2    1    2    0  503 -0.94852025756E+02 -0.65256153258E+02 -0.53305657310E+03  0.57174761676E+03  0.17172872450E+03 0.  0.
        -24    2    3    3    0    0 -0.79724830511E+02 -0.57353071222E+02 -0.53849913976E+03  0.55322729621E+03  0.80210313361E+02 0.  0.
          6    2    1    2  501    0  0.94852025756E+02  0.65256153258E+02 -0.15300857947E+04  0.15453728891E+04  0.18373773355E+03 0.  0.
         24    2    5    5    0    0  0.89337758916E+02 -0.14680792196E+02 -0.11839235738E+04  0.11900270074E+04  0.79325210641E+02 0.  0.
          5    1    5    5  501    0  0.55142668391E+01  0.79936945454E+02 -0.34616222095E+03  0.35534588164E+03  0.47000000000E+01 0. -1.
        -11    1    6    6    0    0  0.85050228755E+02  0.42803697177E+01 -0.62609493600E+03  0.63185974065E+03  0.00000000000E+00 0.  1.
         12    1    6    6    0    0  0.42875301617E+01 -0.18961161913E+02 -0.55782863777E+03  0.55816726677E+03  0.00000000000E+00 0. -1.
         -5    1    3    3    0  503 -0.15127195244E+02 -0.79030820356E+01  0.54425666569E+01  0.18520320554E+02  0.47000000000E+01 0.  1.
         13    1    4    4    0    0 -0.14966097857E+00 -0.24921234928E+02 -0.38257223185E+02  0.45658575039E+02  0.00000000000E+00 0. -1.
        -14    1    4    4    0    0 -0.79575169533E+02 -0.32431836295E+02 -0.50024191657E+03  0.50756872117E+03  0.00000000000E+00 0.  1.
</event>
<event>
12    1  0.8053217E-002  0.3568580E+03  0.7818608E-02  0.1059951E+00
         21   -1    0    0  501  502  0.00000000000E+00  0.00000000000E+00  0.23849876617E+03  0.23849876617E+03  0.00000000000E+00 0.  1.
         21   -1    0    0  502  503 -0.00000000000E+00 -0.00000000000E+00 -0.60042430187E+03  0.60042430187E+03  0.00000000000E+00 0. -1.
         -6    2    1    2    0  503  0.14400716275E+03  0.27593329195E+03 -0.32259433754E+03  0.48105585766E+03  0.17455768973E+03 0.  0.
        -24    2    3    3    0    0  0.14097670270E+03  0.24571231810E+03 -0.33665795283E+03  0.44725694905E+03  0.80319532495E+02 0.  0.
          6    2    1    2  501    0 -0.14400716275E+03 -0.27593329195E+03 -0.39331198163E+02  0.35786721038E+03  0.17217651579E+03 0.  0.
         24    2    5    5    0    0 -0.14214652104E+03 -0.25768977837E+03 -0.77984448603E+02  0.31482709485E+03  0.80155287468E+02 0.  0.
          5    1    5    5  501    0 -0.18606417060E+01 -0.18243513578E+02  0.38653250440E+02  0.43040115530E+02  0.47000000000E+01 0. -1.
        -13    1    6    6    0    0  0.94409422183E+01 -0.68231202422E+01 -0.55372313996E+01  0.12897569204E+02  0.00000000000E+00 0.  1.
         14    1    6    6    0    0 -0.15158746326E+03 -0.25086665813E+03 -0.72447217203E+02  0.30192952565E+03  0.00000000000E+00 0. -1.
         -5    1    3    3    0  503  0.30304600456E+01  0.30220973848E+02  0.14063615281E+02  0.33798908609E+02  0.47000000000E+01 0.  1.
         13    1    4    4    0    0  0.66817333567E+02  0.91393136613E+02 -0.19301557678E+03  0.22376834978E+03  0.00000000000E+00 0. -1.
        -14    1    4    4    0    0  0.74159369137E+02  0.15431918148E+03 -0.14364237604E+03  0.22348859926E+03  0.00000000000E+00 0.  1.
</event>
<event>
12    1  0.8053217E-002  0.1924334E+03  0.7818608E-02  0.1157226E+00
         21   -1    0    0  503  502  0.00000000000E+00  0.00000000000E+00  0.30237278827E+03  0.30237278827E+03  0.00000000000E+00 0.  1.
         21   -1    0    0  501  503 -0.00000000000E+00 -0.00000000000E+00 -0.12157811739E+03  0.12157811739E+03  0.00000000000E+00 0.  1.
          6    2    1    2  501    0 -0.66900776865E+02  0.65736766016E+02  0.11497284194E+03  0.22057163204E+03  0.16320555788E+03 0.  0.
         24    2    3    3    0    0  0.11537628984E+02  0.31483536648E+02  0.92768004858E+02  0.13202214291E+03  0.87747441739E+02 0.  0.
         -6    2    1    2    0  502  0.66900776865E+02 -0.65736766016E+02  0.65821828936E+02  0.20337927363E+03  0.16802850778E+03 0.  0.
        -24    2    5    5    0    0 -0.68461320298E+01 -0.80078617984E+02  0.58711139684E+02  0.12776877706E+03  0.80114966681E+02 0.  0.
          5    1    3    3  501    0 -0.78438405849E+02  0.34253229368E+02  0.22204837084E+02  0.88549489125E+02  0.47000000000E+01 0. -1.
        -13    1    4    4    0    0  0.34838108641E+02 -0.16949287761E+02  0.27694800294E+02  0.47623252016E+02  0.00000000000E+00 0.  1.
         14    1    4    4    0    0 -0.23300479657E+02  0.48432824409E+02  0.65073204564E+02  0.84398890897E+02  0.00000000000E+00 0. -1.
         -5    1    5    5    0  502  0.73746908895E+02  0.14341851969E+02  0.71106892516E+01  0.75610496567E+02  0.47000000000E+01 0.  1.
         13    1    6    6    0    0  0.32907082494E+02 -0.13468816895E+02  0.13841474894E+02  0.38155884658E+02  0.00000000000E+00 0. -1.
        -14    1    6    6    0    0 -0.39753214524E+02 -0.66609801090E+02  0.44869664791E+02  0.89612892402E+02  0.00000000000E+00 0.  1.
</event>
<event>
12    1  0.8053217E-002  0.1871031E+03  0.7818608E-02  0.1161212E+00
         21   -1    0    0  503  502  0.00000000000E+00  0.00000000000E+00  0.39458845847E+03  0.39458845847E+03  0.00000000000E+00 0.  1.
         21   -1    0    0  501  503 -0.00000000000E+00 -0.00000000000E+00 -0.97050423864E+02  0.97050423864E+02  0.00000000000E+00 0.  1.
          6    2    1    2  501    0  0.21363645803E+02 -0.69437899666E+02  0.75584215089E+02  0.20134408762E+03  0.17189659908E+03 0.  0.
         24    2    3    3    0    0 -0.18827599581E+02 -0.44019096575E+02  0.10896163575E+03  0.14305520389E+03  0.79372501075E+02 0.  0.
         -6    2    1    2    0  502 -0.21363645803E+02  0.69437899666E+02  0.22195381952E+03  0.29029479472E+03  0.17242256978E+03 0.  0.
        -24    2    5    5    0    0 -0.67948949185E+01  0.81641092381E+02  0.23842210017E+03  0.26471236554E+03  0.80722364040E+02 0.  0.
          5    1    3    3  501    0  0.40191245384E+02 -0.25418803091E+02 -0.33377420657E+02  0.58288883725E+02  0.47000000000E+01 0. -1.
        -13    1    4    4    0    0  0.13095085585E+02 -0.53533558894E+02  0.45843082650E+02  0.71686201052E+02  0.00000000000E+00 0.  1.
         14    1    4    4    0    0 -0.31922685166E+02  0.95144623195E+01  0.63118553097E+02  0.71369002841E+02  0.00000000000E+00 0. -1.
         -5    1    5    5    0  502 -0.14568750884E+02 -0.12203192715E+02 -0.16468280657E+02  0.25582429176E+02  0.47000000000E+01 0.  1.
         11    1    6    6    0    0  0.30157556594E+02  0.67714531565E+02  0.13508014698E+03  0.15408238742E+03  0.00000000000E+00 0. -1.
        -12    1    6    6    0    0 -0.36952451513E+02  0.13926560817E+02  0.10334195320E+03  0.11062997812E+03  0.00000000000E+00 0.  1.
</event>
<event>
12    1  0.8053217E-002  0.1771596E+03  0.7818608E-02  0.1171315E+00
         21   -1    0    0  501  502  0.00000000000E+00  0.00000000000E+00  0.36701424465E+03  0.36701424465E+03  0.00000000000E+00 0. -1.
         21   -1    0    0  502  503 -0.00000000000E+00 -0.00000000000E+00 -0.99945708134E+02  0.99945708134E+02  0.00000000000E+00 0. -1.
         -6    2    1    2    0  503 -0.42097984837E+02  0.10199877886E+00  0.41511476992E+02  0.18195800425E+03  0.17208504251E+03 0.  0.
        -24    2    3    3    0    0 -0.41163883782E+02 -0.54300564825E+02 -0.12757262170E+02  0.10496646236E+03  0.78817471507E+02 0.  0.
          6    2    1    2  501    0  0.42097984837E+02 -0.10199877886E+00  0.22555705953E+03  0.28500194854E+03  0.16904991227E+03 0.  0.
         24    2    5    5    0    0  0.51919887883E+02 -0.58577893636E+02  0.12154881706E+03  0.16518665502E+03  0.79909146470E+02 0.  0.
          5    1    5    5  501    0 -0.98219030454E+01  0.58475894857E+02  0.10400824247E+03  0.11981529351E+03  0.47000000000E+01 0. -1.
        -13    1    6    6    0    0  0.11222842171E+02  0.39704942823E+01 -0.89262353412E+01  0.14879337640E+02  0.00000000000E+00 0.  1.
         14    1    6    6    0    0  0.40697045712E+02 -0.62548387918E+02  0.13047505240E+03  0.15030731738E+03  0.00000000000E+00 0. -1.
         -5    1    3    3    0  503 -0.93410105513E+00  0.54402563603E+02  0.54268739161E+02  0.76991541883E+02  0.47000000000E+01 0.  1.
         11    1    4    4    0    0 -0.28941597764E+02 -0.72860307126E+02  0.17678306318E+01  0.78417891203E+02  0.00000000000E+00 0. -1.
        -12    1    4    4    0    0 -0.12222286018E+02  0.18559742301E+02 -0.14525092802E+02  0.26548571161E+02  0.00000000000E+00 0.  1.
</event>
<event>
12    1  0.8053217E-002  0.2768111E+03  0.7818608E-02  0.1097497E+00
         21   -1    0    0  501  502  0.00000000000E+00  0.00000000000E+00  0.30980875222E+02  0.30980875222E+02  0.00000000000E+00 0.  1.
         21   -1    0    0  502  503 -0.00000000000E+00 -0.00000000000E+00 -0.26867405546E+04  0.26867405546E+04  0.00000000000E+00 0.  1.
         -6    2    1    2    0  503  0.15574118912E+03 -0.14976137849E+03 -0.17148050822E+04  0.17370034119E+04  0.17303350684E+03 0.  0.
        -24    2    3    3    0    0  0.16317022219E+03 -0.11632271561E+03 -0.16439746384E+04  0.16581847816E+04  0.82271883022E+02 0.  0.
          6    2    1    2  501    0 -0.15574118912E+03  0.14976137849E+03 -0.94095459721E+03  0.98071801797E+03  0.17241951247E+03 0.  0.
         24    2    5    5    0    0 -0.13958982104E+03  0.95700203084E+02 -0.87007360871E+03  0.89000042371E+03  0.80179939025E+02 0.  0.
          5    1    5    5  501    0 -0.16151368083E+02  0.54061175408E+02 -0.70880988500E+02  0.90717594259E+02  0.47000000000E+01 0. -1.
        -13    1    6    6    0    0 -0.63867961556E+02  0.63212005965E+02 -0.27650949730E+03  0.29074452068E+03  0.00000000000E+00 0.  1.
         14    1    6    6    0    0 -0.75721859481E+02  0.32488197119E+02 -0.59356411141E+03  0.59925590302E+03  0.00000000000E+00 0. -1.
         -5    1    3    3    0  503 -0.74290330750E+01 -0.33438662883E+02 -0.70830443848E+02  0.78818630308E+02  0.47000000000E+01 0.  1.
         13    1    4    4    0    0  0.84539458609E+02 -0.41620606027E+02 -0.47956318435E+03  0.48873309965E+03  0.00000000000E+00 0. -1.
        -14    1    4    4    0    0  0.78630763586E+02 -0.74702109582E+02 -0.11644114540E+04  0.11694516819E+04  0.00000000000E+00 0.  1.
</event>
<event>
12    1  0.8053217E-002  0.1847300E+03  0.7818608E-02  0.1163542E+00
         21   -1    0    0  501  502  0.00000000000E+00  0.00000000000E+00  0.83692923886E+02  0.83692923886E+02  0.00000000000E+00 0.  1.
         21   -1    0    0  502  503 -0.00000000000E+00 -0.00000000000E+00 -0.86516125818E+03  0.86516125818E+03  0.00000000000E+00 0.  1.
         -6    2    1    2    0  503 -0.33528691110E+02  0.58814720049E+02 -0.73705884972E+03  0.75985585521E+03  0.17187736419E+03 0.  0.
        -24    2    3    3    0    0 -0.12579467462E+02 -0.35511516877E+02 -0.35846878166E+03  0.36910166320E+03  0.79478673329E+02 0.  0.
          6    2    1    2  501    0  0.33528691110E+02 -0.58814720049E+02 -0.44409484567E+02  0.18899832685E+03  0.17077710857E+03 0.  0.
         24    2    5    5    0    0  0.55593188836E+02 -0.78744148411E+02 -0.75024819609E+02  0.14606334211E+03  0.80090778482E+02 0.  0.
          5    1    5    5  501    0 -0.22064497726E+02  0.19929428362E+02  0.30615335042E+02  0.42934984738E+02  0.47000000000E+01 0. -1.
        -11    1    6    6    0    0  0.12281993489E+01 -0.37285508666E+01  0.15826706367E+02  0.16306293252E+02  0.00000000000E+00 0.  1.
         12    1    6    6    0    0  0.54364989487E+02 -0.75015597545E+02 -0.90851525976E+02  0.12975704886E+03  0.00000000000E+00 0. -1.
         -5    1    3    3    0  503 -0.20949223648E+02  0.94326236926E+02 -0.37859006806E+03  0.39075419202E+03  0.47000000000E+01 0.  1.
         13    1    4    4    0    0 -0.25536066146E+02  0.12373601842E+02 -0.58044560357E+02  0.64609346721E+02  0.00000000000E+00 0. -1.
        -14    1    4    4    0    0  0.12956598684E+02 -0.47885118719E+02 -0.30042422131E+03  0.30449231647E+03  0.00000000000E+00 0.  1.
</event>
<event>
12    1  0.8053217E-002  0.1999979E+03  0.7818608E-02  0.1150195E+00
         21   -1    0    0  503  502  0.00000000000E+00  0.00000000000E+00  0.26515179868E+03  0.26515179868E+03  0.00000000000E+00 0.  1.
         21   -1    0    0  501  503 -0.00000000000E+00 -0.00000000000E+00 -0.14971221486E+03  0.14971221486E+03  0.00000000000E+00 0.  1.
          6    2    1    2  501    0  0.94161304651E+02  0.39156164703E+02  0.45785779506E+02  0.20308387758E+03  0.16954989590E+03 0.  0.
         24    2    3    3    0    0  0.22504605251E+02 -0.39860907875E+02  0.10794697323E+02  0.90723536888E+02  0.77581476017E+02 0.  0.
         -6    2    1    2    0  502 -0.94161304651E+02 -0.39156164703E+02  0.69653804313E+02  0.21178013596E+03  0.17204539227E+03 0.  0.
        -24    2    5    5    0    0 -0.87188598973E+02  0.36029228624E+02  0.66041337551E+02  0.13603977743E+03  0.72425172905E+02 0.  0.
          5    1    3    3  501    0  0.71656699400E+02  0.79017072578E+02  0.34991082183E+02  0.11236034069E+03  0.47000000000E+01 0. -1.
        -13    1    4    4    0    0  0.17444630905E+02 -0.43122687777E+02  0.39726202352E+02  0.61172318102E+02  0.00000000000E+00 0.  1.
         14    1    4    4    0    0  0.50599743456E+01  0.32617799020E+01 -0.28931505029E+02  0.29551218786E+02  0.00000000000E+00 0. -1.
         -5    1    5    5    0  502 -0.69727056778E+01 -0.75185393327E+02  0.36124667625E+01  0.75740358530E+02  0.47000000000E+01 0.  1.
         11    1    6    6    0    0 -0.23048722851E+02  0.13326517503E+02 -0.14732567617E+02  0.30428411763E+02  0.00000000000E+00 0. -1.
        -12    1    6    6    0    0 -0.64139876122E+02  0.22702711121E+02  0.80773905167E+02  0.10561136566E+03  0.00000000000E+00 0.  1.
</event>
<event>
12    1  0.8053217E-002  0.1809973E+03  0.7818608E-02  0.1168219E+00
         21   -1    0    0  501  502  0.00000000000E+00  0.00000000000E+00  0.33718644479E+02  0.33718644479E+02  0.00000000000E+00 0.  1.
         21   -1    0    0  502  503 -0.00000000000E+00 -0.00000000000E+00 -0.10087308335E+04  0.10087308335E+04  0.00000000000E+00 0.  1.
         -6    2    1    2    0  503  0.33110258719E+02  0.39184897096E+02 -0.61481370888E+03  0.63933292704E+03  0.16768705846E+03 0.  0.
        -24    2    3    3    0    0 -0.28654830251E+02  0.27462352456E+02 -0.19086536826E+03  0.21072281308E+03  0.79995218945E+02 0.  0.
          6    2    1    2  501    0 -0.33110258719E+02 -0.39184897096E+02 -0.36019848017E+03  0.40311655097E+03  0.17357494968E+03 0.  0.
         24    2    5    5    0    0  0.14531475411E+02 -0.66148570881E+02 -0.13467583343E+03  0.17099733865E+03  0.80719963508E+02 0.  0.
          5    1    5    5  501    0 -0.47641734129E+02  0.26963673784E+02 -0.22552264674E+03  0.23211921232E+03  0.47000000000E+01 0. -1.
        -13    1    6    6    0    0  0.18070207776E+02 -0.59307585912E+02 -0.14524233738E+03  0.15792168541E+03  0.00000000000E+00 0.  1.
         14    1    6    6    0    0 -0.35387323649E+01 -0.68409849692E+01  0.10566503946E+02  0.13075653243E+02  0.00000000000E+00 0. -1.
         -5    1    3    3    0  503  0.61765088970E+02  0.11722544640E+02 -0.42394834062E+03  0.42861011395E+03  0.47000000000E+01 0.  1.
         11    1    4    4    0    0 -0.37589762809E+02 -0.13908548231E+01 -0.16975329064E+03  0.17387094188E+03  0.00000000000E+00 0. -1.
        -12    1    4    4    0    0  0.89349325580E+01  0.28853207279E+02 -0.21112077616E+02  0.36851871206E+02  0.00000000000E+00 0.  1.
</event>
<event>
12    1  0.8053217E-002  0.1767666E+03  0.7818608E-02  0.1170990E+00
         21   -1    0    0  501  502  0.00000000000E+00  0.00000000000E+00  0.80848253820E+02  0.80848253820E+02  0.00000000000E+00 0. -1.
         21   -1    0    0  502  503 -0.00000000000E+00 -0.00000000000E+00 -0.44466210134E+03  0.44466210134E+03  0.00000000000E+00 0. -1.
         -6    2    1    2    0  503  0.12995192558E+02  0.26449218125E+02 -0.27706107337E+03  0.32860304582E+03  0.17420874597E+03 0.  0.
        -24    2    3    3    0    0 -0.24948869943E+02 -0.85547990136E+01 -0.26239372371E+03  0.27473047171E+03  0.77011266355E+02 0.  0.
          6    2    1    2  501    0 -0.12995192558E+02 -0.26449218125E+02 -0.86752774144E+02  0.19690730934E+03  0.17429288133E+03 0.  0.
         24    2    5    5    0    0 -0.32312178540E+02 -0.55268143853E+02  0.50507194973E+00  0.10288764048E+03  0.80541708817E+02 0.  0.
          5    1    5    5  501    0  0.19316985982E+02  0.28818925728E+02 -0.87257846094E+02  0.94019668860E+02  0.47000000000E+01 0. -1.
        -11    1    6    6    0    0  0.94525655701E+01 -0.50525887049E+02 -0.21174517410E+02  0.55592953200E+02  0.00000000000E+00 0.  1.
         12    1    6    6    0    0 -0.41764744110E+02 -0.47422568042E+01  0.21679589360E+02  0.47294687281E+02  0.00000000000E+00 0. -1.
         -5    1    3    3    0  503  0.37944062501E+02  0.35004017139E+02 -0.14667349666E+02  0.53872574109E+02  0.47000000000E+01 0.  1.
         11    1    4    4    0    0  0.27768589221E+02 -0.70963639061E+01 -0.91115821252E+02  0.95517253993E+02  0.00000000000E+00 0. -1.
        -12    1    4    4    0    0 -0.52717459164E+02 -0.14584351075E+01 -0.17127790245E+03  0.17921321771E+03  0.00000000000E+00 0.  1.
</event>
<event>
12    1  0.8053217E-002  0.1796145E+03  0.7818608E-02  0.1168760E+00
         21   -1    0    0  503  502  0.00000000000E+00  0.00000000000E+00  0.19881220277E+03  0.19881220277E+03  0.00000000000E+00 0. -1.
         21   -1    0    0  501  503 -0.00000000000E+00 -0.00000000000E+00 -0.16747239011E+03  0.16747239011E+03  0.00000000000E+00 0. -1.
          6    2    1    2  501    0 -0.41866901091E+02  0.16306059937E+02 -0.22598576686E+02  0.18103057499E+03  0.17390413570E+03 0.  0.
         24    2    3    3    0    0 -0.84483416949E+02 -0.16833593018E+02  0.16939399008E+02  0.11395043230E+03  0.72642550810E+02 0.  0.
         -6    2    1    2    0  502  0.41866901091E+02 -0.16306059937E+02  0.53938389355E+02  0.18525401789E+03  0.17143796633E+03 0.  0.
        -24    2    5    5    0    0  0.52017351728E+02 -0.69772095628E+02  0.54104275508E+02  0.13063015736E+03  0.81012438402E+02 0.  0.
          5    1    3    3  501    0  0.42616515858E+02  0.33139652955E+02 -0.39537975694E+02  0.67080142694E+02  0.47000000000E+01 0. -1.
        -11    1    4    4    0    0 -0.46698922567E+02  0.14342480839E+02  0.36728327472E+02  0.61118460095E+02  0.00000000000E+00 0.  1.
         12    1    4    4    0    0 -0.37784494382E+02 -0.31176073856E+02 -0.19788928464E+02  0.52831972200E+02  0.00000000000E+00 0. -1.
         -5    1    5    5    0  502 -0.10150450637E+02  0.53466035690E+02 -0.16588615253E+00  0.54623860526E+02  0.47000000000E+01 0.  1.
         11    1    6    6    0    0  0.11242284941E+02 -0.17495890598E+02  0.60547920309E+02  0.64019886069E+02  0.00000000000E+00 0. -1.
        -12    1    6    6    0    0  0.40775066787E+02 -0.52276205030E+02 -0.64436448015E+01  0.66610271296E+02  0.00000000000E+00 0.  1.
</event>
<event>
12    1  0.8053217E-002  0.2484066E+03  0.7818608E-02  0.1114507E+00
         21   -1    0    0  501  502  0.00000000000E+00  0.00000000000E+00  0.59893835140E+03  0.59893835140E+03  0.00000000000E+00 0.  1.
         21   -1    0    0  502  503 -0.00000000000E+00 -0.00000000000E+00 -0.10408808314E+03  0.10408808314E+03  0.00000000000E+00 0. -1.
         -6    2    1    2    0  503 -0.17787186741E+03 -0.10444835290E+02  0.28983818488E+03  0.38094604377E+03  0.17136574643E+03 0.  0.
        -24    2    3    3    0    0 -0.18182548541E+03 -0.27697221916E+02  0.29937675672E+03  0.36029779221E+03  0.79752199754E+02 0.  0.
          6    2    1    2  501    0  0.17787186741E+03  0.10444835290E+02  0.20501208338E+03  0.32208039077E+03  0.17308474220E+03 0.  0.
         24    2    5    5    0    0  0.58681053875E+02  0.51866372381E+02  0.51068882221E+02  0.12297541104E+03  0.79883254330E+02 0.  0.
          5    1    5    5  501    0  0.11919081354E+03 -0.41421537091E+02  0.15394320116E+03  0.19910497972E+03  0.47000000000E+01 0. -1.
        -11    1    6    6    0    0  0.14280112339E+02  0.18289614733E+02  0.62039954455E+02  0.66237357769E+02  0.00000000000E+00 0.  1.
         12    1    6    6    0    0  0.44400941536E+02  0.33576757648E+02 -0.10971072234E+02  0.56738053275E+02  0.00000000000E+00 0. -1.
         -5    1    3    3    0  503  0.39536179994E+01  0.17252386626E+02 -0.95385718396E+01  0.20648251556E+02  0.47000000000E+01 0.  1.
         13    1    4    4    0    0 -0.34424093432E+02  0.98356996439E+01  0.17161157305E+02  0.39702197875E+02  0.00000000000E+00 0. -1.
        -14    1    4    4    0    0 -0.14740139198E+03 -0.37532921560E+02  0.28221559941E+03  0.32059559434E+03  0.00000000000E+00 0.  1.
</event>
<event>
12    1  0.8053217E-002  0.1900442E+03  0.7818608E-02  0.1159280E+00
         21   -1    0    0  501  502  0.00000000000E+00  0.00000000000E+00  0.30575385192E+03  0.30575385192E+03  0.00000000000E+00 0.  1.
         21   -1    0    0  502  503 -0.00000000000E+00 -0.00000000000E+00 -0.11653002904E+03  0.11653002904E+03  0.00000000000E+00 0.  1.
         -6    2    1    2    0  503  0.50273486471E+02  0.52892813969E+02  0.11234645695E+03  0.22076802429E+03  0.17547569903E+03 0.  0.
        -24    2    3    3    0    0  0.66565863050E+02  0.95737105255E+02  0.99532316812E+02  0.17294159836E+03  0.80034410765E+02 0.  0.
          6    2    1    2  501    0 -0.50273486471E+02 -0.52892813969E+02  0.76877365937E+02  0.20151585667E+03  0.17138680779E+03 0.  0.
         24    2    5    5    0    0  0.32351243695E+02 -0.14599514331E+02  0.64834343117E+02  0.10953571082E+03  0.80838302250E+02 0.  0.
          5    1    5    5  501    0 -0.82624730166E+02 -0.38293299638E+02  0.12043022820E+02  0.91980145851E+02  0.47000000000E+01 0. -1.
        -11    1    6    6    0    0  0.23737731440E+02  0.22809365343E+02 -0.14341898173E+01  0.32951539291E+02  0.00000000000E+00 0.  1.
         12    1    6    6    0    0  0.86135122555E+01 -0.37408879674E+02  0.66268532934E+02  0.76584171531E+02  0.00000000000E+00 0. -1.
         -5    1    3    3    0  503 -0.16292376579E+02 -0.42844291286E+02  0.12814140134E+02  0.47826425936E+02  0.47000000000E+01 0.  1.
         11    1    4    4    0    0  0.20148238573E+02  0.43910723705E+02 -0.36985513367E+01  0.48453920955E+02  0.00000000000E+00 0. -1.
        -12    1    4    4    0    0  0.46417624477E+02  0.51826381551E+02  0.10323086815E+03  0.12448767740E+03  0.00000000000E+00 0.  1.
</event>
<event>
12    1  0.8053217E-002  0.2092346E+03  0.7818608E-02  0.1142349E+00
         21   -1    0    0  503  502  0.00000000000E+00  0.00000000000E+00  0.51429297297E+03  0.51429297297E+03  0.00000000000E+00 0.  1.
         21   -1    0    0  501  503 -0.00000000000E+00 -0.00000000000E+00 -0.13324034991E+03  0.13324034991E+03  0.00000000000E+00 0.  1.
          6    2    1    2  501    0  0.68659487731E+02  0.97067274346E+02 -0.50129562983E+01  0.20841402374E+03  0.17109966265E+03 0.  0.
         24    2    3    3    0    0  0.21956451307E+02  0.26211841733E+02 -0.61805572719E+02  0.10619290449E+03  0.79296013415E+02 0.  0.
         -6    2    1    2    0  502 -0.68659487731E+02 -0.97067274346E+02  0.38606557936E+03  0.43911929913E+03  0.17217127025E+03 0.  0.
        -24    2    5    5    0    0  0.22495546534E+02 -0.57540449367E+02  0.25801226432E+03  0.27697321791E+03  0.79541699568E+02 0.  0.
          5    1    3    3  501    0  0.46703036424E+02  0.70855432613E+02  0.56792616421E+02  0.10222111926E+03  0.47000000000E+01 0. -1.
        -13    1    4    4    0    0  0.43885515836E+02 -0.76950242804E+01 -0.22798381424E+02  0.50049156780E+02  0.00000000000E+00 0.  1.
         14    1    4    4    0    0 -0.21929064529E+02  0.33906866014E+02 -0.39007191295E+02  0.56143747708E+02  0.00000000000E+00 0. -1.
         -5    1    5    5    0  502 -0.91155034265E+02 -0.39526824979E+02  0.12805331504E+03  0.16214608123E+03  0.47000000000E+01 0.  1.
         11    1    6    6    0    0  0.34397707057E+02 -0.67675133756E+02  0.15294335385E+03  0.17074775391E+03  0.00000000000E+00 0. -1.
        -12    1    6    6    0    0 -0.11902160523E+02  0.10134684389E+02  0.10506891047E+03  0.10622546400E+03  0.00000000000E+00 0.  1.
</event>
<event>
12    1  0.8053217E-002  0.1775643E+03  0.7818608E-02  0.1171236E+00
         21   -1    0    0  503  502  0.00000000000E+00  0.00000000000E+00  0.46883005229E+02  0.46883005229E+02  0.00000000000E+00 0.  1.
         21   -1    0    0  501  503 -0.00000000000E+00 -0.00000000000E+00 -0.95118869549E+03  0.95118869549E+03  0.00000000000E+00 0.  1.
          6    2    1    2  501    0 -0.20281345559E+02  0.10438440746E+02 -0.72610356844E+03  0.74650645910E+03  0.17182900615E+03 0.  0.
         24    2    3    3    0    0  0.24297645566E+02  0.55861929248E+02 -0.55902246712E+03  0.56765242875E+03  0.77538573579E+02 0.  0.
         -6    2    1    2    0  502  0.20281345559E+02 -0.10438440746E+02 -0.17820212181E+03  0.25156524161E+03  0.17609310192E+03 0.  0.
        -24    2    5    5    0    0  0.43469597809E+02 -0.67708264906E+02 -0.72356043315E+02  0.12891529202E+03  0.70069540040E+02 0.  0.
          5    1    3    3  501    0 -0.44578991125E+02 -0.45423488502E+02 -0.16708110132E+03  0.17885403036E+03  0.47000000000E+01 0. -1.
        -11    1    4    4    0    0  0.49296734852E+02  0.34029657459E+02 -0.44107755004E+03  0.44512648854E+03  0.00000000000E+00 0.  1.
         12    1    4    4    0    0 -0.24999089286E+02  0.21832271789E+02 -0.11794491708E+03  0.12252594020E+03  0.00000000000E+00 0. -1.
         -5    1    5    5    0  502 -0.23188252250E+02  0.57269824160E+02 -0.10584607850E+03  0.12264994959E+03  0.47000000000E+01 0.  1.
         13    1    6    6    0    0  0.35309871637E+02 -0.23023029776E+01 -0.45744635830E+02  0.57833029846E+02  0.00000000000E+00 0. -1.
        -14    1    6    6    0    0  0.81597261718E+01 -0.65405961929E+02 -0.26611407485E+02  0.71082262171E+02  0.00000000000E+00 0.  1.
</event>
<event>
12    1  0.8053217E-002  0.2812619E+03  0.7818608E-02  0.1095728E+00
         21   -1    0    0  503  502  0.00000000000E+00  0.00000000000E+00  0.74127033013E+03  0.74127033013E+03  0.00000000000E+00 0. -1.
         21   -1    0    0  501  503 -0.00000000000E+00 -0.00000000000E+00 -0.11004955465E+03  0.11004955465E+03  0.00000000000E+00 0.  1.
          6    2    1    2  501    0 -0.21419763755E+03  0.25943059642E+02  0.21908863364E+03  0.35235980087E+03  0.17205792514E+03 0.  0.
         24    2    3    3    0    0 -0.38979779896E+02 -0.19854231844E+02  0.99292823722E+02  0.13516906529E+03  0.80610158203E+02 0.  0.
         -6    2    1    2    0  502  0.21419763755E+03 -0.25943059642E+02  0.41213214184E+03  0.49896008390E+03  0.18042891319E+03 0.  0.
        -24    2    5    5    0    0  0.15214525778E+03 -0.83516845637E+02  0.32832186356E+03  0.37974812387E+03  0.79310456578E+02 0.  0.
          5    1    3    3  501    0 -0.17521785766E+03  0.45797291486E+02  0.11979580991E+03  0.21719073558E+03  0.47000000000E+01 0. -1.
        -13    1    4    4    0    0 -0.51009516727E+01  0.25209453417E+02  0.63972350193E+01  0.26503978294E+02  0.00000000000E+00 0.  1.
         14    1    4    4    0    0 -0.33878828223E+02 -0.45063685261E+02  0.92895588703E+02  0.10866508699E+03  0.00000000000E+00 0. -1.
         -5    1    5    5    0  502  0.62052379772E+02  0.57573785995E+02  0.83810278280E+02  0.11921196003E+03  0.47000000000E+01 0.  1.
         13    1    6    6    0    0  0.12745107300E+02  0.29376892399E+01  0.86862034333E+02  0.87841224870E+02  0.00000000000E+00 0. -1.
        -14    1    6    6    0    0  0.13940015048E+03 -0.86454534877E+02  0.24145982923E+03  0.29190689900E+03  0.00000000000E+00 0.  1.
</event>
<event>
12    1  0.8053217E-002  0.2504313E+03  0.7818608E-02  0.1113252E+00
         21   -1    0    0  503  502  0.00000000000E+00  0.00000000000E+00  0.86764888840E+03  0.86764888840E+03  0.00000000000E+00 0.  1.
         21   -1    0    0  501  503 -0.00000000000E+00 -0.00000000000E+00 -0.16023519503E+03  0.16023519503E+03  0.00000000000E+00 0. -1.
          6    2    1    2  501    0  0.84287672018E+02 -0.16040165314E+03 -0.27484219539E+02  0.25193496792E+03  0.17286625973E+03 0.  0.
         24    2    3    3    0    0  0.67668532522E+02 -0.30693291069E+02  0.23973297495E+02  0.11132763864E+03  0.79360038569E+02 0.  0.
         -6    2    1    2    0  502 -0.84287672018E+02  0.16040165314E+03  0.73489791291E+03  0.77594911551E+03  0.17084784307E+03 0.  0.
        -24    2    5    5    0    0  0.10679043594E+02  0.25829409301E+02  0.24525768999E+03  0.25932739337E+03  0.79486867452E+02 0.  0.
          5    1    3    3  501    0  0.16619139496E+02 -0.12970836207E+03 -0.51457517034E+02  0.14060732928E+03  0.47000000000E+01 0. -1.
        -13    1    4    4    0    0  0.66161907725E+02 -0.45993508112E+02 -0.26083670993E+01  0.80620124046E+02  0.00000000000E+00 0.  1.
         14    1    4    4    0    0  0.15066247974E+01  0.15300217043E+02  0.26581664594E+02  0.30707514593E+02  0.00000000000E+00 0. -1.
         -5    1    5    5    0  502 -0.94966715611E+02  0.13457224383E+03  0.48964022292E+03  0.51662172214E+03  0.47000000000E+01 0.  1.
         13    1    6    6    0    0  0.31605757927E+01 -0.26122003628E+02  0.13060742653E+03  0.13323155849E+03  0.00000000000E+00 0. -1.
        -14    1    6    6    0    0  0.75184678008E+01  0.51951412929E+02  0.11465026346E+03  0.12609583489E+03  0.00000000000E+00 0.  1.
</event>
<event>
12    1  0.8053217E-002  0.2319990E+03  0.7818608E-02  0.1125888E+00
         21   -1    0    0  501  502  0.00000000000E+00  0.00000000000E+00  0.41689421448E+03  0.41689421448E+03  0.00000000000E+00 0.  1.
         21   -1    0    0  502  503 -0.00000000000E+00 -0.00000000000E+00 -0.36617931746E+03  0.36617931746E+03  0.00000000000E+00 0.  1.
         -6    2    1    2    0  503  0.14367192044E+03 -0.41136260155E+02 -0.29110525047E+03  0.36995784420E+03  0.17260569810E+03 0.  0.
        -24    2    3    3    0    0 -0.30118668283E+00 -0.12025660343E+02 -0.12237780987E+03  0.14620190169E+03  0.79081985883E+02 0.  0.
          6    2    1    2  501    0 -0.14367192044E+03  0.41136260155E+02  0.34182014749E+03  0.41311568774E+03  0.17745350265E+03 0.  0.
         24    2    5    5    0    0 -0.43355973599E+02 -0.11798647350E+02  0.25591738919E+03  0.27075429021E+03  0.76126388662E+02 0.  0.
          5    1    5    5  501    0 -0.10031594684E+03  0.52934907505E+02  0.85902758301E+02  0.14236139753E+03  0.47000000000E+01 0. -1.
        -11    1    6    6    0    0 -0.61494950454E+02  0.25270472078E+01  0.14616665548E+03  0.15859604684E+03  0.00000000000E+00 0.  1.
         12    1    6    6    0    0  0.18138976855E+02 -0.14325694558E+02  0.10975073370E+03  0.11215824336E+03  0.00000000000E+00 0. -1.
         -5    1    3    3    0  503  0.14397310713E+03 -0.29110599812E+02 -0.16872744060E+03  0.22375594251E+03  0.47000000000E+01 0.  1.
         11    1    4    4    0    0 -0.61670406689E+01  0.22276353916E+02 -0.48332825555E+01  0.23614168515E+02  0.00000000000E+00 0. -1.
        -12    1    4    4    0    0  0.58658539861E+01 -0.34302014259E+02 -0.11754452731E+03  0.12258773318E+03  0.00000000000E+00 0.  1.
</event>
<event>
12    1  0.8053217E-002  0.1847314E+03  0.7818608E-02  0.1164349E+00
         21   -1    0    0  503  502  0.00000000000E+00  0.00000000000E+00  0.14491814537E+03  0.14491814537E+03  0.00000000000E+00 0.  1.
         21   -1    0    0  501  503 -0.00000000000E+00 -0.00000000000E+00 -0.40438060960E+03  0.40438060960E+03  0.00000000000E+00 0.  1.
          6    2    1    2  501    0  0.17882885560E+01  0.53372596840E+02 -0.30925005848E+03  0.35797572242E+03  0.17221842845E+03 0.  0.
         24    2    3    3    0    0 -0.54056021976E+02 -0.99650426786E+01 -0.17144483721E+03  0.19628894928E+03  0.78196315863E+02 0.  0.
         -6    2    1    2    0  502 -0.17882885560E+01 -0.53372596840E+02  0.49787594258E+02  0.19132303255E+03  0.17684418615E+03 0.  0.
        -24    2    5    5    0    0 -0.81328759217E+01 -0.25161660712E+02 -0.41977991618E+02  0.94994825588E+02  0.81009951658E+02 0.  0.
          5    1    3    3  501    0  0.55844310532E+02  0.63337639519E+02 -0.13780522127E+03  0.16168677314E+03  0.47000000000E+01 0. -1.
        -13    1    4    4    0    0 -0.44207122302E+02 -0.87702807530E+01 -0.17850861971E+03  0.18411006164E+03  0.00000000000E+00 0.  1.
         14    1    4    4    0    0 -0.98488996733E+01 -0.11947619255E+01  0.70637824994E+01  0.12178887635E+02  0.00000000000E+00 0. -1.
         -5    1    5    5    0  502  0.63445873657E+01 -0.28210936128E+02  0.91765585876E+02  0.96328206965E+02  0.47000000000E+01 0.  1.
         13    1    6    6    0    0  0.20977583528E+02  0.18188818902E+02 -0.31036435953E+02  0.41643156706E+02  0.00000000000E+00 0. -1.
        -14    1    6    6    0    0 -0.29110459450E+02 -0.43350479614E+02 -0.10941555665E+02  0.53351668882E+02  0.00000000000E+00 0.  1.
</event>
<event>
12    1  0.8053217E-002  0.2092669E+03  0.7818608E-02  0.1142611E+00
         21   -1    0    0  503  502  0.00000000000E+00  0.00000000000E+00  0.24182527322E+03  0.24182527322E+03  0.00000000000E+00 0.  1.
         21   -1    0    0  501  503 -0.00000000000E+00 -0.00000000000E+00 -0.35749154273E+03  0.35749154273E+03  0.00000000000E+00 0.  1.
          6    2    1    2  501    0 -0.11485206974E+03 -0.11735009669E+02 -0.26935401075E+03  0.33967751048E+03  0.17175715311E+03 0.  0.
         24    2    3    3    0    0 -0.14351592305E+03  0.18312318945E+02 -0.21719786068E+03  0.27284329444E+03  0.79601453784E+02 0.  0.
         -6    2    1    2    0  502  0.11485206974E+03  0.11735009669E+02  0.15368774123E+03  0.25963930547E+03  0.17453921841E+03 0.  0.
        -24    2    5    5    0    0  0.77060083972E+02  0.39543866925E+01  0.94574122214E+01  0.11026310225E+03  0.78196006009E+02 0.  0.
          5    1    3    3  501    0  0.28663853307E+02 -0.30047328614E+02 -0.52156150071E+02  0.66834216038E+02  0.47000000000E+01 0. -1.
        -11    1    4    4    0    0 -0.73715913133E+02 -0.16717586021E+02 -0.57160723407E+02  0.94767409123E+02  0.00000000000E+00 0.  1.
         12    1    4    4    0    0 -0.69800009917E+02  0.35029904966E+02 -0.16003713727E+03  0.17807588532E+03  0.00000000000E+00 0. -1.
         -5    1    5    5    0  502  0.37791985771E+02  0.77806229765E+01  0.14423032901E+03  0.14937620322E+03  0.47000000000E+01 0.  1.
         13    1    6    6    0    0  0.40401132200E+01 -0.24083002523E+01  0.32957422141E+02  0.33291351716E+02  0.00000000000E+00 0. -1.
        -14    1    6    6    0    0  0.73019970752E+02  0.63626869449E+01 -0.23500009919E+02  0.76971750533E+02  0.00000000000E+00 0.  1.
</event>
<event>
12    1  0.8053217E-002  0.2617260E+03  0.7818608E-02  0.1106165E+00
         21   -1    0    0  501  502  0.00000000000E+00  0.00000000000E+00  0.23334557419E+03  0.23334557419E+03  0.00000000000E+00 0. -1.
         21   -1    0    0  502  503 -0.00000000000E+00 -0.00000000000E+00 -0.29323435307E+03  0.29323435307E+03  0.00000000000E+00 0. -1.
         -6    2    1    2    0  503 -0.19198218838E+03  0.42611475701E+02 -0.34380501570E+02  0.26361381143E+03  0.17215494233E+03 0.  0.
        -24    2    3    3    0    0 -0.16067161228E+03  0.66248635914E+02  0.20985887739E+02  0.19559473628E+03  0.87250470622E+02 0.  0.
          6    2    1    2  501    0  0.19198218838E+03 -0.42611475701E+02 -0.25508277305E+02  0.26296611584E+03  0.17270670904E+03 0.  0.
         24    2    5    5    0    0  0.17078327113E+03 -0.17854873293E+02  0.36602439441E+02  0.19266594094E+03  0.79339170829E+02 0.  0.
          5    1    5    5  501    0  0.21198917256E+02 -0.24756602408E+02 -0.62110716746E+02  0.70300174895E+02  0.47000000000E+01 0. -1.
        -11    1    6    6    0    0  0.16888234324E+03 -0.12865110742E+02  0.14571667748E+02  0.16999732478E+03  0.00000000000E+00 0.  1.
         12    1    6    6    0    0  0.19009278902E+01 -0.49897625507E+01  0.22030771693E+02  0.22668616159E+02  0.00000000000E+00 0. -1.
         -5    1    3    3    0  503 -0.31310576105E+02 -0.23637160213E+02 -0.55366389308E+02  0.68019075148E+02  0.47000000000E+01 0.  1.
         13    1    4    4    0    0 -0.95174819717E+02  0.50520526889E+01 -0.19426822215E+02  0.97268550755E+02  0.00000000000E+00 0. -1.
        -14    1    4    4    0    0 -0.65496792563E+02  0.61196583225E+02  0.40412709954E+02  0.98326185526E+02  0.00000000000E+00 0.  1.
</event>
<event>
12    1  0.8053217E-002  0.3187652E+03  0.7818608E-02  0.1077316E+00
         21   -1    0    0  501  502  0.00000000000E+00  0.00000000000E+00  0.27534913308E+03  0.27534913308E+03  0.00000000000E+00 0. -1.
         21   -1    0    0  502  503 -0.00000000000E+00 -0.00000000000E+00 -0.37365651952E+03  0.37365651952E+03  0.00000000000E+00 0.  1.
         -6    2    1    2    0  503 -0.11015218461E+03  0.24259118338E+03 -0.11424176004E+03  0.32984241184E+03  0.15735580982E+03 0.  0.
        -24    2    3    3    0    0 -0.96065157542E+02  0.11266316003E+03 -0.10576049858E+03  0.19879372860E+03  0.80075972355E+02 0.  0.
          6    2    1    2  501    0  0.11015218461E+03 -0.24259118338E+03  0.15934373601E+02  0.31916324076E+03  0.17500652547E+03 0.  0.
         24    2    5    5    0    0  0.45280568932E+02 -0.86473851644E+02  0.68456803277E+02  0.14207105174E+03  0.77264434814E+02 0.  0.
          5    1    5    5  501    0  0.64871615679E+02 -0.15611733174E+03 -0.52522429677E+02  0.17709218901E+03  0.47000000000E+01 0. -1.
        -13    1    6    6    0    0  0.22280585038E+02  0.83038155236E+01  0.16087723440E+01  0.23832036639E+02  0.00000000000E+00 0.  1.
         14    1    6    6    0    0  0.22999983894E+02 -0.94777667168E+02  0.66848030933E+02  0.11823901510E+03  0.00000000000E+00 0. -1.
         -5    1    3    3    0  503 -0.14087027069E+02  0.12992802336E+03 -0.84812614634E+01  0.13104868325E+03  0.47000000000E+01 0.  1.
         11    1    4    4    0    0 -0.66748928532E+02  0.29821470362E+02 -0.19518776738E+02  0.75668502034E+02  0.00000000000E+00 0. -1.
        -12    1    4    4    0    0 -0.29316229010E+02  0.82841689666E+02 -0.86241721838E+02  0.12312522656E+03  0.00000000000E+00 0.  1.
</event>
<event>
12    1  0.8053217E-002  0.2155522E+03  0.7818608E-02  0.1137328E+00
         21   -1    0    0  503  502  0.00000000000E+00  0.00000000000E+00  0.80898489341E+02  0.80898489341E+02  0.00000000000E+00 0. -1.
         21   -1    0    0  501  503 -0.00000000000E+00 -0.00000000000E+00 -0.57947247493E+03  0.57947247493E+03  0.00000000000E+00 0. -1.
          6    2    1    2  501    0 -0.61852279336E+02 -0.11426116543E+03 -0.21506723590E+03  0.30449412197E+03  0.17199254627E+03 0.  0.
         24    2    3    3    0    0 -0.10514005847E+03 -0.73787304039E+02 -0.12387169023E+03  0.19563328039E+03  0.80182208896E+02 0.  0.
         -6    2    1    2    0  502  0.61852279336E+02  0.11426116543E+03 -0.28350674969E+03  0.35587684230E+03  0.17143783533E+03 0.  0.
        -24    2    5    5    0    0  0.17061998986E+02 -0.44744277205E+01 -0.15562414678E+03  0.17565375715E+03  0.79525059106E+02 0.  0.
          5    1    3    3  501    0  0.43287779139E+02 -0.40473861396E+02 -0.91195545677E+02  0.10886084158E+03  0.47000000000E+01 0. -1.
        -11    1    4    4    0    0 -0.81703784787E+02 -0.87159150085E+02 -0.78839217304E+02  0.14313576799E+03  0.00000000000E+00 0.  1.
         12    1    4    4    0    0 -0.23436273688E+02  0.13371846046E+02 -0.45032472923E+02  0.52497512404E+02  0.00000000000E+00 0. -1.
         -5    1    5    5    0  502  0.44790280349E+02  0.11873559316E+03 -0.12788260291E+03  0.18022308515E+03  0.47000000000E+01 0.  1.
         13    1    6    6    0    0 -0.15345073191E+02  0.15779357052E+02 -0.12432032455E+03  0.12625372262E+03  0.00000000000E+00 0. -1.
        -14    1    6    6    0    0  0.32407072178E+02 -0.20253784772E+02 -0.31303822235E+02  0.49400034527E+02  0.00000000000E+00 0.  1.
</event>
<event>
12    1  0.8053217E-002  0.1863993E+03  0.7818608E-02  0.1161765E+00
         21   -1    0    0  503  502  0.00000000000E+00  0.00000000000E+00  0.61845947198E+03  0.61845947198E+03  0.00000000000E+00 0. -1.
         21   -1    0    0  501  503 -0.00000000000E+00 -0.00000000000E+00 -0.56186189297E+02  0.56186189297E+02  0.00000000000E+00 0.  1.
          6    2    1    2  501    0 -0.54551024797E+02 -0.47872333742E+02  0.27383949455E+03  0.33125933926E+03  0.17168898167E+03 0.  0.
         24    2    3    3    0    0  0.12518619002E+02 -0.67786209903E+02  0.11811856369E+03  0.16047878448E+03  0.83962843597E+02 0.  0.
         -6    2    1    2    0  502  0.54551024797E+02  0.47872333742E+02  0.28843378813E+03  0.34338632202E+03  0.17161742735E+03 0.  0.
        -24    2    5    5    0    0 -0.55245630944E+01 -0.25127191730E+02  0.90048387001E+02  0.12357534786E+03  0.80624177731E+02 0.  0.
          5    1    3    3  501    0 -0.67069643799E+02  0.19913876161E+02  0.15572093086E+03  0.17078055478E+03  0.47000000000E+01 0. -1.
        -11    1    4    4    0    0  0.13090652230E+00 -0.67025950056E+01 -0.13375372640E+02  0.14961367236E+02  0.00000000000E+00 0.  1.
         12    1    4    4    0    0  0.12387712480E+02 -0.61083614897E+02  0.13149393633E+03  0.14551741724E+03  0.00000000000E+00 0. -1.
         -5    1    5    5    0  502  0.60075587891E+02  0.72999525472E+02  0.19838540113E+03  0.21981097416E+03  0.47000000000E+01 0.  1.
         11    1    6    6    0    0  0.27822310405E+02 -0.20459964778E+02  0.88191442665E+01  0.35643630856E+02  0.00000000000E+00 0. -1.
        -12    1    6    6    0    0 -0.33346873499E+02 -0.46672269523E+01  0.81229242735E+02  0.87931717002E+02  0.00000000000E+00 0.  1.
</event>
<event>
12    1  0.8053217E-002  0.1995791E+03  0.7818608E-02  0.1150441E+00
         21   -1    0    0  501  502  0.00000000000E+00  0.00000000000E+00  0.38856656857E+03  0.38856656857E+03  0.00000000000E+00 0.  1.
         21   -1    0    0  502  503 -0.00000000000E+00 -0.00000000000E+00 -0.28826506899E+03  0.28826506899E+03  0.00000000000E+00 0.  1.
         -6    2    1    2    0  503  0.53138173503E+02 -0.86420646165E+02 -0.22204563404E+03  0.29855665865E+03  0.17187094361E+03 0.  0.
        -24    2    3    3    0    0  0.49348759660E+02  0.11241267951E+02 -0.12759987608E+03  0.16256290760E+03  0.87082170205E+02 0.  0.
          6    2    1    2  501    0 -0.53138173503E+02  0.86420646165E+02  0.32234713362E+03  0.37827497892E+03  0.16997673826E+03 0.  0.
         24    2    5    5    0    0 -0.19030814569E+02  0.24777904396E+02  0.28840526631E+03  0.29993418556E+03  0.76202372571E+02 0.  0.
          5    1    5    5  501    0 -0.34107358934E+02  0.61642741769E+02  0.33941867316E+02  0.78340793353E+02  0.47000000000E+01 0. -1.
        -13    1    6    6    0    0  0.29274839991E+02  0.32561194030E+01  0.10636052726E+03  0.11036385426E+03  0.00000000000E+00 0.  1.
         14    1    6    6    0    0 -0.48305654560E+02  0.21521784993E+02  0.18204473905E+03  0.18957033130E+03  0.00000000000E+00 0. -1.
         -5    1    3    3    0  503  0.37894138434E+01 -0.97661914116E+02 -0.94445757967E+02  0.13599375105E+03  0.47000000000E+01 0.  1.
         13    1    4    4    0    0  0.35813740572E+02  0.91518729502E+01 -0.28617390619E+01  0.37075198485E+02  0.00000000000E+00 0. -1.
        -14    1    4    4    0    0  0.13535019088E+02  0.20893950010E+01 -0.12473813701E+03  0.12548770912E+03  0.00000000000E+00 0.  1.
</event>
<event>
12    1  0.8053217E-002  0.2085233E+03  0.7818608E-02  0.1143908E+00
         21   -1    0    0  501  502  0.00000000000E+00  0.00000000000E+00  0.10550198747E+04  0.10550198747E+04  0.00000000000E+00 0.  1.
         21   -1    0    0  502  503 -0.00000000000E+00 -0.00000000000E+00 -0.51926862114E+02  0.51926862114E+02  0.00000000000E+00 0.  1.
         -6    2    1    2    0  503 -0.10674967240E+03  0.49619812094E+02  0.24267527057E+03  0.31995820977E+03  0.17211725870E+03 0.  0.
        -24    2    3    3    0    0 -0.44278902440E+02  0.13686915716E+02  0.22821825820E+03  0.24630452453E+03  0.80214665524E+02 0.  0.
          6    2    1    2  501    0  0.10674967240E+03 -0.49619812094E+02  0.76041774201E+03  0.78698852704E+03  0.16510051793E+03 0.  0.
         24    2    5    5    0    0  0.10488203890E+03 -0.87115624312E+02  0.50466366792E+03  0.52845098546E+03  0.77366997099E+02 0.  0.
          5    1    5    5  501    0  0.18676335014E+01  0.37495812218E+02  0.25575407409E+03  0.25853754158E+03  0.47000000000E+01 0. -1.
        -11    1    6    6    0    0  0.10181992335E+03 -0.39935325383E+02  0.36142147466E+03  0.37760774535E+03  0.00000000000E+00 0.  1.
         12    1    6    6    0    0  0.30621155510E+01 -0.47180298929E+02  0.14324219326E+03  0.15084324012E+03  0.00000000000E+00 0. -1.
         -5    1    3    3    0  503 -0.62470769962E+02  0.35932896378E+02  0.14457012365E+02  0.73653685232E+02  0.47000000000E+01 0.  1.
         11    1    4    4    0    0  0.18284188410E+01 -0.27865432400E+02  0.46083442817E+02  0.53884219769E+02  0.00000000000E+00 0. -1.
        -12    1    4    4    0    0 -0.46107321281E+02  0.41552348116E+02  0.18213481539E+03  0.19242030476E+03  0.00000000000E+00 0.  1.
</event>
<event>
12    1  0.8053217E-002  0.2673289E+03  0.7818608E-02  0.1102845E+00
         21   -1    0    0  501  502  0.00000000000E+00  0.00000000000E+00  0.27757002562E+03  0.27757002562E+03  0.00000000000E+00 0. -1.
         21   -1    0    0  502  503 -0.00000000000E+00 -0.00000000000E+00 -0.26031667719E+03  0.26031667719E+03  0.00000000000E+00 0. -1.
         -6    2    1    2    0  503  0.17496234082E+03  0.10749033298E+03 -0.20398972630E+02  0.26810607444E+03  0.17116879587E+03 0.  0.
        -24    2    3    3    0    0  0.15355598592E+03  0.75957607176E+02  0.43200288851E+02  0.19381273094E+03  0.79675032594E+02 0.  0.
          6    2    1    2  501    0 -0.17496234082E+03 -0.10749033298E+03  0.37652321060E+02  0.26978062837E+03  0.17087392362E+03 0.  0.
         24    2    5    5    0    0 -0.56149593965E+02 -0.78866797887E+01  0.55414210099E+02  0.11365589860E+03  0.81436797482E+02 0.  0.
          5    1    5    5  501    0 -0.11881274685E+03 -0.99603653194E+02 -0.17761889038E+02  0.15612472977E+03  0.47000000000E+01 0. -1.
        -13    1    6    6    0    0  0.61167224512E+01 -0.12338570420E+02 -0.14452685287E+02  0.19963334530E+02  0.00000000000E+00 0.  1.
         14    1    6    6    0    0 -0.62266316416E+02  0.44518906308E+01  0.69866895386E+02  0.93692564065E+02  0.00000000000E+00 0. -1.
         -5    1    3    3    0  503  0.21406354893E+02  0.31532725806E+02 -0.63599261481E+02  0.74293343493E+02  0.47000000000E+01 0.  1.
         13    1    4    4    0    0  0.74410037090E+02  0.46922574822E+02 -0.17802976427E+02  0.89752591146E+02  0.00000000000E+00 0. -1.
        -14    1    4    4    0    0  0.79145948832E+02  0.29035032355E+02  0.61003265278E+02  0.10406013980E+03  0.00000000000E+00 0.  1.
</event>
<event>
12    1  0.8053217E-002  0.1726111E+03  0.7818608E-02  0.1175634E+00
         21   -1    0    0  501  502  0.00000000000E+00  0.00000000000E+00  0.75640165772E+03  0.75640165772E+03  0.00000000000E+00 0. -1.
         21   -1    0    0  502  503 -0.00000000000E+00 -0.00000000000E+00 -0.40396836515E+02  0.40396836515E+02  0.00000000000E+00 0. -1.
         -6    2    1    2    0  503  0.82403823098E+01 -0.86949964784E+01  0.28106762154E+03  0.32886159299E+03  0.17031568512E+03 0.  0.
        -24    2    3    3    0    0  0.42596002661E+02  0.34472271347E+02  0.24802377803E+03  0.26438130720E+03  0.73341149386E+02 0.  0.
          6    2    1    2  501    0 -0.82403823098E+01  0.86949964784E+01  0.43493719966E+03  0.46793690125E+03  0.17219485775E+03 0.  0.
         24    2    5    5    0    0  0.55674222004E+02 -0.36529179682E+01  0.17479311576E+03  0.19973067085E+03  0.78909725350E+02 0.  0.
          5    1    5    5  501    0 -0.63914604314E+02  0.12347914447E+02  0.26014408390E+03  0.26820623039E+03  0.47000000000E+01 0. -1.
        -13    1    6    6    0    0 -0.51496529282E+01  0.23221988657E+02  0.19354035573E+02  0.30665263335E+02  0.00000000000E+00 0.  1.
         14    1    6    6    0    0  0.60823874932E+02 -0.26874906625E+02  0.15543908019E+03  0.16906540752E+03  0.00000000000E+00 0. -1.
         -5    1    3    3    0  503 -0.34355620351E+02 -0.43167267825E+02  0.33043843510E+02  0.64480285786E+02  0.47000000000E+01 0.  1.
         13    1    4    4    0    0  0.28600235624E+02 -0.11600605287E+02  0.38233697594E+02  0.49136169493E+02  0.00000000000E+00 0. -1.
        -14    1    4    4    0    0  0.13995767037E+02  0.46072876634E+02  0.20979008044E+03  0.21524513771E+03  0.00000000000E+00 0.  1.
</event>
<event>
12    1  0.8053217E-002  0.1996076E+03  0.7818608E-02  0.1150375E+00
         21   -1    0    0  501  502  0.00000000000E+00  0.00000000000E+00  0.11369610537E+03  0.11369610537E+03  0.00000000000E+00 0.  1.
         21   -1    0    0  502  503 -0.00000000000E+00 -0.00000000000E+00 -0.59394508232E+03  0.59394508232E+03  0.00000000000E+00 0.  1.
         -6    2    1    2    0  503 -0.87914951735E+02 -0.51217352180E+02 -0.46835141467E+03  0.50911318313E+03  0.17172923370E+03 0.  0.
        -24    2    3    3    0    0 -0.31185365298E+02 -0.35784498244E+02 -0.10224730510E+03  0.13828879342E+03  0.80101321225E+02 0.  0.
          6    2    1    2  501    0  0.87914951735E+02  0.51217352180E+02 -0.11897562278E+02  0.19852800457E+03  0.17005752176E+03 0.  0.
         24    2    5    5    0    0 -0.11343577430E+02 -0.33149607800E+01  0.16429148022E+02  0.81692559240E+02  0.79146014534E+02 0.  0.
          5    1    5    5  501    0  0.99258529165E+02  0.54532312960E+02 -0.28326710300E+02  0.11683544533E+03  0.47000000000E+01 0. -1.
        -11    1    6    6    0    0  0.47074053919E+00 -0.15628355118E+00 -0.31867654668E+02  0.31871514480E+02  0.00000000000E+00 0.  1.
         12    1    6    6    0    0 -0.11814317969E+02 -0.31586772288E+01  0.48296802690E+02  0.49821044760E+02  0.00000000000E+00 0. -1.
         -5    1    3    3    0  503 -0.56729586437E+02 -0.15432853936E+02 -0.36610410957E+03  0.37082438970E+03  0.47000000000E+01 0.  1.
         11    1    4    4    0    0 -0.35823267758E+02 -0.51877774938E+02 -0.10382433349E+03  0.12146646562E+03  0.00000000000E+00 0. -1.
        -12    1    4    4    0    0  0.46379024602E+01  0.16093276695E+02  0.15770283927E+01  0.16822327798E+02  0.00000000000E+00 0.  1.
</event>
<event>
12    1  0.8053217E-002  0.2298141E+03  0.7818608E-02  0.1126878E+00
         21   -1    0    0  503  502  0.00000000000E+00  0.00000000000E+00  0.14123476239E+03  0.14123476239E+03  0.00000000000E+00 0.  1.
         21   -1    0    0  501  503 -0.00000000000E+00 -0.00000000000E+00 -0.45580148227E+03  0.45580148227E+03  0.00000000000E+00 0.  1.
          6    2    1    2  501    0  0.34867512227E+02  0.14828289180E+03 -0.28471945875E+03  0.36589572043E+03  0.17207832121E+03 0.  0.
         24    2    3    3    0    0 -0.80551298779E+01  0.35826684709E+02 -0.20027726419E+03  0.21878580934E+03  0.80048806136E+02 0.  0.
         -6    2    1    2    0  502 -0.34867512227E+02 -0.14828289180E+03 -0.29847261131E+02  0.23114052423E+03  0.17126448416E+03 0.  0.
        -24    2    5    5    0    0 -0.55096607948E+02 -0.83024030939E+02 -0.75320985264E+02  0.14893416912E+03  0.81114178717E+02 0.  0.
          5    1    3    3  501    0  0.42922642105E+02  0.11245620709E+03 -0.84442194562E+02  0.14710991109E+03  0.47000000000E+01 0. -1.
        -13    1    4    4    0    0  0.14124558716E+02 -0.15822515495E+02 -0.17303575415E+02  0.27372776213E+02  0.00000000000E+00 0.  1.
         14    1    4    4    0    0 -0.22179688593E+02  0.51649200203E+02 -0.18297368878E+03  0.19141303313E+03  0.00000000000E+00 0. -1.
         -5    1    5    5    0  502  0.20229095721E+02 -0.65258860859E+02  0.45473724133E+02  0.82206355112E+02  0.47000000000E+01 0.  1.
         13    1    6    6    0    0  0.12740423071E+02 -0.36138865429E+02 -0.16471405559E+01  0.38354257215E+02  0.00000000000E+00 0. -1.
        -14    1    6    6    0    0 -0.67837031019E+02 -0.46885165511E+02 -0.73673844708E+02  0.11057991190E+03  0.00000000000E+00 0.  1.
</event>
<event>
12    1  0.8053217E-002  0.1868370E+03  0.7818608E-02  0.1161861E+00
         21   -1    0    0  501  502  0.00000000000E+00  0.00000000000E+00  0.12506929556E+04  0.12506929556E+04  0.00000000000E+00 0.  1.
         21   -1    0    0  502  503 -0.00000000000E+00 -0.00000000000E+00 -0.11784320782E+03  0.11784320782E+03  0.00000000000E+00 0.  1.
         -6    2    1    2    0  503  0.64154104110E+02 -0.29756184642E+02 -0.33232762165E+02  0.18758041387E+03  0.17053098132E+03 0.  0.
        -24    2    3    3    0    0 -0.26813138407E+02 -0.21100309046E+02  0.13932038473E+02  0.84640762559E+02  0.76195731885E+02 0.  0.
          6    2    1    2  501    0 -0.64154104110E+02  0.29756184642E+02  0.11660825099E+04  0.11809557495E+04  0.17293606564E+03 0.  0.
         24    2    5    5    0    0 -0.66461833362E+02  0.18012597728E+02  0.11630330986E+04  0.11677411229E+04  0.78941197319E+02 0.  0.
          5    1    5    5  501    0  0.23077292523E+01  0.11743586914E+02  0.30494113046E+01  0.13214626639E+02  0.47000000000E+01 0. -1.
        -13    1    6    6    0    0 -0.23767337196E+02 -0.31157596096E+02  0.38599615548E+03  0.38798030125E+03  0.00000000000E+00 0.  1.
         14    1    6    6    0    0 -0.42694496166E+02  0.49170193824E+02  0.77703694313E+03  0.77976082163E+03  0.00000000000E+00 0. -1.
         -5    1    3    3    0  503  0.90967242517E+02 -0.86558755960E+01 -0.47164800638E+02  0.10293965131E+03  0.47000000000E+01 0.  1.
         11    1    4    4    0    0 -0.12130701037E+02 -0.47743295774E+02  0.20771608848E+02  0.53460601690E+02  0.00000000000E+00 0. -1.
        -12    1    4    4    0    0 -0.14682437370E+02  0.26642986727E+02 -0.68395703751E+01  0.31180160868E+02  0.00000000000E+00 0.  1.
</event>
<event>
12    1  0.8053217E-002  0.2094055E+03  0.7818608E-02  0.1142289E+00
         21   -1    0    0  501  502  0.00000000000E+00  0.00000000000E+00  0.35881967060E+03  0.35881967060E+03  0.00000000000E+00 0.  1.
         21   -1    0    0  502  503 -0.00000000000E+00 -0.00000000000E+00 -0.12236749052E+03  0.12236749052E+03  0.00000000000E+00 0. -1.
         -6    2    1    2    0  503  0.11157094997E+03  0.39072920932E+02  0.13842422936E+03  0.24997265164E+03  0.17131926122E+03 0.  0.
        -24    2    3    3    0    0  0.66161761689E+02  0.53826470211E+02  0.15913540396E+03  0.19771650990E+03  0.80579612108E+02 0.  0.
          6    2    1    2  501    0 -0.11157094997E+03 -0.39072920932E+02  0.98027950715E+02  0.23121450948E+03  0.17284646437E+03 0.  0.
         24    2    5    5    0    0 -0.12142397720E+03 -0.12046083064E+02  0.12466101063E+03  0.19173107002E+03  0.79571007829E+02 0.  0.
          5    1    5    5  501    0  0.98530272271E+01 -0.27026837868E+02 -0.26633059912E+02  0.39483439452E+02  0.47000000000E+01 0. -1.
        -13    1    6    6    0    0  0.11257773687E+02  0.41577507843E+01  0.98921051035E+01  0.15552430786E+02  0.00000000000E+00 0.  1.
         14    1    6    6    0    0 -0.13268175088E+03 -0.16203833848E+02  0.11476890552E+03  0.17617863924E+03  0.00000000000E+00 0. -1.
         -5    1    3    3    0  503  0.45409188280E+02 -0.14753549279E+02 -0.20711174596E+02  0.52256141741E+02  0.47000000000E+01 0.  1.
         13    1    4    4    0    0  0.35890582331E+02  0.63589534432E+02  0.62947343529E+02  0.96406072665E+02  0.00000000000E+00 0. -1.
        -14    1    4    4    0    0  0.30271179358E+02 -0.97630642215E+01  0.96188060432E+02  0.10131043723E+03  0.00000000000E+00 0.  1.
</event>
<event>
12    1  0.8053217E-002  0.2211114E+03  0.7818608E-02  0.1133394E+00
         21   -1    0    0  503  502  0.00000000000E+00  0.00000000000E+00  0.10229793918E+03  0.10229793918E+03  0.00000000000E+00 0. -1.
         21   -1    0    0  501  503 -0.00000000000E+00 -0.00000000000E+00 -0.49288509010E+03  0.49288509010E+03  0.00000000000E+00 0. -1.
          6    2    1    2  501    0 -0.35686674895E+02  0.13244174875E+03 -0.25429884615E+03  0.33698389687E+03  0.17342401224E+03 0.  0.
         24    2    3    3    0    0  0.12663585933E+02  0.71005996874E+02 -0.23203461935E+03  0.25555979034E+03  0.79174009996E+02 0.  0.
         -6    2    1    2    0  502  0.35686674895E+02 -0.13244174875E+03 -0.13628830477E+03  0.25819913240E+03  0.17110796118E+03 0.  0.
        -24    2    5    5    0    0 -0.43218401406E+02 -0.81963428354E+02 -0.46716887084E+02  0.12851027104E+03  0.75806255779E+02 0.  0.
          5    1    3    3  501    0 -0.48350260828E+02  0.61435751872E+02 -0.22264226798E+02  0.81424106536E+02  0.47000000000E+01 0. -1.
        -11    1    4    4    0    0  0.26037570202E+02 -0.75461055640E+01 -0.50767303354E+02  0.57551871047E+02  0.00000000000E+00 0.  1.
         12    1    4    4    0    0 -0.13373984268E+02  0.78552102438E+02 -0.18126731600E+03  0.19800791929E+03  0.00000000000E+00 0. -1.
         -5    1    5    5    0  502  0.78905076300E+02 -0.50478320392E+02 -0.89571417688E+02  0.12968886137E+03  0.47000000000E+01 0.  1.
         11    1    6    6    0    0 -0.12605701422E+02 -0.67582584793E+02  0.24983720963E+01  0.68793541404E+02  0.00000000000E+00 0. -1.
        -12    1    6    6    0    0 -0.30612699984E+02 -0.14380843561E+02 -0.49215259180E+02  0.59716729632E+02  0.00000000000E+00 0.  1.
</event>
<event>
12    1  0.8053217E-002  0.2453363E+03  0.7818608E-02  0.1116472E+00
         21   -1    0    0  501  502  0.00000000000E+00  0.00000000000E+00  0.80970299343E+02  0.80970299343E+02  0.00000000000E+00 0. -1.
         21   -1    0    0  502  503 -0.00000000000E+00 -0.00000000000E+00 -0.85446942485E+03  0.85446942485E+03  0.00000000000E+00 0. -1.
         -6    2    1    2    0  503  0.20010821297E+02  0.17357566798E+03 -0.21472837686E+03  0.32518187964E+03  0.17060490479E+03 0.  0.
        -24    2    3    3    0    0 -0.46490496955E+02  0.14327604871E+03 -0.15323023983E+03  0.22955446143E+03  0.80785839853E+02 0.  0.
          6    2    1    2  501    0 -0.20010821297E+02 -0.17357566798E+03 -0.55877074865E+03  0.61025784455E+03  0.17222352280E+03 0.  0.
         24    2    5    5    0    0 -0.29588997729E+02 -0.19159266686E+03 -0.54835627539E+03  0.58687184519E+03  0.78362613150E+02 0.  0.
          5    1    5    5  501    0  0.95781764317E+01  0.18016998887E+02 -0.10414473264E+02  0.23385999359E+02  0.47000000000E+01 0. -1.
        -13    1    6    6    0    0 -0.94473205942E+01 -0.74164168280E+02 -0.32753195434E+03  0.33595648057E+03  0.00000000000E+00 0.  1.
         14    1    6    6    0    0 -0.20141677134E+02 -0.11742849858E+03 -0.22082432105E+03  0.25091536462E+03  0.00000000000E+00 0. -1.
         -5    1    3    3    0  503  0.66501318252E+02  0.30299619263E+02 -0.61498137024E+02  0.95627418213E+02  0.47000000000E+01 0.  1.
         11    1    4    4    0    0 -0.67618685255E+00  0.83294447186E+02 -0.37411414304E+02  0.91312847294E+02  0.00000000000E+00 0. -1.
        -12    1    4    4    0    0 -0.45814310102E+02  0.59981601527E+02 -0.11581882553E+03  0.13824161413E+03  0.00000000000E+00 0.  1.
</event>
<event>
12    1  0.8053217E-002  0.1843166E+03  0.7818608E-02  0.1163699E+00
         21   -1    0    0  503  502  0.00000000000E+00  0.00000000000E+00  0.43398615886E+02  0.43398615886E+02  0.00000000000E+00 0.  1.
         21   -1    0    0  501  503 -0.00000000000E+00 -0.00000000000E+00 -0.14023370760E+04  0.14023370760E+04  0.00000000000E+00 0.  1.
          6    2    1    2  501    0 -0.59914757019E+02  0.27350484378E+02 -0.11599633009E+04  0.11745093659E+04  0.17210335309E+03 0.  0.
         24    2    3    3    0    0 -0.62554769176E+02 -0.52851496745E+01 -0.11092330834E+04  0.11139478333E+04  0.80874655645E+02 0.  0.
         -6    2    1    2    0  502  0.59914757019E+02 -0.27350484378E+02 -0.19897515924E+03  0.27122632597E+03  0.17214754950E+03 0.  0.
        -24    2    5    5    0    0  0.15736593594E+02 -0.73231296352E+02 -0.16625788709E+03  0.19946791930E+03  0.80841218863E+02 0.  0.
          5    1    3    3  501    0  0.26400121566E+01  0.32635634053E+02 -0.50730217450E+02  0.60561532648E+02  0.47000000000E+01 0. -1.
        -11    1    4    4    0    0 -0.82035035250E+02 -0.73688364255E+01 -0.85328269462E+03  0.85724874086E+03  0.00000000000E+00 0.  1.
         12    1    4    4    0    0  0.19480266074E+02  0.20836867510E+01 -0.25595038883E+03  0.25669909243E+03  0.00000000000E+00 0. -1.
         -5    1    5    5    0  502  0.44178163425E+02  0.45880811974E+02 -0.32717272154E+02  0.71758406673E+02  0.47000000000E+01 0.  1.
         13    1    6    6    0    0  0.48817421811E+02 -0.49218143489E+02 -0.10341440556E+03  0.12449942007E+03  0.00000000000E+00 0. -1.
        -14    1    6    6    0    0 -0.33080828217E+02 -0.24013152864E+02 -0.62843481528E+02  0.74968499228E+02  0.00000000000E+00 0.  1.
</event>
<event>
12    1  0.8053217E-002  0.5141201E+03  0.7818608E-02  0.1010159E+00
         21   -1    0    0  503  502  0.00000000000E+00  0.00000000000E+00  0.21738034700E+04  0.21738034700E+04  0.00000000000E+00 0.  1.
         21   -1    0    0  501  503 -0.00000000000E+00 -0.00000000000E+00 -0.12160639689E+03  0.12160639689E+03  0.00000000000E+00 0. -1.
          6    2    1    2  501    0 -0.50021307139E+02  0.48199599924E+03  0.10125984940E+04  0.11356320095E+04  0.17170345508E+03 0.  0.
         24    2    3    3    0    0 -0.44271181081E+02  0.16366397587E+03  0.47659250109E+03  0.51217964123E+03  0.80260440625E+02 0.  0.
         -6    2    1    2    0  502  0.50021307139E+02 -0.48199599924E+03  0.10395985791E+04  0.11597778574E+04  0.17174748430E+03 0.  0.
        -24    2    5    5    0    0 -0.63623541078E+01 -0.38562578981E+03  0.71113170131E+03  0.81282121121E+03  0.78881528021E+02 0.  0.
          5    1    3    3  501    0 -0.57501260578E+01  0.31833202336E+03  0.53600599291E+03  0.62345236826E+03  0.47000000000E+01 0. -1.
        -13    1    4    4    0    0 -0.31084535830E+02  0.16533945453E+03  0.39239576744E+03  0.42694006827E+03  0.00000000000E+00 0.  1.
         14    1    4    4    0    0 -0.13186645251E+02 -0.16754786574E+01  0.84196733651E+02  0.85239572965E+02  0.00000000000E+00 0. -1.
         -5    1    5    5    0  502  0.56383661247E+02 -0.96370209421E+02  0.32846687779E+03  0.34695664618E+03  0.47000000000E+01 0.  1.
         11    1    6    6    0    0 -0.18799034757E+02 -0.22435123232E+03  0.48590772785E+03  0.53553076395E+03  0.00000000000E+00 0. -1.
        -12    1    6    6    0    0  0.12436680650E+02 -0.16127455749E+03  0.22522397346E+03  0.27729044726E+03  0.00000000000E+00 0.  1.
</event>
<event>
12    1  0.8053217E-002  0.2955800E+03  0.7818608E-02  0.1087481E+00
         21   -1    0    0  501  502  0.00000000000E+00  0.00000000000E+00  0.39947055979E+03  0.39947055979E+03  0.00000000000E+00 0. -1.
         21   -1    0    0  502  503 -0.00000000000E+00 -0.00000000000E+00 -0.26235948470E+03  0.26235948470E+03  0.00000000000E+00 0.  1.
         -6    2    1    2    0  503 -0.23966716826E+03 -0.20347179216E+02  0.20361869501E+03  0.35886008576E+03  0.17165555321E+03 0.  0.
        -24    2    3    3    0    0 -0.24807339853E+03  0.10416105872E+02  0.19557391284E+03  0.32563580342E+03  0.78362074806E+02 0.  0.
          6    2    1    2  501    0  0.23966716826E+03  0.20347179216E+02 -0.66507619917E+02  0.30296995873E+03  0.17179398459E+03 0.  0.
         24    2    5    5    0    0  0.15933149741E+03 -0.52511909186E+02 -0.48801648950E+02  0.19297969470E+03  0.81948367597E+02 0.  0.
          5    1    5    5  501    0  0.80335670852E+02  0.72859088402E+02 -0.17705970967E+02  0.10999026403E+03  0.47000000000E+01 0. -1.
        -13    1    6    6    0    0  0.42972238515E+02 -0.43529195281E+01 -0.51251274488E+02  0.67024281630E+02  0.00000000000E+00 0.  1.
         14    1    6    6    0    0  0.11635925890E+03 -0.48158989658E+02  0.24496255380E+01  0.12595541307E+03  0.00000000000E+00 0. -1.
         -5    1    3    3    0  503  0.84062302663E+01 -0.30763285088E+02  0.80447821732E+01  0.33224282339E+02  0.47000000000E+01 0.  1.
         11    1    4    4    0    0 -0.85165812739E+02 -0.19186959648E+02  0.32259387005E+02  0.93069990491E+02  0.00000000000E+00 0. -1.
        -12    1    4    4    0    0 -0.16290758579E+03  0.29603065520E+02  0.16331452583E+03  0.23256581293E+03  0.00000000000E+00 0.  1.
</event>
<event>
12    1  0.8053217E-002  0.2318903E+03  0.7818608E-02  0.1125693E+00
         21   -1    0    0  501  502  0.00000000000E+00  0.00000000000E+00  0.15765555357E+03  0.15765555357E+03  0.00000000000E+00 0.  1.
         21   -1    0    0  502  503 -0.00000000000E+00 -0.00000000000E+00 -0.64988826820E+03  0.64988826820E+03  0.00000000000E+00 0.  1.
         -6    2    1    2    0  503  0.10215312111E+03 -0.11644561814E+03 -0.52526861084E+03  0.57331210597E+03  0.16966088286E+03 0.  0.
        -24    2    3    3    0    0  0.13082403629E+03 -0.11697312238E+03 -0.38383718829E+03  0.42892638325E+03  0.76480162817E+02 0.  0.
          6    2    1    2  501    0 -0.10215312111E+03  0.11644561814E+03  0.33035896215E+02  0.23423171580E+03  0.17256385517E+03 0.  0.
         24    2    5    5    0    0 -0.13493872304E+03  0.91424844029E+02  0.34065263415E+01  0.18323245708E+03  0.83639511137E+02 0.  0.
          5    1    5    5  501    0  0.32785601929E+02  0.25020774109E+02  0.29629369874E+02  0.50999258720E+02  0.47000000000E+01 0. -1.
        -11    1    6    6    0    0 -0.12233905127E+03  0.39732492820E+02  0.12574818616E+02  0.12924256464E+03  0.00000000000E+00 0.  1.
         12    1    6    6    0    0 -0.12599671772E+02  0.51692351210E+02 -0.91682922741E+01  0.53989892439E+02  0.00000000000E+00 0. -1.
         -5    1    3    3    0  503 -0.28670915179E+02  0.52750424100E+00 -0.14143142256E+03  0.14438572272E+03  0.47000000000E+01 0.  1.
         13    1    4    4    0    0  0.11936961153E+03 -0.65747643860E+02 -0.30681072843E+03  0.33571517677E+03  0.00000000000E+00 0. -1.
        -14    1    4    4    0    0  0.11454424759E+02 -0.51225478520E+02 -0.77026459853E+02  0.93211206481E+02  0.00000000000E+00 0.  1.
</event>
<event>
12    1  0.8053217E-002  0.2872478E+03  0.7818608E-02  0.1091851E+00
         21   -1    0    0  501  502  0.00000000000E+00  0.00000000000E+00  0.35659998002E+03  0.35659998002E+03  0.00000000000E+00 0. -1.
         21   -1    0    0  502  503 -0.00000000000E+00 -0.00000000000E+00 -0.39884853816E+03  0.39884853816E+03  0.00000000000E+00 0.  1.
         -6    2    1    2    0  503  0.22863458415E+03  0.17209688327E+02 -0.26612132827E+03  0.39126409683E+03  0.17232842386E+03 0.  0.
        -24    2    3    3    0    0  0.52085745223E+02 -0.25504509339E+02 -0.75105969634E+02  0.12762997074E+03  0.85352784976E+02 0.  0.
          6    2    1    2  501    0 -0.22863458415E+03 -0.17209688327E+02  0.22387277013E+03  0.36418442135E+03  0.17303562958E+03 0.  0.
         24    2    5    5    0    0 -0.23702979835E+03 -0.20143501092E+02  0.15410407899E+03  0.29369437139E+03  0.76937836511E+02 0.  0.
          5    1    5    5  501    0  0.83952141960E+01  0.29338127652E+01  0.69768691142E+02  0.70490049953E+02  0.47000000000E+01 0. -1.
        -11    1    6    6    0    0 -0.14441378865E+03  0.28313053957E+01  0.13216234000E+03  0.19578110929E+03  0.00000000000E+00 0.  1.
         12    1    6    6    0    0 -0.92616009696E+02 -0.22974806488E+02  0.21941738991E+02  0.97913262101E+02  0.00000000000E+00 0. -1.
         -5    1    3    3    0  503  0.17654883893E+03  0.42714197666E+02 -0.19101535863E+03  0.26363412610E+03  0.47000000000E+01 0.  1.
         13    1    4    4    0    0 -0.78116922349E+01  0.21950531797E+02 -0.47953739755E+01  0.23787475556E+02  0.00000000000E+00 0. -1.
        -14    1    4    4    0    0  0.59897437458E+02 -0.47455041136E+02 -0.70310595658E+02  0.10384249518E+03  0.00000000000E+00 0.  1.
</event>
<event>
12    1  0.8053217E-002  0.2177263E+03  0.7818608E-02  0.1137498E+00
         21   -1    0    0  503  502  0.00000000000E+00  0.00000000000E+00  0.16008489634E+03  0.16008489634E+03  0.00000000000E+00 0.  1.
         21   -1    0    0  501  503 -0.00000000000E+00 -0.00000000000E+00 -0.30993511701E+03  0.30993511701E+03  0.00000000000E+00 0.  1.
          6    2    1    2  501    0  0.15020205214E+02 -0.11642034193E+03 -0.14277447569E+03  0.25217874377E+03  0.17155251477E+03 0.  0.
         24    2    3    3    0    0 -0.15206886108E+02 -0.14397089969E+03 -0.11851483959E+03  0.20439453900E+03  0.82295145822E+02 0.  0.
         -6    2    1    2    0  502 -0.15020205214E+02  0.11642034193E+03 -0.70757449840E+01  0.21784126958E+03  0.18337243519E+03 0.  0.
        -24    2    5    5    0    0 -0.23746279716E+02  0.34633589710E+02 -0.68858466057E+02  0.11486354462E+03  0.81784926474E+02 0.  0.
          5    1    3    3  501    0  0.30227091322E+02  0.27550557757E+02 -0.24259636093E+02  0.47784204774E+02  0.47000000000E+01 0. -1.
        -13    1    4    4    0    0 -0.14262641115E+02 -0.12028145737E+03 -0.48497892967E+02  0.13047259306E+03  0.00000000000E+00 0.  1.
         14    1    4    4    0    0 -0.94424499294E+00 -0.23689442322E+02 -0.70016946625E+02  0.73921945936E+02  0.00000000000E+00 0. -1.
         -5    1    5    5    0  502  0.87260745013E+01  0.81786752224E+02  0.61782721073E+02  0.10297772496E+03  0.47000000000E+01 0.  1.
         11    1    6    6    0    0 -0.32116846291E+02  0.58383316381E+02 -0.47316615973E+02  0.81724938633E+02  0.00000000000E+00 0. -1.
        -12    1    6    6    0    0  0.83705665753E+01 -0.23749726671E+02 -0.21541850084E+02  0.33138605987E+02  0.00000000000E+00 0.  1.
</event>
<event>
12    1  0.8053217E-002  0.1761229E+03  0.7818608E-02  0.1172169E+00
         21   -1    0    0  503  502  0.00000000000E+00  0.00000000000E+00  0.96666147507E+02  0.96666147507E+02  0.00000000000E+00 0.  1.
         21   -1    0    0  501  503 -0.00000000000E+00 -0.00000000000E+00 -0.34930140544E+03  0.34930140544E+03  0.00000000000E+00 0. -1.
          6    2    1    2  501    0  0.35429676257E+02 -0.94987483987E+01 -0.19502796685E+03  0.26278354231E+03  0.17226083151E+03 0.  0.
         24    2    3    3    0    0  0.38942606087E+02 -0.63023451802E+02 -0.16923668873E+03  0.20307998649E+03  0.84332331009E+02 0.  0.
         -6    2    1    2    0  502 -0.35429676257E+02  0.94987483987E+01 -0.57607291086E+02  0.18318401064E+03  0.16997733257E+03 0.  0.
        -24    2    5    5    0    0  0.94527971621E+00  0.46761107920E+02  0.16082075944E+02  0.92830075078E+02  0.78557589734E+02 0.  0.
          5    1    3    3  501    0 -0.35129298301E+01  0.53524703404E+02 -0.25791278122E+02  0.59703555820E+02  0.47000000000E+01 0. -1.
        -13    1    4    4    0    0  0.16837283248E+02  0.13758902628E+02 -0.80681510652E+01  0.23192597317E+02  0.00000000000E+00 0.  1.
         14    1    4    4    0    0  0.22105322839E+02 -0.76782354430E+02 -0.16116853766E+03  0.17988738917E+03  0.00000000000E+00 0. -1.
         -5    1    5    5    0  502 -0.36374955973E+02 -0.37262359521E+02 -0.73689367029E+02  0.90353935566E+02  0.47000000000E+01 0.  1.
         13    1    6    6    0    0 -0.98602849400E+01 -0.99166177695E+01  0.30329704734E+02  0.33398435837E+02  0.00000000000E+00 0. -1.
        -14    1    6    6    0    0  0.10805564656E+02  0.56677725689E+02 -0.14247628790E+02  0.59431639242E+02  0.00000000000E+00 0.  1.
</event>
<event>
12    1  0.8053217E-002  0.2260061E+03  0.7818608E-02  0.1129809E+00
         21   -1    0    0  503  502  0.00000000000E+00  0.00000000000E+00  0.99023286434E+02  0.99023286434E+02  0.00000000000E+00 0.  1.
         21   -1    0    0  501  503 -0.00000000000E+00 -0.00000000000E+00 -0.10448644890E+04  0.10448644890E+04  0.00000000000E+00 0.  1.
          6    2    1    2  501    0  0.61096276089E+02 -0.12716839934E+03 -0.88054372346E+03  0.90863784362E+03  0.17424386705E+03 0.  0.
         24    2    3    3    0    0  0.69479444241E+02 -0.86156469497E+02 -0.32849610029E+03  0.35498549410E+03  0.76515898363E+02 0.  0.
         -6    2    1    2    0  502 -0.61096276089E+02  0.12716839934E+03 -0.65297479083E+02  0.23524993178E+03  0.17656220684E+03 0.  0.
        -24    2    5    5    0    0 -0.36438703011E+02  0.86869860949E+01  0.16605069247E+02  0.89044738240E+02  0.79056905322E+02 0.  0.
          5    1    3    3  501    0 -0.83831681521E+01 -0.41011929848E+02 -0.55204762316E+03  0.55365234953E+03  0.47000000000E+01 0. -1.
        -11    1    4    4    0    0  0.20443098937E+02 -0.82481303054E+02 -0.19457201742E+03  0.21231899494E+03  0.00000000000E+00 0.  1.
         12    1    4    4    0    0  0.49036345304E+02 -0.36751664430E+01 -0.13392408287E+03  0.14266649916E+03  0.00000000000E+00 0. -1.
         -5    1    5    5    0  502 -0.24657573078E+02  0.11848141325E+03 -0.81902548331E+02  0.14620519354E+03  0.47000000000E+01 0.  1.
         13    1    6    6    0    0  0.25100119032E+02 -0.11932423084E+01  0.37650124661E+01  0.25408957505E+02  0.00000000000E+00 0. -1.
        -14    1    6    6    0    0 -0.61538822042E+02  0.98802284032E+01  0.12840056781E+02  0.63635780735E+02  0.00000000000E+00 0.  1.
</event>
<event>
12    1  0.8053217E-002  0.1851704E+03  0.7818608E-02  0.1163263E+00
         21   -1    0    0  501  502  0.00000000000E+00  0.00000000000E+00  0.92207281797E+02  0.92207281797E+02  0.00000000000E+00 0. -1.
         21   -1    0    0  502  503 -0.00000000000E+00 -0.00000000000E+00 -0.40195350378E+03  0.40195350378E+03  0.00000000000E+00 0. -1.
         -6    2    1    2    0  503 -0.49709070801E+02 -0.38940542801E+02 -0.22535082562E+03  0.29066472612E+03  0.17238222300E+03 0.  0.
        -24    2    3    3    0    0 -0.51992420948E+01  0.17543042658E+02 -0.19489218116E+03  0.21242573775E+03  0.82504189708E+02 0.  0.
          6    2    1    2  501    0  0.49709070801E+02  0.38940542801E+02 -0.84395396358E+02  0.20349605946E+03  0.17407097890E+03 0.  0.
         24    2    5    5    0    0  0.94403203680E+02  0.12593277076E+02 -0.93744480491E+02  0.15056932425E+03  0.69372460610E+02 0.  0.
          5    1    5    5  501    0 -0.44694132879E+02  0.26347265725E+02  0.93490841333E+01  0.52926735202E+02  0.47000000000E+01 0. -1.
        -11    1    6    6    0    0  0.61319063159E+02  0.33415866587E+02 -0.85889995430E+02  0.11069660772E+03  0.00000000000E+00 0.  1.
         12    1    6    6    0    0  0.33084140522E+02 -0.20822589510E+02 -0.78544850608E+01  0.39872716531E+02  0.00000000000E+00 0. -1.
         -5    1    3    3    0  503 -0.44509828706E+02 -0.56483585460E+02 -0.30458644466E+02  0.78238988366E+02  0.47000000000E+01 0.  1.
         13    1    4    4    0    0  0.19963622800E+02 -0.21749216665E+02 -0.12465365585E+03  0.12810194604E+03  0.00000000000E+00 0. -1.
        -14    1    4    4    0    0 -0.25162864895E+02  0.39292259323E+02 -0.70238525305E+02  0.84323791717E+02  0.00000000000E+00 0.  1.
</event>
<event>
12    1  0.8053217E-002  0.1731279E+03  0.7818608E-02  0.1174710E+00
         21   -1    0    0  503  502  0.00000000000E+00  0.00000000000E+00  0.24096646160E+04  0.24096646160E+04  0.00000000000E+00 0. -1.
         21   -1    0    0  501  503 -0.00000000000E+00 -0.00000000000E+00 -0.16780275380E+02  0.16780275380E+02  0.00000000000E+00 0. -1.
          6    2    1    2  501    0 -0.18165779002E+02 -0.84235325306E+01  0.57848960941E+03  0.60384061648E+03  0.17196601549E+03 0.  0.
         24    2    3    3    0    0 -0.66083372704E+02 -0.14107400461E+02  0.21724468365E+03  0.23935688772E+03  0.74366902779E+02 0.  0.
         -6    2    1    2    0  502  0.18165779002E+02  0.84235325306E+01  0.18143947312E+04  0.18226042749E+04  0.17163085628E+03 0.  0.
        -24    2    5    5    0    0 -0.21208404101E+02  0.58468152563E+02  0.86427577490E+03  0.87034227765E+03  0.81576613706E+02 0.  0.
          5    1    3    3  501    0  0.47917593702E+02  0.56838679301E+01  0.36124492577E+03  0.36448372876E+03  0.47000000000E+01 0. -1.
        -11    1    4    4    0    0  0.97698894135E+00  0.15348241009E+02  0.99559930690E+02  0.10074077034E+03  0.00000000000E+00 0.  1.
         12    1    4    4    0    0 -0.67060361645E+02 -0.29455641470E+02  0.11768475296E+03  0.13861611738E+03  0.00000000000E+00 0. -1.
         -5    1    5    5    0  502  0.39374183103E+02 -0.50044620033E+02  0.95011895631E+03  0.95226199726E+03  0.47000000000E+01 0.  1.
         13    1    6    6    0    0  0.24658499654E+02  0.27006294143E+01  0.36873290347E+03  0.36956635277E+03  0.00000000000E+00 0. -1.
        -14    1    6    6    0    0 -0.45866903755E+02  0.55767523149E+02  0.49554287144E+03  0.50077592487E+03  0.00000000000E+00 0.  1.
</event>
<event>
12    1  0.8053217E-002  0.2416365E+03  0.7818608E-02  0.1119172E+00
         21   -1    0    0  501  502  0.00000000000E+00  0.00000000000E+00  0.57212193612E+03  0.57212193612E+03  0.00000000000E+00 0.  1.
         21   -1    0    0  502  503 -0.00000000000E+00 -0.00000000000E+00 -0.15496031840E+03  0.15496031840E+03  0.00000000000E+00 0. -1.
         -6    2    1    2    0  503  0.13197886451E+03  0.10012360241E+03 -0.53967682674E+01  0.24169671279E+03  0.17591196499E+03 0.  0.
        -24    2    3    3    0    0  0.16291135271E+02  0.45309496750E+02 -0.56654785890E+02  0.10371950001E+03  0.72316100101E+02 0.  0.
          6    2    1    2  501    0 -0.13197886451E+03 -0.10012360241E+03  0.42255838598E+03  0.48538554173E+03  0.17204760424E+03 0.  0.
         24    2    5    5    0    0 -0.58408889419E+02 -0.95368901915E+02  0.15241407999E+03  0.20532271937E+03  0.80128281487E+02 0.  0.
          5    1    5    5  501    0 -0.73569975089E+02 -0.47547004899E+01  0.27014430599E+03  0.28006282237E+03  0.47000000000E+01 0. -1.
        -11    1    6    6    0    0  0.12879793661E+01 -0.40594401421E+02  0.10227623334E+03  0.11004540982E+03  0.00000000000E+00 0.  1.
         12    1    6    6    0    0 -0.59696868785E+02 -0.54774500494E+02  0.50137846652E+02  0.95277309545E+02  0.00000000000E+00 0. -1.
         -5    1    3    3    0  503  0.11568772924E+03  0.54814105655E+02  0.51258017623E+02  0.13797721278E+03  0.47000000000E+01 0.  1.
         11    1    4    4    0    0  0.18819603138E+02  0.37484495875E+02 -0.73697063997E+02  0.84796946496E+02  0.00000000000E+00 0. -1.
        -12    1    4    4    0    0 -0.25284678675E+01  0.78250008754E+01  0.17042278106E+02  0.18922553514E+02  0.00000000000E+00 0.  1.
</event>
<event>
12    1  0.8053217E-002  0.1795757E+03  0.7818608E-02  0.1168294E+00
         21   -1    0    0  501  502  0.00000000000E+00  0.00000000000E+00  0.18259476802E+03  0.18259476802E+03  0.00000000000E+00 0. -1.
         21   -1    0    0  502  503 -0.00000000000E+00 -0.00000000000E+00 -0.93518059889E+03  0.93518059889E+03  0.00000000000E+00 0. -1.
         -6    2    1    2    0  503  0.22711299753E+02  0.42710153469E+02 -0.87982186107E+03  0.89796099694E+03  0.17293780518E+03 0.  0.
        -24    2    3    3    0    0  0.30400364886E+02 -0.13983076784E+02 -0.23783668958E+03  0.25341441639E+03  0.80826152351E+02 0.  0.
          6    2    1    2  501    0 -0.22711299753E+02 -0.42710153469E+02  0.12723603020E+03  0.21981436997E+03  0.17259602985E+03 0.  0.
         24    2    5    5    0    0 -0.48025925279E+02 -0.86841289722E+02  0.82679736628E+02  0.15202247702E+03  0.80168544778E+02 0.  0.
          5    1    5    5  501    0  0.25314625526E+02  0.44131136253E+02  0.44556293573E+02  0.67791892948E+02  0.47000000000E+01 0. -1.
        -13    1    6    6    0    0  0.17339124003E+02 -0.47798138766E+02  0.40335454610E+02  0.64901896654E+02  0.00000000000E+00 0.  1.
         14    1    6    6    0    0 -0.65365049282E+02 -0.39043150956E+02  0.42344282018E+02  0.87120580369E+02  0.00000000000E+00 0. -1.
         -5    1    3    3    0  503 -0.76890651331E+01  0.56693230253E+02 -0.64198517149E+03  0.64454658054E+03  0.47000000000E+01 0.  1.
         13    1    4    4    0    0 -0.25552749903E+02 -0.14261784348E+02 -0.56311757863E+02  0.63461449669E+02  0.00000000000E+00 0. -1.
        -14    1    4    4    0    0  0.55953114789E+02  0.27870756329E+00 -0.18152493172E+03  0.18995296672E+03  0.00000000000E+00 0.  1.
</event>
<event>
12    1  0.8053217E-002  0.2024223E+03  0.7818608E-02  0.1147736E+00
         21   -1    0    0  501  502  0.00000000000E+00  0.00000000000E+00  0.37507868305E+03  0.37507868305E+03  0.00000000000E+00 0. -1.
         21   -1    0    0  502  503 -0.00000000000E+00 -0.00000000000E+00 -0.18742673018E+03  0.18742673018E+03  0.00000000000E+00 0. -1.
         -6    2    1    2    0  503 -0.59532984385E+02  0.89432139412E+02 -0.87885081692E+02  0.22067754197E+03  0.17155904568E+03 0.  0.
        -24    2    3    3    0    0  0.92664554156E+00  0.29261990027E+02 -0.10338017540E+03  0.13385587614E+03  0.79829895280E+02 0.  0.
          6    2    1    2  501    0  0.59532984385E+02 -0.89432139412E+02  0.27553703455E+03  0.34182787126E+03  0.17141572965E+03 0.  0.
         24    2    5    5    0    0  0.16484397143E+02 -0.24237465506E+01  0.48932505436E+02  0.95260752796E+02  0.80016317327E+02 0.  0.
          5    1    5    5  501    0  0.43048587242E+02 -0.87008392861E+02  0.22660452912E+03  0.24656711847E+03  0.47000000000E+01 0. -1.
        -13    1    6    6    0    0  0.12743800133E+02 -0.40458733470E+02  0.17943474147E+02  0.46057375308E+02  0.00000000000E+00 0.  1.
         14    1    6    6    0    0  0.37405970100E+01  0.38034986919E+02  0.30989031290E+02  0.49203377488E+02  0.00000000000E+00 0. -1.
         -5    1    3    3    0  503 -0.60459629926E+02  0.60170149384E+02  0.15495093704E+02  0.86821665825E+02  0.47000000000E+01 0.  1.
         13    1    4    4    0    0 -0.12263681876E+02  0.52883026196E+02 -0.85997609762E+02  0.10169858031E+03  0.00000000000E+00 0. -1.
        -14    1    4    4    0    0  0.13190327418E+02 -0.23621036168E+02 -0.17382565634E+02  0.32157295830E+02  0.00000000000E+00 0.  1.
</event>
<event>
12    1  0.8053217E-002  0.2428477E+03  0.7818608E-02  0.1118119E+00
         21   -1    0    0  503  502  0.00000000000E+00  0.00000000000E+00  0.63061609106E+03  0.63061609106E+03  0.00000000000E+00 0. -1.
         21   -1    0    0  501  503 -0.00000000000E+00 -0.00000000000E+00 -0.40209497402E+03  0.40209497402E+03  0.00000000000E+00 0. -1.
          6    2    1    2  501    0  0.15506745865E+03  0.71146747128E+02 -0.33836791497E+03  0.41649470055E+03  0.17282133360E+03 0.  0.
         24    2    3    3    0    0  0.13471829972E+03  0.92695771126E+02 -0.34048907349E+03  0.38641085077E+03  0.81480121259E+02 0.  0.
         -6    2    1    2    0  502 -0.15506745865E+03 -0.71146747128E+02  0.56688903200E+03  0.61621636453E+03  0.17103115782E+03 0.  0.
        -24    2    5    5    0    0 -0.13493884234E+03 -0.67045987257E+02  0.27514710551E+03  0.32371436607E+03  0.79883700170E+02 0.  0.
          5    1    3    3  501    0  0.20349158936E+02 -0.21549023998E+02  0.21211585184E+01  0.30083849789E+02  0.47000000000E+01 0. -1.
        -11    1    4    4    0    0  0.54711533596E+02  0.34434841297E+02 -0.22604328692E+03  0.23510567361E+03  0.00000000000E+00 0.  1.
         12    1    4    4    0    0  0.80006766123E+02  0.58260929829E+02 -0.11444578657E+03  0.15130517716E+03  0.00000000000E+00 0. -1.
         -5    1    5    5    0  502 -0.20128616319E+02 -0.41007598709E+01  0.29174192649E+03  0.29250199845E+03  0.47000000000E+01 0.  1.
         13    1    6    6    0    0 -0.56435604254E+02 -0.12116581852E+01  0.15958816150E+03  0.16927736657E+03  0.00000000000E+00 0. -1.
        -14    1    6    6    0    0 -0.78503238082E+02 -0.65834329072E+02  0.11555894401E+03  0.15443699950E+03  0.00000000000E+00 0.  1.
</event>
<event>
12    1  0.8053217E-002  0.2133276E+03  0.7818608E-02  0.1138999E+00
         21   -1    0    0  503  502  0.00000000000E+00  0.00000000000E+00  0.88324116703E+03  0.88324116703E+03  0.00000000000E+00 0.  1.
         21   -1    0    0  501  503 -0.00000000000E+00 -0.00000000000E+00 -0.51545995371E+02  0.51545995371E+02  0.00000000000E+00 0. -1.
          6    2    1    2  501    0 -0.10801973387E+03 -0.66492636191E+02  0.39810869764E+03  0.45156268116E+03  0.17125649274E+03 0.  0.
         24    2    3    3    0    0 -0.10185318783E+03 -0.10686996483E+03  0.35428247134E+03  0.39146956117E+03  0.77052492312E+02 0.  0.
         -6    2    1    2    0  502  0.10801973387E+03  0.66492636191E+02  0.43358647403E+03  0.48322448125E+03  0.17152007243E+03 0.  0.
        -24    2    5    5    0    0  0.76747153087E+02  0.95023237475E+02  0.21282387079E+03  0.25839079492E+03  0.80946042253E+02 0.  0.
          5    1    3    3  501    0 -0.61665460387E+01  0.40377328638E+02  0.43826226297E+02  0.60093119984E+02  0.47000000000E+01 0. -1.
        -11    1    4    4    0    0  0.38697792783E+01 -0.41933589267E+02  0.79166028249E+02  0.89669733630E+02  0.00000000000E+00 0.  1.
         12    1    4    4    0    0 -0.10572296711E+03 -0.64936375562E+02  0.27511644309E+03  0.30179982754E+03  0.00000000000E+00 0. -1.
         -5    1    5    5    0  502  0.31272580785E+02 -0.28530601285E+02  0.22076260324E+03  0.22483368633E+03  0.47000000000E+01 0.  1.
         11    1    6    6    0    0  0.31514484126E+02  0.71799240027E+02  0.18384050440E+03  0.19986401536E+03  0.00000000000E+00 0. -1.
        -12    1    6    6    0    0  0.45232668961E+02  0.23223997449E+02  0.28983366391E+02  0.58526779564E+02  0.00000000000E+00 0.  1.
</event>
<event>
12    1  0.8053217E-002  0.1764209E+03  0.7818608E-02  0.1171340E+00
         21   -1    0    0  503  502  0.00000000000E+00  0.00000000000E+00  0.12448662830E+04  0.12448662830E+04  0.00000000000E+00 0.  1.
         21   -1    0    0  501  503 -0.00000000000E+00 -0.00000000000E+00 -0.27254350490E+02  0.27254350490E+02  0.00000000000E+00 0.  1.
          6    2    1    2  501    0 -0.30558843892E+02  0.22359528072E+02  0.42550560600E+03  0.46062929743E+03  0.17230942363E+03 0.  0.
         24    2    3    3    0    0 -0.23022965812E+02  0.73613825731E+02  0.20440110758E+03  0.23348819214E+03  0.82388535583E+02 0.  0.
         -6    2    1    2    0  502  0.30558843892E+02 -0.22359528072E+02  0.79210632652E+03  0.81149133608E+03  0.17219745811E+03 0.  0.
        -24    2    5    5    0    0  0.70723229934E+02 -0.88806509504E+01  0.31500939377E+03  0.33249401743E+03  0.78998178766E+02 0.  0.
          5    1    3    3  501    0 -0.75358780807E+01 -0.51254297659E+02  0.22110449842E+03  0.22714110528E+03  0.47000000000E+01 0. -1.
        -11    1    4    4    0    0 -0.93466265143E+01  0.70854346738E+02  0.20726905886E+03  0.21924452248E+03  0.00000000000E+00 0.  1.
         12    1    4    4    0    0 -0.13676339297E+02  0.27594789929E+01 -0.28679512743E+01  0.14243669661E+02  0.00000000000E+00 0. -1.
         -5    1    5    5    0  502 -0.40164386042E+02 -0.13478877121E+02  0.47709693274E+03  0.47899731864E+03  0.47000000000E+01 0.  1.
         13    1    6    6    0    0 -0.13107194661E+02  0.22110328733E+01  0.10896172725E+03  0.10976950954E+03  0.00000000000E+00 0. -1.
        -14    1    6    6    0    0  0.83830424595E+02 -0.11091683824E+02  0.20604766652E+03  0.22272450790E+03  0.00000000000E+00 0.  1.
</event>
<event>
12    1  0.8053217E-002  0.1776449E+03  0.7818608E-02  0.1170805E+00
         21   -1    0    0  501  502  0.00000000000E+00  0.00000000000E+00  0.10682206962E+04  0.10682206962E+04  0.00000000000E+00 0. -1.
         21   -1    0    0  502  503 -0.00000000000E+00 -0.00000000000E+00 -0.20507812322E+03  0.20507812322E+03  0.00000000000E+00 0. -1.
         -6    2    1    2    0  503  0.51687968933E+01 -0.32621832920E+02 -0.15871588261E+03  0.23611397609E+03  0.17166297757E+03 0.  0.
        -24    2    3    3    0    0 -0.11888772261E+02 -0.49481385076E+02 -0.17990610930E+03  0.20376709260E+03  0.81025116396E+02 0.  0.
          6    2    1    2  501    0 -0.51687968933E+01  0.32621832920E+02  0.10218584556E+04  0.10371848433E+04  0.17454740199E+03 0.  0.
         24    2    5    5    0    0  0.21164628573E+02 -0.32175022223E+02  0.79053659416E+03  0.79547432369E+03  0.79675086339E+02 0.  0.
          5    1    5    5  501    0 -0.26333425466E+02  0.64796855143E+02  0.23132186144E+03  0.24171051965E+03  0.47000000000E+01 0. -1.
        -11    1    6    6    0    0  0.34783276532E+02 -0.34668417235E+02  0.25095040580E+03  0.25571054271E+03  0.00000000000E+00 0.  1.
         12    1    6    6    0    0 -0.13618647959E+02  0.24933950123E+01  0.53958618836E+03  0.53976378098E+03  0.00000000000E+00 0. -1.
         -5    1    3    3    0  503  0.17057569155E+02  0.16859552156E+02  0.21190226691E+02  0.32346883491E+02  0.47000000000E+01 0.  1.
         11    1    4    4    0    0  0.12373685620E+02 -0.13858906599E+01 -0.12916486551E+03  0.12976359763E+03  0.00000000000E+00 0. -1.
        -12    1    4    4    0    0 -0.24262457881E+02 -0.48095494416E+02 -0.50741243795E+02  0.74003494967E+02  0.00000000000E+00 0.  1.
</event>
<event>
12    1  0.8053217E-002  0.2501715E+03  0.7818608E-02  0.1113267E+00
         21   -1    0    0  503  502  0.00000000000E+00  0.00000000000E+00  0.62248208918E+02  0.62248208918E+02  0.00000000000E+00 0.  1.
         21   -1    0    0  501  503 -0.00000000000E+00 -0.00000000000E+00 -0.12839483189E+04  0.12839483189E+04  0.00000000000E+00 0.  1.
          6    2    1    2  501    0  0.55822475753E+02 -0.17167552747E+03 -0.92493403183E+03  0.95805236205E+03  0.17254776051E+03 0.  0.
         24    2    3    3    0    0  0.56499033730E+02 -0.18434314306E+03 -0.91971783598E+03  0.94355322708E+03  0.85072083062E+02 0.  0.
         -6    2    1    2    0  502 -0.55822475753E+02  0.17167552747E+03 -0.29676607811E+03  0.38814416573E+03  0.17319686123E+03 0.  0.
        -24    2    5    5    0    0  0.14839693586E+02  0.39346296844E+02 -0.11202152780E+03  0.15011726321E+03  0.90653309050E+02 0.  0.
          5    1    3    3  501    0 -0.67655797695E+00  0.12667615593E+02 -0.52161958492E+01  0.14499134962E+02  0.47000000000E+01 0. -1.
        -11    1    4    4    0    0  0.46673207102E+02 -0.75173735609E+02 -0.57668214427E+03  0.58343103646E+03  0.00000000000E+00 0.  1.
         12    1    4    4    0    0  0.98258266283E+01 -0.10916940745E+03 -0.34303569171E+03  0.36012219062E+03  0.00000000000E+00 0. -1.
         -5    1    5    5    0  502 -0.70662169340E+02  0.13232923062E+03 -0.18474455031E+03  0.23802690252E+03  0.47000000000E+01 0.  1.
         11    1    6    6    0    0 -0.26662844689E+02 -0.15720406869E+02 -0.36254556802E+02  0.47670025885E+02  0.00000000000E+00 0. -1.
        -12    1    6    6    0    0  0.41502538275E+02  0.55066703712E+02 -0.75766970997E+02  0.10244723732E+03  0.00000000000E+00 0.  1.
</event>
<event>
12    1  0.8053217E-002  0.2948132E+03  0.7818608E-02  0.1087959E+00
         21   -1    0    0  501  502  0.00000000000E+00  0.00000000000E+00  0.71626969418E+02  0.71626969418E+02  0.00000000000E+00 0. -1.
         21   -1    0    0  502  503 -0.00000000000E+00 -0.00000000000E+00 -0.12177100585E+04  0.12177100585E+04  0.00000000000E+00 0.  1.
         -6    2    1    2    0  503  0.23263161015E+03  0.56017504890E+02 -0.52357991562E+03  0.60087501139E+03  0.17221911736E+03 0.  0.
        -24    2    3    3    0    0  0.69709034853E+02  0.69316225979E+02 -0.17620073976E+03  0.21692839617E+03  0.79668937786E+02 0.  0.
          6    2    1    2  501    0 -0.23263161015E+03 -0.56017504890E+02 -0.62250317345E+03  0.68846201651E+03  0.17092197145E+03 0.  0.
         24    2    5    5    0    0 -0.49770611066E+02 -0.55380674180E+02 -0.20207295245E+03  0.22996205875E+03  0.80653193067E+02 0.  0.
          5    1    5    5  501    0 -0.18286099909E+03 -0.63683071038E+00 -0.42043022100E+03  0.45849995776E+03  0.47000000000E+01 0. -1.
        -13    1    6    6    0    0  0.64285412745E+01  0.16635505222E+02 -0.42531039634E+02  0.46118927885E+02  0.00000000000E+00 0.  1.
         14    1    6    6    0    0 -0.56199152340E+02 -0.72016179402E+02 -0.15954191282E+03  0.18384313086E+03  0.00000000000E+00 0. -1.
         -5    1    3    3    0  503  0.16292257530E+03 -0.13298721089E+02 -0.34737917585E+03  0.38394661522E+03  0.47000000000E+01 0.  1.
         13    1    4    4    0    0 -0.64809463492E+01  0.20297545799E+02 -0.87800879688E+02  0.90349252930E+02  0.00000000000E+00 0. -1.
        -14    1    4    4    0    0  0.76189981202E+02  0.49018680180E+02 -0.88399860075E+02  0.12657914324E+03  0.00000000000E+00 0.  1.
</event>
<event>
12    1  0.8053217E-002  0.1914850E+03  0.7818608E-02  0.1157503E+00
         21   -1    0    0  501  502  0.00000000000E+00  0.00000000000E+00  0.24677208351E+03  0.24677208351E+03  0.00000000000E+00 0.  1.
         21   -1    0    0  502  503 -0.00000000000E+00 -0.00000000000E+00 -0.17605721954E+03  0.17605721954E+03  0.00000000000E+00 0. -1.
         -6    2    1    2    0  503 -0.59099481835E+02  0.54323666636E+02 -0.49966996399E+02  0.19789693868E+03  0.17384673738E+03 0.  0.
        -24    2    3    3    0    0 -0.35336293037E+02 -0.22483859530E+02 -0.75232678151E+02  0.11349000832E+03  0.73931377522E+02 0.  0.
          6    2    1    2  501    0  0.59099481835E+02 -0.54323666636E+02  0.12068186037E+03  0.22493236438E+03  0.17200769637E+03 0.  0.
         24    2    5    5    0    0  0.83002793540E+02 -0.58240398586E+02  0.14174468793E+03  0.19249100491E+03  0.81730182022E+02 0.  0.
          5    1    5    5  501    0 -0.23903311705E+02  0.39167319498E+01 -0.21062827552E+02  0.32441359468E+02  0.47000000000E+01 0. -1.
        -13    1    6    6    0    0 -0.97023399379E+00  0.13376954032E+02  0.40712265719E+02  0.42864587169E+02  0.00000000000E+00 0.  1.
         14    1    6    6    0    0  0.83973027534E+02 -0.71617352618E+02  0.10103242221E+03  0.14962641774E+03  0.00000000000E+00 0. -1.
         -5    1    3    3    0  503 -0.23763188797E+02  0.76807526166E+02  0.25265681752E+02  0.84406930355E+02  0.47000000000E+01 0.  1.
         13    1    4    4    0    0 -0.44663707021E+02  0.34764030406E+01 -0.15003684592E+02  0.47244498668E+02  0.00000000000E+00 0. -1.
        -14    1    4    4    0    0  0.93274139841E+01 -0.25960262570E+02 -0.60228993559E+02  0.66245509655E+02  0.00000000000E+00 0.  1.
</event>
<event>
12    1  0.8053217E-002  0.1954214E+03  0.7818608E-02  0.1153749E+00
         21   -1    0    0  501  502  0.00000000000E+00  0.00000000000E+00  0.74321272422E+02  0.74321272422E+02  0.00000000000E+00 0.  1.
         21   -1    0    0  502  503 -0.00000000000E+00 -0.00000000000E+00 -0.54528577661E+03  0.54528577661E+03  0.00000000000E+00 0. -1.
         -6    2    1    2    0  503  0.76084859226E+02 -0.53893669824E+02 -0.31136118098E+03  0.36760753035E+03  0.17174422231E+03 0.  0.
        -24    2    3    3    0    0  0.16541438486E+02 -0.60698295199E+02 -0.84914952424E+02  0.13331773905E+03  0.81272185723E+02 0.  0.
          6    2    1    2  501    0 -0.76084859226E+02  0.53893669824E+02 -0.15960332321E+03  0.25199951869E+03  0.17128077297E+03 0.  0.
         24    2    5    5    0    0 -0.48667705124E+02  0.53513976604E+02 -0.21656401167E+02  0.11127536366E+03  0.81736868261E+02 0.  0.
          5    1    5    5  501    0 -0.27417154103E+02  0.37969322039E+00 -0.13794692204E+03  0.14072415502E+03  0.47000000000E+01 0. -1.
        -11    1    6    6    0    0 -0.69732587644E+01  0.38666821040E+02 -0.46214805388E+02  0.60659357268E+02  0.00000000000E+00 0.  1.
         12    1    6    6    0    0 -0.41694446359E+02  0.14847155564E+02  0.24558404221E+02  0.50616006395E+02  0.00000000000E+00 0. -1.
         -5    1    3    3    0  503  0.59543420741E+02  0.68046253744E+01 -0.22644622856E+03  0.23428979130E+03  0.47000000000E+01 0.  1.
         13    1    4    4    0    0  0.37950644232E+02 -0.96707371802E+01 -0.62195168538E+02  0.73498391442E+02  0.00000000000E+00 0. -1.
        -14    1    4    4    0    0 -0.21409205746E+02 -0.51027558018E+02 -0.22719783886E+02  0.59819347605E+02  0.00000000000E+00 0.  1.
</event>
<event>
12    1  0.8053217E-002  0.2449973E+03  0.7818608E-02  0.1116551E+00
         21   -1    0    0  503  502  0.00000000000E+00  0.00000000000E+00  0.18723495332E+04  0.18723495332E+04  0.00000000000E+00 0. -1.
         21   -1    0    0  501  503 -0.00000000000E+00 -0.00000000000E+00 -0.32395945796E+02  0.32395945796E+02  0.00000000000E+00 0.  1.
          6    2    1    2  501    0  0.12192101584E+03 -0.12374183380E+03  0.10216674523E+04  0.10505699315E+04  0.17238335872E+03 0.  0.
         24    2    3    3    0    0  0.11633260917E+03 -0.15377994665E+03  0.94749745143E+03  0.97021573099E+03  0.79909925759E+02 0.  0.
         -6    2    1    2    0  502 -0.12192101584E+03  0.12374183380E+03  0.81828613508E+03  0.85417554747E+03  0.17276252917E+03 0.  0.
        -24    2    5    5    0    0 -0.84123135327E+02  0.62741692086E+02  0.72245978905E+03  0.73436538239E+03  0.79568500304E+02 0.  0.
          5    1    3    3  501    0  0.55884066759E+01  0.30038112851E+02  0.74170000874E+02  0.80354200528E+02  0.47000000000E+01 0. -1.
        -13    1    4    4    0    0  0.42802602369E+02 -0.26942238116E+02  0.12659425826E+03  0.13632334058E+03  0.00000000000E+00 0.  1.
         14    1    4    4    0    0  0.73530006800E+02 -0.12683770854E+03  0.82090319317E+03  0.83389239040E+03  0.00000000000E+00 0. -1.
         -5    1    5    5    0  502 -0.37797880518E+02  0.61000141716E+02  0.95826346033E+02  0.11981016507E+03  0.47000000000E+01 0.  1.
         13    1    6    6    0    0 -0.44634752653E+02  0.20511930119E+02  0.55571093472E+03  0.55787780328E+03  0.00000000000E+00 0. -1.
        -14    1    6    6    0    0 -0.39488382674E+02  0.42229761967E+02  0.16674885432E+03  0.17648757911E+03  0.00000000000E+00 0.  1.
</event>
<event>
12    1  0.8053217E-002  0.1839040E+03  0.7818608E-02  0.1165299E+00
         21   -1    0    0  503  502  0.00000000000E+00  0.00000000000E+00  0.47942183325E+02  0.47942183325E+02  0.00000000000E+00 0. -1.
         21   -1    0    0  501  503 -0.00000000000E+00 -0.00000000000E+00 -0.74693495600E+03  0.74693495600E+03  0.00000000000E+00 0. -1.
          6    2    1    2  501    0 -0.62620644990E+02 -0.16740908718E+02 -0.45851042567E+03  0.49213559860E+03  0.16662542951E+03 0.  0.
         24    2    3    3    0    0 -0.68053943980E+02 -0.51023304758E+02 -0.43366996462E+03  0.44919445374E+03  0.80444404068E+02 0.  0.
         -6    2    1    2    0  502  0.62620644990E+02  0.16740908718E+02 -0.24048234701E+03  0.30274154073E+03  0.17210194088E+03 0.  0.
        -24    2    5    5    0    0 -0.17941912752E+02 -0.33460649816E+02 -0.10885925536E+03  0.14039237860E+03  0.80113389461E+02 0.  0.
          5    1    3    3  501    0  0.54332989898E+01  0.34282396041E+02 -0.24840461050E+02  0.42941144854E+02  0.47000000000E+01 0. -1.
        -11    1    4    4    0    0  0.15531112682E+02 -0.59402757485E+01 -0.28076677699E+02  0.32631306559E+02  0.00000000000E+00 0.  1.
         12    1    4    4    0    0 -0.83585056662E+02 -0.45083029010E+02 -0.40559328692E+03  0.41656314719E+03  0.00000000000E+00 0. -1.
         -5    1    5    5    0  502  0.80562557742E+02  0.50201558534E+02 -0.13162309165E+03  0.16234916213E+03  0.47000000000E+01 0.  1.
         11    1    6    6    0    0  0.18516046747E+02 -0.43219769919E+02 -0.80338677495E+02  0.93086495264E+02  0.00000000000E+00 0. -1.
        -12    1    6    6    0    0 -0.36457959499E+02  0.97591201029E+01 -0.28520577864E+02  0.47305883331E+02  0.00000000000E+00 0.  1.
</event>
<event>
12    1  0.8053217E-002  0.2889483E+03  0.7818608E-02  0.1091004E+00
         21   -1    0    0  503  502  0.00000000000E+00  0.00000000000E+00  0.10297586332E+03  0.10297586332E+03  0.00000000000E+00 0.  1.
         21   -1    0    0  501  503 -0.00000000000E+00 -0.00000000000E+00 -0.86938171736E+03  0.86938171736E+03  0.00000000000E+00 0.  1.
          6    2    1    2  501    0  0.77588060411E+02 -0.21829526475E+03 -0.51130578047E+03  0.58691349691E+03  0.17135087390E+03 0.  0.
         24    2    3    3    0    0  0.24175087592E+02 -0.62125400656E+02 -0.11084609704E+03  0.15374837809E+03  0.83112611967E+02 0.  0.
         -6    2    1    2    0  502 -0.77588060411E+02  0.21829526475E+03 -0.25510007357E+03  0.38544408376E+03  0.17267994800E+03 0.  0.
        -24    2    5    5    0    0 -0.41500232884E+02  0.26771702856E+02 -0.94793376479E+02  0.13304770267E+03  0.79226974940E+02 0.  0.
          5    1    3    3  501    0  0.53412972819E+02 -0.15616986410E+03 -0.40045968342E+03  0.43316511882E+03  0.47000000000E+01 0. -1.
        -11    1    4    4    0    0  0.49753524853E+02 -0.24288921182E+02 -0.35910450811E+02  0.65991858626E+02  0.00000000000E+00 0.  1.
         12    1    4    4    0    0 -0.25578437261E+02 -0.37836479474E+02 -0.74935646232E+02  0.87756519461E+02  0.00000000000E+00 0. -1.
         -5    1    5    5    0  502 -0.36087827527E+02  0.19152356190E+03 -0.16030669709E+03  0.25239638110E+03  0.47000000000E+01 0.  1.
         11    1    6    6    0    0 -0.55985502923E+01  0.21016224430E+02  0.86454190638E+01  0.23404459521E+02  0.00000000000E+00 0. -1.
        -12    1    6    6    0    0 -0.35901682591E+02  0.57554784262E+01 -0.10343879554E+03  0.10964324315E+03  0.00000000000E+00 0.  1.
</event>
<event>
12    1  0.8053217E-002  0.2874851E+03  0.7818608E-02  0.1091808E+00
         21   -1    0    0  501  502  0.00000000000E+00  0.00000000000E+00  0.51636356216E+03  0.51636356216E+03  0.00000000000E+00 0. -1.
         21   -1    0    0  502  503 -0.00000000000E+00 -0.00000000000E+00 -0.17444588788E+03  0.17444588788E+03  0.00000000000E+00 0. -1.
         -6    2    1    2    0  503  0.96443273837E+02 -0.20825107886E+03  0.70059847523E+02  0.29589872589E+03  0.17314114714E+03 0.  0.
        -24    2    3    3    0    0  0.10275396157E+03 -0.21704069649E+03  0.93569616365E+02  0.26959508757E+03  0.79127729562E+02 0.  0.
          6    2    1    2  501    0 -0.96443273837E+02  0.20825107886E+03  0.27185782676E+03  0.39491072415E+03  0.17140007341E+03 0.  0.
         24    2    5    5    0    0 -0.51049741140E+02  0.20416803212E+03  0.26254388412E+03  0.34815515112E+03  0.89398303991E+02 0.  0.
          5    1    5    5  501    0 -0.45393532698E+02  0.40830467359E+01  0.93139426444E+01  0.46755573026E+02  0.47000000000E+01 0. -1.
        -13    1    6    6    0    0 -0.41010142938E+01  0.69355573911E+01 -0.71373912456E+01  0.10763950407E+02  0.00000000000E+00 0.  1.
         14    1    6    6    0    0 -0.46948726846E+02  0.19723247473E+03  0.26968127536E+03  0.33739120072E+03  0.00000000000E+00 0. -1.
         -5    1    3    3    0  503 -0.63106877367E+01  0.87896176290E+01 -0.23509768842E+02  0.26303638318E+02  0.47000000000E+01 0.  1.
         13    1    4    4    0    0  0.35425350012E+01 -0.83517202773E+02  0.50872905980E+02  0.97855634872E+02  0.00000000000E+00 0. -1.
        -14    1    4    4    0    0  0.99211426573E+02 -0.13352349371E+03  0.42696710385E+02  0.17173945270E+03  0.00000000000E+00 0.  1.
</event>
<event>
12    1  0.8053217E-002  0.1950773E+03  0.7818608E-02  0.1154901E+00
         21   -1    0    0  501  502  0.00000000000E+00  0.00000000000E+00  0.65360717622E+03  0.65360717622E+03  0.00000000000E+00 0.  1.
         21   -1    0    0  502  503 -0.00000000000E+00 -0.00000000000E+00 -0.75916754115E+02  0.75916754115E+02  0.00000000000E+00 0.  1.
         -6    2    1    2    0  503  0.68827836028E+02  0.47844640929E+02  0.10416500023E+03  0.21738967986E+03  0.17141045756E+03 0.  0.
        -24    2    3    3    0    0  0.52787695493E+02  0.80784155881E+02  0.12321768182E+03  0.17582776906E+03  0.80126067048E+02 0.  0.
          6    2    1    2  501    0 -0.68827836028E+02 -0.47844640929E+02  0.47352542187E+03  0.51213425047E+03  0.17614989261E+03 0.  0.
         24    2    5    5    0    0 -0.47600230764E+02 -0.75809479402E+02  0.19534525981E+03  0.23170790367E+03  0.86694422864E+02 0.  0.
          5    1    5    5  501    0 -0.21227605264E+02  0.27964838473E+02  0.27818016206E+03  0.28042634680E+03  0.47000000000E+01 0. -1.
        -11    1    6    6    0    0 -0.11807944309E+01 -0.63648013444E+02  0.57623782440E+02  0.85865966445E+02  0.00000000000E+00 0.  1.
         12    1    6    6    0    0 -0.46419436333E+02 -0.12161465958E+02  0.13772147737E+03  0.14584193722E+03  0.00000000000E+00 0. -1.
         -5    1    3    3    0  503  0.16040140535E+02 -0.32939514952E+02 -0.19052681595E+02  0.41561910804E+02  0.47000000000E+01 0.  1.
         13    1    4    4    0    0  0.18013437006E+02  0.18795532072E+02  0.96411467601E+02  0.99864543375E+02  0.00000000000E+00 0. -1.
        -14    1    4    4    0    0  0.34774258487E+02  0.61988623809E+02  0.26806214224E+02  0.75963225682E+02  0.00000000000E+00 0.  1.
</event>
<event>
12    1  0.8053217E-002  0.2412239E+03  0.7818608E-02  0.1119165E+00
         21   -1    0    0  501  502  0.00000000000E+00  0.00000000000E+00  0.21769912470E+03  0.21769912470E+03  0.00000000000E+00 0.  1.
         21   -1    0    0  502  503 -0.00000000000E+00 -0.00000000000E+00 -0.29817645424E+03  0.29817645424E+03  0.00000000000E+00 0. -1.
         -6    2    1    2    0  503 -0.15826900302E+02  0.16738628571E+03 -0.12480892217E+03  0.27061197134E+03  0.17142028049E+03 0.  0.
        -24    2    3    3    0    0 -0.89279267086E+01  0.15223323427E+03 -0.33630239844E+02  0.17780651398E+03  0.85026454072E+02 0.  0.
          6    2    1    2  501    0  0.15826900302E+02 -0.16738628571E+03  0.44331592628E+02  0.24526360760E+03  0.17297481808E+03 0.  0.
         24    2    5    5    0    0  0.11464356599E+02 -0.85720450627E+02  0.94320169508E+02  0.14929857112E+03  0.76904758213E+02 0.  0.
          5    1    5    5  501    0  0.43625437030E+01 -0.81665835081E+02 -0.49988576880E+02  0.95965036475E+02  0.47000000000E+01 0. -1.
        -13    1    6    6    0    0  0.89532657969E+01 -0.42748995975E+02 -0.20786260507E+01  0.43725945519E+02  0.00000000000E+00 0.  1.
         14    1    6    6    0    0  0.25110908017E+01 -0.42971454652E+02  0.96398795559E+02  0.10557262561E+03  0.00000000000E+00 0. -1.
         -5    1    3    3    0  503 -0.68989735930E+01  0.15153051443E+02 -0.91178682324E+02  0.92805457356E+02  0.47000000000E+01 0.  1.
         11    1    4    4    0    0  0.25894411983E+02  0.13159028303E+03 -0.25463477413E+02  0.13650974999E+03  0.00000000000E+00 0. -1.
        -12    1    4    4    0    0 -0.34822338691E+02  0.20642951233E+02 -0.81667624312E+01  0.41296763991E+02  0.00000000000E+00 0.  1.
</event>
<event>
12    1  0.8053217E-002  0.2636459E+03  0.7818608E-02  0.1104995E+00
         21   -1    0    0  503  502  0.00000000000E+00  0.00000000000E+00  0.12938166940E+03  0.12938166940E+03  0.00000000000E+00 0. -1.
         21   -1    0    0  501  503 -0.00000000000E+00 -0.00000000000E+00 -0.53818047418E+03  0.53818047418E+03  0.00000000000E+00 0.  1.
          6    2    1    2  501    0  0.14825794995E+03  0.13263340622E+03 -0.22059260066E+03  0.34375898390E+03  0.17302341859E+03 0.  0.
         24    2    3    3    0    0  0.68080103728E+02  0.33836989630E+02 -0.28381174940E+02  0.11320196030E+03  0.78926233499E+02 0.  0.
         -6    2    1    2    0  502 -0.14825794995E+03 -0.13263340622E+03 -0.18820620412E+03  0.32380315968E+03  0.17278562086E+03 0.  0.
        -24    2    5    5    0    0 -0.17521325441E+03 -0.11687554894E+03 -0.18598398728E+03  0.29214993311E+03  0.80012257992E+02 0.  0.
          5    1    3    3  501    0  0.80177846220E+02  0.98796416594E+02 -0.19221142572E+03  0.23055702360E+03  0.47000000000E+01 0. -1.
        -13    1    4    4    0    0  0.15702511710E+02  0.35406726343E+02  0.18469501921E+02  0.42910693836E+02  0.00000000000E+00 0.  1.
         14    1    4    4    0    0  0.52377592018E+02 -0.15697367130E+01 -0.46850676861E+02  0.70291266465E+02  0.00000000000E+00 0. -1.
         -5    1    5    5    0  502  0.26955304462E+02 -0.15757857282E+02 -0.22222168490E+01  0.31653226573E+02  0.47000000000E+01 0.  1.
         11    1    6    6    0    0 -0.14894391192E+02 -0.22445936096E+02  0.28042967466E+01  0.27083703891E+02  0.00000000000E+00 0. -1.
        -12    1    6    6    0    0 -0.16031886322E+03 -0.94429612845E+02 -0.18878828402E+03  0.26506622921E+03  0.00000000000E+00 0.  1.
</event>
<event>
12    1  0.8053217E-002  0.1792212E+03  0.7818608E-02  0.1168679E+00
         21   -1    0    0  501  502  0.00000000000E+00  0.00000000000E+00  0.12224744375E+03  0.12224744375E+03  0.00000000000E+00 0. -1.
         21   -1    0    0  502  503 -0.00000000000E+00 -0.00000000000E+00 -0.40897235925E+03  0.40897235925E+03  0.00000000000E+00 0. -1.
         -6    2    1    2    0  503 -0.46259935726E+01  0.47626942665E+02 -0.30270125114E+03  0.35177872226E+03  0.17271507319E+03 0.  0.
        -24    2    3    3    0    0 -0.39306590027E+02  0.87538691026E+02 -0.23590056543E+03  0.26645514381E+03  0.78366041413E+02 0.  0.
          6    2    1    2  501    0  0.46259935726E+01 -0.47626942665E+02  0.15976335650E+02  0.17944108074E+03  0.17220375337E+03 0.  0.
         24    2    5    5    0    0 -0.38580255905E+02 -0.36996929834E+02 -0.43008505915E+02  0.10540677315E+03  0.80022792261E+02 0.  0.
          5    1    5    5  501    0  0.43206249477E+02 -0.10630012831E+02  0.58984841565E+02  0.74034307596E+02  0.47000000000E+01 0. -1.
        -13    1    6    6    0    0 -0.40328271367E+02  0.65975110941E+01  0.42539098811E+01  0.41085184354E+02  0.00000000000E+00 0.  1.
         14    1    6    6    0    0  0.17480154628E+01 -0.43594440929E+02 -0.47262415796E+02  0.64321588793E+02  0.00000000000E+00 0. -1.
         -5    1    3    3    0  503  0.34680596455E+02 -0.39911748361E+02 -0.66800685714E+02  0.85323578450E+02  0.47000000000E+01 0.  1.
         13    1    4    4    0    0  0.12566916227E+02 -0.32338278959E+01 -0.63646359737E+02  0.64955709019E+02  0.00000000000E+00 0. -1.
        -14    1    4    4    0    0 -0.51873506255E+02  0.90772518922E+02 -0.17225420569E+03  0.20149943479E+03  0.00000000000E+00 0.  1.
</event>
<event>
12    1  0.8053217E-002  0.1745232E+03  0.7818608E-02  0.1173411E+00
         21   -1    0    0  501  502  0.00000000000E+00  0.00000000000E+00  0.16984561468E+03  0.16984561468E+03  0.00000000000E+00 0.  1.
         21   -1    0    0  502  503 -0.00000000000E+00 -0.00000000000E+00 -0.67613075830E+03  0.67613075830E+03  0.00000000000E+00 0.  1.
         -6    2    1    2    0  503  0.33589390361E+01  0.26210244165E+02 -0.61617065568E+03  0.64040972474E+03  0.17251109889E+03 0.  0.
        -24    2    3    3    0    0 -0.30863675977E+01 -0.49112442280E+02 -0.25565090987E+03  0.27201913557E+03  0.78838218798E+02 0.  0.
          6    2    1    2  501    0 -0.33589390361E+01 -0.26210244165E+02  0.10988551206E+03  0.20556664824E+03  0.17171069198E+03 0.  0.
         24    2    5    5    0    0  0.56752929416E+02 -0.30019395115E+02  0.33031522298E+02  0.10780892680E+03  0.80060128355E+02 0.  0.
          5    1    5    5  501    0 -0.60111868452E+02  0.38091509498E+01  0.76853989759E+02  0.97757721442E+02  0.47000000000E+01 0. -1.
        -11    1    6    6    0    0  0.25658681754E+02  0.22683306555E+02  0.31602337452E+02  0.46600515856E+02  0.00000000000E+00 0.  1.
         12    1    6    6    0    0  0.31094247662E+02 -0.52702701670E+02  0.14291848451E+01  0.61208410944E+02  0.00000000000E+00 0. -1.
         -5    1    3    3    0  503  0.64453066338E+01  0.75322686446E+02 -0.36051974581E+03  0.36839058917E+03  0.47000000000E+01 0.  1.
         13    1    4    4    0    0 -0.66864177795E+01 -0.63673903572E+02 -0.12435002062E+03  0.13986422633E+03  0.00000000000E+00 0. -1.
        -14    1    4    4    0    0  0.36000501818E+01  0.14561461291E+02 -0.13130088926E+03  0.13215490924E+03  0.00000000000E+00 0.  1.
</event>
<event>
12    1  0.8053217E-002  0.2327190E+03  0.7818608E-02  0.1125159E+00
         21   -1    0    0  501  502  0.00000000000E+00  0.00000000000E+00  0.16099615057E+03  0.16099615057E+03  0.00000000000E+00 0.  1.
         21   -1    0    0  502  503 -0.00000000000E+00 -0.00000000000E+00 -0.37674063168E+03  0.37674063168E+03  0.00000000000E+00 0. -1.
         -6    2    1    2    0  503  0.14890704842E+03  0.41309538381E+02 -0.19906218534E+03  0.30442060037E+03  0.17078161865E+03 0.  0.
        -24    2    3    3    0    0  0.21051065956E+02  0.36793841266E+02 -0.13128031524E+03  0.15956199453E+03  0.80178393576E+02 0.  0.
          6    2    1    2  501    0 -0.14890704842E+03 -0.41309538381E+02 -0.16682295763E+02  0.23331618188E+03  0.17400676627E+03 0.  0.
         24    2    5    5    0    0 -0.11498196794E+03  0.37707762513E+02 -0.24960540998E+02  0.14679876011E+03  0.79272435678E+02 0.  0.
          5    1    5    5  501    0 -0.33925080482E+02 -0.79017300894E+02  0.82782452348E+01  0.86517421774E+02  0.47000000000E+01 0. -1.
        -11    1    6    6    0    0 -0.78866088583E+02  0.23150779225E+02  0.22683606863E+02  0.85266432595E+02  0.00000000000E+00 0.  1.
         12    1    6    6    0    0 -0.36115879354E+02  0.14556983287E+02 -0.47644147861E+02  0.61532327514E+02  0.00000000000E+00 0. -1.
         -5    1    3    3    0  503  0.12785598246E+03  0.45156971155E+01 -0.67781870104E+02  0.14485860584E+03  0.47000000000E+01 0.  1.
         11    1    4    4    0    0 -0.27274406376E+02  0.27194013858E+02 -0.78011505593E+02  0.87001164577E+02  0.00000000000E+00 0. -1.
        -12    1    4    4    0    0  0.48325472333E+02  0.95998274071E+01 -0.53268809645E+02  0.72560829953E+02  0.00000000000E+00 0.  1.
</event>
<event>
12    1  0.8053217E-002  0.2147782E+03  0.7818608E-02  0.1138110E+00
         21   -1    0    0  501  502  0.00000000000E+00  0.00000000000E+00  0.27816588690E+03  0.27816588690E+03  0.00000000000E+00 0. -1.
         21   -1    0    0  502  503 -0.00000000000E+00 -0.00000000000E+00 -0.17458814106E+03  0.17458814106E+03  0.00000000000E+00 0. -1.
         -6    2    1    2    0  503  0.76729771269E+02 -0.99371227247E+02 -0.21204907685E+01  0.21337607277E+03  0.17251884925E+03 0.  0.
        -24    2    3    3    0    0  0.10177359290E+03 -0.22521155431E+02  0.14368156815E+01  0.13233367048E+03  0.81517294174E+02 0.  0.
          6    2    1    2  501    0 -0.76729771269E+02  0.99371227247E+02  0.10569823661E+03  0.23937795518E+03  0.17426298977E+03 0.  0.
         24    2    5    5    0    0 -0.33756143082E+02  0.11160577078E+03  0.12724321586E+03  0.18955132670E+03  0.78380764246E+02 0.  0.
          5    1    5    5  501    0 -0.42973628188E+02 -0.12234543536E+02 -0.21544979251E+02  0.49826628484E+02  0.47000000000E+01 0. -1.
        -11    1    6    6    0    0  0.98636277671E+01  0.46564195166E+02  0.92186083635E+02  0.10374868404E+03  0.00000000000E+00 0.  1.
         12    1    6    6    0    0 -0.43619770849E+02  0.65041575617E+02  0.35057132226E+02  0.85802642660E+02  0.00000000000E+00 0. -1.
         -5    1    3    3    0  503 -0.25043821631E+02 -0.76850071816E+02 -0.35573064500E+01  0.81042402292E+02  0.47000000000E+01 0.  1.
         11    1    4    4    0    0  0.26389699038E+02 -0.42314419072E+02  0.17322709694E+02  0.52792068986E+02  0.00000000000E+00 0. -1.
        -12    1    4    4    0    0  0.75383893863E+02  0.19793263642E+02 -0.15885894012E+02  0.79541601493E+02  0.00000000000E+00 0.  1.
</event>
<event>
12    1  0.8053217E-002  0.1879194E+03  0.7818608E-02  0.1161319E+00
         21   -1    0    0  503  502  0.00000000000E+00  0.00000000000E+00  0.70898875832E+02  0.70898875832E+02  0.00000000000E+00 0.  1.
         21   -1    0    0  501  503 -0.00000000000E+00 -0.00000000000E+00 -0.50476636354E+03  0.50476636354E+03  0.00000000000E+00 0.  1.
          6    2    1    2  501    0 -0.73991612254E+01 -0.62865726794E+02 -0.27317902108E+03  0.33157273684E+03  0.17693743263E+03 0.  0.
         24    2    3    3    0    0  0.49722334792E+01 -0.10598799223E+03 -0.22979910840E+03  0.26899088638E+03  0.91051024878E+02 0.  0.
         -6    2    1    2    0  502  0.73991612254E+01  0.62865726794E+02 -0.16068846662E+03  0.24409250253E+03  0.17249208472E+03 0.  0.
        -24    2    5    5    0    0 -0.32574456929E+02  0.92480422468E+01 -0.15774302222E+03  0.17698429224E+03  0.72759584325E+02 0.  0.
          5    1    3    3  501    0 -0.12371394705E+02  0.43122265435E+02 -0.43379912679E+02  0.62581850462E+02  0.47000000000E+01 0. -1.
        -11    1    4    4    0    0 -0.30788126222E+02 -0.71086388710E+01 -0.31944899845E+02  0.44932372394E+02  0.00000000000E+00 0.  1.
         12    1    4    4    0    0  0.35760359701E+02 -0.98879353358E+02 -0.19785420855E+03  0.22405851398E+03  0.00000000000E+00 0. -1.
         -5    1    5    5    0  502  0.39973618155E+02  0.53617684547E+02 -0.29454443996E+01  0.67108210282E+02  0.47000000000E+01 0.  1.
         13    1    6    6    0    0  0.98441347795E+01 -0.12329813545E+02 -0.10403394654E+03  0.10522353978E+03  0.00000000000E+00 0. -1.
        -14    1    6    6    0    0 -0.42418591709E+02  0.21577855792E+02 -0.53709075685E+02  0.71760752463E+02  0.00000000000E+00 0.  1.
</event>
<event>
12    1  0.8053217E-002  0.3162432E+03  0.7818608E-02  0.1077679E+00
         21   -1    0    0  501  502  0.00000000000E+00  0.00000000000E+00  0.59638354339E+03  0.59638354339E+03  0.00000000000E+00 0.  1.
         21   -1    0    0  502  503 -0.00000000000E+00 -0.00000000000E+00 -0.23093848792E+03  0.23093848792E+03  0.00000000000E+00 0. -1.
         -6    2    1    2    0  503 -0.24127624161E+03 -0.11044133362E+03  0.40191547822E+03  0.51141547099E+03  0.17204133050E+03 0.  0.
        -24    2    3    3    0    0 -0.24837112308E+03 -0.13102085962E+03  0.35675317177E+03  0.46106094629E+03  0.80309963220E+02 0.  0.
          6    2    1    2  501    0  0.24127624161E+03  0.11044133362E+03 -0.36470422750E+02  0.31590656032E+03  0.16749731396E+03 0.  0.
         24    2    5    5    0    0  0.17390156004E+03  0.21042950821E+02 -0.27739039883E+02  0.20352441935E+03  0.99840756071E+02 0.  0.
          5    1    5    5  501    0  0.67374681564E+02  0.89398382798E+02 -0.87313828675E+01  0.11238214097E+03  0.47000000000E+01 0. -1.
        -13    1    6    6    0    0  0.22576112639E+02  0.33933915350E+02  0.18511535688E+02  0.44764588978E+02  0.00000000000E+00 0.  1.
         14    1    6    6    0    0  0.15132544740E+03 -0.12890964529E+02 -0.46250575570E+02  0.15875983037E+03  0.00000000000E+00 0. -1.
         -5    1    3    3    0  503  0.70948814770E+01  0.20579526001E+02  0.45162306452E+02  0.50354524699E+02  0.47000000000E+01 0.  1.
         13    1    4    4    0    0 -0.38038706720E+02 -0.17980773054E+02  0.10960942943E+03  0.11740731846E+03  0.00000000000E+00 0. -1.
        -14    1    4    4    0    0 -0.21033241636E+03 -0.11304008657E+03  0.24714374234E+03  0.34365362783E+03  0.00000000000E+00 0.  1.
</event>
<event>
12    1  0.8053217E-002  0.2033286E+03  0.7818608E-02  0.1147122E+00
         21   -1    0    0  501  502  0.00000000000E+00  0.00000000000E+00  0.58720286045E+02  0.58720286045E+02  0.00000000000E+00 0. -1.
         21   -1    0    0  502  503 -0.00000000000E+00 -0.00000000000E+00 -0.76415924093E+03  0.76415924093E+03  0.00000000000E+00 0.  1.
         -6    2    1    2    0  503  0.87990194806E+02  0.60375251046E+02 -0.47128593325E+03  0.51327669125E+03  0.17307537543E+03 0.  0.
        -24    2    3    3    0    0 -0.16771618125E+02  0.32591323453E+02 -0.27493943153E+03  0.28895321317E+03  0.80986337442E+02 0.  0.
          6    2    1    2  501    0 -0.87990194806E+02 -0.60375251046E+02 -0.23415302164E+03  0.30960283572E+03  0.17215932454E+03 0.  0.
         24    2    5    5    0    0 -0.69479020469E+02 -0.10436198763E+03 -0.20594013865E+03  0.25396513864E+03  0.79800953545E+02 0.  0.
          5    1    5    5  501    0 -0.18511174336E+02  0.43986736587E+02 -0.28212882985E+02  0.55637697088E+02  0.47000000000E+01 0. -1.
        -13    1    6    6    0    0 -0.43599857769E+02 -0.70572191653E+02 -0.19204103499E+03  0.20919163691E+03  0.00000000000E+00 0.  1.
         14    1    6    6    0    0 -0.25879162701E+02 -0.33789795980E+02 -0.13899103662E+02  0.44773501729E+02  0.00000000000E+00 0. -1.
         -5    1    3    3    0  503  0.10476181293E+03  0.27783927593E+02 -0.19634650172E+03  0.22432347808E+03  0.47000000000E+01 0.  1.
         11    1    4    4    0    0 -0.32567303265E+02 -0.10535594355E+02 -0.59236848309E+02  0.68415145896E+02  0.00000000000E+00 0. -1.
        -12    1    4    4    0    0  0.15795685140E+02  0.43126917808E+02 -0.21570258322E+03  0.22053806727E+03  0.00000000000E+00 0.  1.
</event>
<event>
12    1  0.8053217E-002  0.1969308E+03  0.7818608E-02  0.1154662E+00
         21   -1    0    0  503  502  0.00000000000E+00  0.00000000000E+00  0.19766085155E+04  0.19766085155E+04  0.00000000000E+00 0. -1.
         21   -1    0    0  501  503 -0.00000000000E+00 -0.00000000000E+00 -0.26079580471E+02  0.26079580471E+02  0.00000000000E+00 0. -1.
          6    2    1    2  501    0  0.95556557118E+02  0.57634190514E+01  0.42014493008E+03  0.45968551632E+03  0.16007729082E+03 0.  0.
         24    2    3    3    0    0  0.10266924452E+03 -0.40741095390E+02  0.27651290244E+03  0.30847205942E+03  0.80590418786E+02 0.  0.
         -6    2    1    2    0  502 -0.95556557118E+02 -0.57634190514E+01  0.15303840050E+04  0.15430025797E+04  0.17209731432E+03 0.  0.
        -24    2    5    5    0    0 -0.70519775884E+02 -0.17934079407E+02  0.14897416716E+04  0.14935166761E+04  0.77247289864E+02 0.  0.
          5    1    3    3  501    0 -0.71126874043E+01  0.46504514442E+02  0.14363202764E+03  0.15121345690E+03  0.47000000000E+01 0. -1.
        -11    1    4    4    0    0  0.11263111452E+03 -0.47295435958E+02  0.26543494379E+03  0.29219571456E+03  0.00000000000E+00 0.  1.
         12    1    4    4    0    0 -0.99618699968E+01  0.65543405677E+01  0.11077958646E+02  0.16276344856E+02  0.00000000000E+00 0. -1.
         -5    1    5    5    0  502 -0.25036781234E+02  0.12170660356E+02  0.40642333420E+02  0.49485903587E+02  0.47000000000E+01 0.  1.
         13    1    6    6    0    0 -0.17689152115E+02  0.21315300741E+02  0.17964718901E+03  0.18177007638E+03  0.00000000000E+00 0. -1.
        -14    1    6    6    0    0 -0.52830623769E+02 -0.39249380148E+02  0.13100944825E+04  0.13117465997E+04  0.00000000000E+00 0.  1.
</event>
<event>
12    1  0.8053217E-002  0.1907871E+03  0.7818608E-02  0.1157761E+00
         21   -1    0    0  501  502  0.00000000000E+00  0.00000000000E+00  0.35480375874E+03  0.35480375874E+03  0.00000000000E+00 0.  1.
         21   -1    0    0  502  503 -0.00000000000E+00 -0.00000000000E+00 -0.29213984147E+03  0.29213984147E+03  0.00000000000E+00 0. -1.
         -6    2    1    2    0  503 -0.11487877541E+02 -0.82622492769E+02 -0.22923824523E+03  0.29822220850E+03  0.17154551852E+03 0.  0.
        -24    2    3    3    0    0  0.13687640206E+02  0.19699981011E+02 -0.12573948217E+03  0.15044609646E+03  0.79045365561E+02 0.  0.
          6    2    1    2  501    0  0.11487877541E+02  0.82622492769E+02  0.29190216250E+03  0.34872139172E+03  0.17158464071E+03 0.  0.
         24    2    5    5    0    0  0.48882164448E+01  0.96609320628E+02  0.30376366254E+03  0.32867215075E+03  0.79973523786E+02 0.  0.
          5    1    5    5  501    0  0.65996610957E+01 -0.13986827858E+02 -0.11861500042E+02  0.20049240967E+02  0.47000000000E+01 0. -1.
        -13    1    6    6    0    0  0.16873472530E+02  0.88235575821E+02  0.15469041749E+03  0.17888363866E+03  0.00000000000E+00 0.  1.
         14    1    6    6    0    0 -0.11985256085E+02  0.83737448067E+01  0.14907324505E+03  0.14978851210E+03  0.00000000000E+00 0. -1.
         -5    1    3    3    0  503 -0.25175517746E+02 -0.10232247378E+03 -0.10349876306E+03  0.14777611204E+03  0.47000000000E+01 0.  1.
         11    1    4    4    0    0  0.21909127465E+01  0.48535113590E+01 -0.13087164154E+03  0.13097993446E+03  0.00000000000E+00 0. -1.
        -12    1    4    4    0    0  0.11496727459E+02  0.14846469652E+02  0.51321593658E+01  0.19466162004E+02  0.00000000000E+00 0.  1.
</event>
<event>
12    1  0.8053217E-002  0.2133556E+03  0.7818608E-02  0.1139130E+00
         21   -1    0    0  501  502  0.00000000000E+00  0.00000000000E+00  0.83665384771E+02  0.83665384771E+02  0.00000000000E+00 0. -1.
         21   -1    0    0  502  503 -0.00000000000E+00 -0.00000000000E+00 -0.74845703159E+03  0.74845703159E+03  0.00000000000E+00 0. -1.
         -6    2    1    2    0  503 -0.46788789400E+01  0.12409021170E+03 -0.55171967602E+03  0.59153632573E+03  0.17349452786E+03 0.  0.
        -24    2    3    3    0    0  0.20167858734E+02  0.13476627752E+03 -0.53796354791E+03  0.56083356013E+03  0.80998834601E+02 0.  0.
          6    2    1    2  501    0  0.46788789400E+01 -0.12409021170E+03 -0.11307197080E+03  0.24058609064E+03  0.17226759382E+03 0.  0.
         24    2    5    5    0    0  0.61191998045E+02 -0.78713689198E+02 -0.29709548483E+02  0.13002323575E+03  0.77994096396E+02 0.  0.
          5    1    5    5  501    0 -0.56513119105E+02 -0.45376522505E+02 -0.83362422317E+02  0.11056285488E+03  0.47000000000E+01 0. -1.
        -11    1    6    6    0    0  0.51019358319E+02 -0.50519763711E+01 -0.19997485432E+02  0.55030871446E+02  0.00000000000E+00 0.  1.
         12    1    6    6    0    0  0.10172639726E+02 -0.73661712827E+02 -0.97120630508E+01  0.74992364306E+02  0.00000000000E+00 0. -1.
         -5    1    3    3    0  503 -0.24846737674E+02 -0.10676065822E+02 -0.13756128109E+02  0.30702765593E+02  0.47000000000E+01 0.  1.
         13    1    4    4    0    0 -0.12824294250E+02  0.46132189928E+02 -0.80230396714E+02  0.93432103837E+02  0.00000000000E+00 0. -1.
        -14    1    4    4    0    0  0.32992152985E+02  0.88634087597E+02 -0.45773315120E+03  0.46740145630E+03  0.00000000000E+00 0.  1.
</event>
<event>
12    1  0.8053217E-002  0.1918089E+03  0.7818608E-02  0.1157462E+00
         21   -1    0    0  501  502  0.00000000000E+00  0.00000000000E+00  0.42943401752E+03  0.42943401752E+03  0.00000000000E+00 0.  1.
         21   -1    0    0  502  503 -0.00000000000E+00 -0.00000000000E+00 -0.14047898079E+03  0.14047898079E+03  0.00000000000E+00 0.  1.
         -6    2    1    2    0  503  0.38830745244E+01  0.84221608604E+02 -0.34866065852E+02  0.19495204544E+03  0.17228551840E+03 0.  0.
        -24    2    3    3    0    0  0.13747104250E+02  0.50589710075E+02 -0.88951885953E+02  0.13033185033E+03  0.79533964784E+02 0.  0.
          6    2    1    2  501    0 -0.38830745244E+01 -0.84221608604E+02  0.32382110258E+03  0.37496095287E+03  0.16919589851E+03 0.  0.
         24    2    5    5    0    0 -0.36901572412E+02 -0.49479499039E+02  0.30819980542E+03  0.32433141302E+03  0.79961231483E+02 0.  0.
          5    1    5    5  501    0  0.33018497887E+02 -0.34742109565E+02  0.15621297161E+02  0.50629539843E+02  0.47000000000E+01 0. -1.
        -13    1    6    6    0    0 -0.33656206410E+02 -0.45757760295E+02  0.92319655458E+02  0.10839479527E+03  0.00000000000E+00 0.  1.
         14    1    6    6    0    0 -0.32453660021E+01 -0.37217387440E+01  0.21588014996E+03  0.21593661776E+03  0.00000000000E+00 0. -1.
         -5    1    3    3    0  503 -0.98640297259E+01  0.33631898529E+02  0.54085820101E+02  0.64620195118E+02  0.47000000000E+01 0.  1.
         11    1    4    4    0    0 -0.24588096286E+02  0.97959591517E+01 -0.63583513956E+02  0.68872335097E+02  0.00000000000E+00 0. -1.
        -12    1    4    4    0    0  0.38335200536E+02  0.40793750924E+02 -0.25368371996E+02  0.61459515230E+02  0.00000000000E+00 0.  1.
</event>
<event>
12    1  0.8053217E-002  0.1903639E+03  0.7818608E-02  0.1158231E+00
         21   -1    0    0  503  502  0.00000000000E+00  0.00000000000E+00  0.22144564678E+04  0.22144564678E+04  0.00000000000E+00 0. -1.
         21   -1    0    0  501  503 -0.00000000000E+00 -0.00000000000E+00 -0.23982636048E+02  0.23982636048E+02  0.00000000000E+00 0. -1.
          6    2    1    2  501    0 -0.56612929675E+02  0.56588921118E+02  0.46374629450E+03  0.50129736469E+03  0.17271679820E+03 0.  0.
         24    2    3    3    0    0  0.68533253442E+01  0.44067234862E+02  0.40002376203E+03  0.41037206954E+03  0.79983348359E+02 0.  0.
         -6    2    1    2    0  502  0.56612929675E+02 -0.56588921118E+02  0.17267275373E+04  0.17371417392E+04  0.17223850971E+03 0.  0.
        -24    2    5    5    0    0 -0.19535808462E+02 -0.70324373287E+02  0.81552903172E+03  0.82265166297E+03  0.79630344205E+02 0.  0.
          5    1    3    3  501    0 -0.63466255020E+02  0.12521686256E+02  0.63722532466E+02  0.90925295143E+02  0.47000000000E+01 0. -1.
        -11    1    4    4    0    0 -0.24537862537E+02  0.25425711412E+02  0.32522430902E+03  0.32713823481E+03  0.00000000000E+00 0.  1.
         12    1    4    4    0    0  0.31391187881E+02  0.18641523450E+02  0.74799453009E+02  0.83233834728E+02  0.00000000000E+00 0. -1.
         -5    1    5    5    0  502  0.76148738138E+02  0.13735452169E+02  0.91119850553E+03  0.91449007619E+03  0.47000000000E+01 0.  1.
         13    1    6    6    0    0  0.91924180727E+01 -0.41465830625E+02  0.67518691580E+03  0.67652146080E+03  0.00000000000E+00 0. -1.
        -14    1    6    6    0    0 -0.28728226535E+02 -0.28858542662E+02  0.14034211592E+03  0.14613020217E+03  0.00000000000E+00 0.  1.
</event>
<event>
12    1  0.8053217E-002  0.2047490E+03  0.7818608E-02  0.1146217E+00
         21   -1    0    0  503  502  0.00000000000E+00  0.00000000000E+00  0.68528842911E+03  0.68528842911E+03  0.00000000000E+00 0.  1.
         21   -1    0    0  501  503 -0.00000000000E+00 -0.00000000000E+00 -0.13698735079E+03  0.13698735079E+03  0.00000000000E+00 0. -1.
          6    2    1    2  501    0  0.67660275423E+02 -0.83240936665E+02 -0.33552743291E+02  0.20544839658E+03  0.17197758769E+03 0.  0.
         24    2    3    3    0    0 -0.27888364538E+02 -0.37308048772E+02 -0.38568243261E+02  0.99209900600E+02  0.78647591248E+02 0.  0.
         -6    2    1    2    0  502 -0.67660275423E+02  0.83240936665E+02  0.58185382160E+03  0.61682738332E+03  0.17439949739E+03 0.  0.
        -24    2    5    5    0    0 -0.18845030234E+02  0.98866950366E+02  0.52239621723E+03  0.53818644496E+03  0.81345145706E+02 0.  0.
          5    1    3    3  501    0  0.95548639961E+02 -0.45932887893E+02  0.50154999700E+01  0.10623849598E+03  0.47000000000E+01 0. -1.
        -11    1    4    4    0    0 -0.44135177061E+02 -0.23303650508E+02  0.54870764537E+01  0.50210377306E+02  0.00000000000E+00 0.  1.
         12    1    4    4    0    0  0.16246812524E+02 -0.14004398264E+02 -0.44055319714E+02  0.48999523294E+02  0.00000000000E+00 0. -1.
         -5    1    5    5    0  502 -0.48815245189E+02 -0.15626013701E+02  0.59457604377E+02  0.78640938355E+02  0.47000000000E+01 0.  1.
         11    1    6    6    0    0 -0.33873704467E+02  0.57666225511E+01  0.16642083121E+03  0.16993108854E+03  0.00000000000E+00 0. -1.
        -12    1    6    6    0    0  0.15028674233E+02  0.93100327815E+02  0.35597538601E+03  0.36825535643E+03  0.00000000000E+00 0.  1.
</event>
<event>
12    1  0.8053217E-002  0.2614757E+03  0.7818608E-02  0.1106274E+00
         21   -1    0    0  501  502  0.00000000000E+00  0.00000000000E+00  0.57461609699E+02  0.57461609699E+02  0.00000000000E+00 0. -1.
         21   -1    0    0  502  503 -0.00000000000E+00 -0.00000000000E+00 -0.11918686178E+04  0.11918686178E+04  0.00000000000E+00 0. -1.
         -6    2    1    2    0  503  0.19050478981E+03 -0.49970764731E+02 -0.59576295620E+03  0.65061743806E+03  0.17198953005E+03 0.  0.
        -24    2    3    3    0    0  0.15803025510E+03 -0.45490313946E+02 -0.28791108878E+03  0.34098938358E+03  0.79611773507E+02 0.  0.
          6    2    1    2  501    0 -0.19050478981E+03  0.49970764731E+02 -0.53864405194E+03  0.59871278948E+03  0.17184422403E+03 0.  0.
         24    2    5    5    0    0 -0.12047115935E+03  0.65042513089E+02 -0.22170125340E+03  0.27374095295E+03  0.83897764087E+02 0.  0.
          5    1    5    5  501    0 -0.70033630463E+02 -0.15071748358E+02 -0.31694279854E+03  0.32497183654E+03  0.47000000000E+01 0. -1.
        -11    1    6    6    0    0 -0.38812305768E+02  0.50060087303E+02 -0.42608267982E+02  0.76340499869E+02  0.00000000000E+00 0.  1.
         12    1    6    6    0    0 -0.81658853583E+02  0.14982425786E+02 -0.17909298541E+03  0.19740045308E+03  0.00000000000E+00 0. -1.
         -5    1    3    3    0  503  0.32474534719E+02 -0.44804507849E+01 -0.30785186742E+03  0.30962805448E+03  0.47000000000E+01 0.  1.
         13    1    4    4    0    0  0.83699820781E+02 -0.22606246880E+02 -0.22444106545E+03  0.24060443524E+03  0.00000000000E+00 0. -1.
        -14    1    4    4    0    0  0.74330434314E+02 -0.22884067066E+02 -0.63470023327E+02  0.10038494833E+03  0.00000000000E+00 0.  1.
</event>
<event>
12    1  0.8053217E-002  0.1764326E+03  0.7818608E-02  0.1171554E+00
         21   -1    0    0  503  502  0.00000000000E+00  0.00000000000E+00  0.72878457303E+03  0.72878457303E+03  0.00000000000E+00 0.  1.
         21   -1    0    0  501  503 -0.00000000000E+00 -0.00000000000E+00 -0.47258189058E+02  0.47258189058E+02  0.00000000000E+00 0.  1.
          6    2    1    2  501    0  0.35285586456E+02  0.16586297392E+02  0.46342292078E+03  0.49551185974E+03  0.17102930088E+03 0.  0.
         24    2    3    3    0    0  0.53252391476E+02  0.50489127427E+02  0.18188574967E+03  0.21133325976E+03  0.78704202944E+02 0.  0.
         -6    2    1    2    0  502 -0.35285586456E+02 -0.16586297392E+02  0.21810346319E+03  0.28053090235E+03  0.17207059204E+03 0.  0.
        -24    2    5    5    0    0  0.21503442468E+02  0.67598727743E+01  0.43136114559E+02  0.95043165414E+02  0.81635684568E+02 0.  0.
          5    1    3    3  501    0 -0.17966805020E+02 -0.33902830036E+02  0.28153717111E+03  0.28417859998E+03  0.47000000000E+01 0. -1.
        -11    1    4    4    0    0  0.62497348899E+02  0.11893693547E+02  0.13919498809E+03  0.15304451404E+03  0.00000000000E+00 0.  1.
         12    1    4    4    0    0 -0.92449574230E+01  0.38595433881E+02  0.42690761575E+02  0.58288745724E+02  0.00000000000E+00 0. -1.
         -5    1    5    5    0  502 -0.56789028924E+02 -0.23346170166E+02  0.17496734863E+03  0.18548773694E+03  0.47000000000E+01 0.  1.
         13    1    6    6    0    0  0.38164455442E+02  0.24813035061E+02  0.51831373949E+02  0.68983358091E+02  0.00000000000E+00 0. -1.
        -14    1    6    6    0    0 -0.16661012974E+02 -0.18053162286E+02 -0.86952593893E+01  0.26059807323E+02  0.00000000000E+00 0.  1.
</event>
<event>
12    1  0.8053217E-002  0.2093382E+03  0.7818608E-02  0.1142680E+00
         21   -1    0    0  503  502  0.00000000000E+00  0.00000000000E+00  0.26867621121E+03  0.26867621121E+03  0.00000000000E+00 0. -1.
         21   -1    0    0  501  503 -0.00000000000E+00 -0.00000000000E+00 -0.25232088123E+03  0.25232088123E+03  0.00000000000E+00 0. -1.
          6    2    1    2  501    0  0.11664254874E+03  0.15299331617E+02 -0.14865269349E+03  0.25674912032E+03  0.17315580781E+03 0.  0.
         24    2    3    3    0    0  0.13206462686E+03 -0.16253872438E+01 -0.61425981847E+02  0.16644476922E+03  0.80541929488E+02 0.  0.
         -6    2    1    2    0  502 -0.11664254874E+03 -0.15299331617E+02  0.16500802348E+03  0.26424797212E+03  0.16958711399E+03 0.  0.
        -24    2    5    5    0    0 -0.54383046022E+02  0.55793251970E+02  0.10123443334E+03  0.15014467717E+03  0.78896203507E+02 0.  0.
          5    1    3    3  501    0 -0.15422078118E+02  0.16924718861E+02 -0.87226711647E+02  0.90304351095E+02  0.47000000000E+01 0. -1.
        -11    1    4    4    0    0  0.65561372149E+01 -0.22163556186E+02  0.39492171618E+01  0.23447867156E+02  0.00000000000E+00 0.  1.
         12    1    4    4    0    0  0.12550848964E+03  0.20538168942E+02 -0.65375199009E+02  0.14299690207E+03  0.00000000000E+00 0. -1.
         -5    1    5    5    0  502 -0.62259502717E+02 -0.71092583587E+02  0.63773590137E+02  0.11410329495E+03  0.47000000000E+01 0.  1.
         13    1    6    6    0    0 -0.46007054839E+02  0.89249990848E+01  0.89625954517E+02  0.10113909445E+03  0.00000000000E+00 0. -1.
        -14    1    6    6    0    0 -0.83759911831E+01  0.46868252885E+02  0.11608478828E+02  0.49005582718E+02  0.00000000000E+00 0.  1.
</event>
<event>
12    1  0.8053217E-002  0.1908937E+03  0.7818608E-02  0.1158109E+00
         21   -1    0    0  503  502  0.00000000000E+00  0.00000000000E+00  0.12851127222E+04  0.12851127222E+04  0.00000000000E+00 0. -1.
         21   -1    0    0  501  503 -0.00000000000E+00 -0.00000000000E+00 -0.88738591674E+02  0.88738591674E+02  0.00000000000E+00 0. -1.
          6    2    1    2  501    0 -0.76633125258E+02 -0.20944231347E+02  0.31152547392E+02  0.19341897999E+03  0.17357742911E+03 0.  0.
         24    2    3    3    0    0  0.17331912345E+01  0.22250844633E+02  0.56293997887E+02  0.10035299972E+03  0.80022536306E+02 0.  0.
         -6    2    1    2    0  502  0.76633125258E+02  0.20944231347E+02  0.11652215831E+04  0.11804323338E+04  0.17137053529E+03 0.  0.
        -24    2    5    5    0    0  0.70316201494E+02 -0.29256059308E+02  0.10303502862E+04  0.10363062452E+04  0.80676119944E+02 0.  0.
          5    1    3    3  501    0 -0.78366316493E+02 -0.43195075980E+02 -0.25141450496E+02  0.93065980265E+02  0.47000000000E+01 0. -1.
        -11    1    4    4    0    0 -0.27745621579E+02 -0.38805500320E+01  0.54069703475E+02  0.60896724207E+02  0.00000000000E+00 0.  1.
         12    1    4    4    0    0  0.29478812814E+02  0.26131394665E+02  0.22242944129E+01  0.39456275517E+02  0.00000000000E+00 0. -1.
         -5    1    5    5    0  502  0.63169237641E+01  0.50200290655E+02  0.13487129688E+03  0.14412608865E+03  0.47000000000E+01 0.  1.
         11    1    6    6    0    0 -0.16190852424E+01 -0.64844334067E+01  0.55209541705E+03  0.55213586991E+03  0.00000000000E+00 0. -1.
        -12    1    6    6    0    0  0.71935286737E+02 -0.22771625902E+02  0.47825486916E+03  0.48417037528E+03  0.00000000000E+00 0.  1.
</event>
<event>
12    1  0.8053217E-002  0.1988326E+03  0.7818608E-02  0.1151250E+00
         21   -1    0    0  501  502  0.00000000000E+00  0.00000000000E+00  0.16276700267E+04  0.16276700267E+04  0.00000000000E+00 0.  1.
         21   -1    0    0  502  503 -0.00000000000E+00 -0.00000000000E+00 -0.37403569607E+02  0.37403569607E+02  0.00000000000E+00 0.  1.
         -6    2    1    2    0  503  0.86748689029E+02 -0.38055817300E+02  0.29975688321E+03  0.35970627558E+03  0.17481657638E+03 0.  0.
        -24    2    3    3    0    0  0.69362184042E+02 -0.45206816435E+02  0.31481020935E+03  0.33516814256E+03  0.79858919681E+02 0.  0.
          6    2    1    2  501    0 -0.86748689029E+02  0.38055817300E+02  0.12905095739E+04  0.13053673208E+04  0.17203284999E+03 0.  0.
         24    2    5    5    0    0 -0.12117873513E+03  0.21896152523E+02  0.11621358201E+04  0.11713954076E+04  0.80273341247E+02 0.  0.
          5    1    5    5  501    0  0.34430046102E+02  0.16159664776E+02  0.12837375381E+03  0.13397191313E+03  0.47000000000E+01 0. -1.
        -13    1    6    6    0    0 -0.59616437494E+02  0.65927363009E+01  0.25152384326E+03  0.25857654093E+03  0.00000000000E+00 0.  1.
         14    1    6    6    0    0 -0.61562297637E+02  0.15303416222E+02  0.91061197686E+03  0.91281886672E+03  0.00000000000E+00 0. -1.
         -5    1    3    3    0  503  0.17386504987E+02  0.71509991353E+01 -0.15053326132E+02  0.24538133016E+02  0.47000000000E+01 0.  1.
         11    1    4    4    0    0  0.59970577023E+01 -0.41360428663E+02  0.63912497758E+02  0.76363977961E+02  0.00000000000E+00 0. -1.
        -12    1    4    4    0    0  0.63365126339E+02 -0.38463877715E+01  0.25089771159E+03  0.25880416460E+03  0.00000000000E+00 0.  1.
</event>
<event>
12    1  0.8053217E-002  0.2006597E+03  0.7818608E-02  0.1149361E+00
         21   -1    0    0  503  502  0.00000000000E+00  0.00000000000E+00  0.47170112785E+03  0.47170112785E+03  0.00000000000E+00 0. -1.
         21   -1    0    0  501  503 -0.00000000000E+00 -0.00000000000E+00 -0.17977271950E+03  0.17977271950E+03  0.00000000000E+00 0.  1.
          6    2    1    2  501    0  0.73639998455E+02 -0.72704029475E+02 -0.90397481606E+02  0.22008185136E+03  0.17191739686E+03 0.  0.
         24    2    3    3    0    0  0.85650417631E+02 -0.64242984804E+01 -0.13514790976E+02  0.11775741133E+03  0.79415947373E+02 0.  0.
         -6    2    1    2    0  502 -0.73639998455E+02  0.72704029475E+02  0.38232588996E+03  0.43139199599E+03  0.17093052038E+03 0.  0.
        -24    2    5    5    0    0 -0.64509416711E+02  0.64162898878E+02  0.12616275761E+03  0.17488086795E+03  0.79924552733E+02 0.  0.
          5    1    3    3  501    0 -0.12010419176E+02 -0.66279730994E+02 -0.76882690629E+02  0.10232444003E+03  0.47000000000E+01 0. -1.
        -13    1    4    4    0    0  0.52618270585E+02 -0.40728271126E+02  0.48521748224E+01  0.66715950632E+02  0.00000000000E+00 0.  1.
         14    1    4    4    0    0  0.33032147046E+02  0.34303972645E+02 -0.18366965799E+02  0.51041460700E+02  0.00000000000E+00 0. -1.
         -5    1    5    5    0  502 -0.91305817441E+01  0.85411305968E+01  0.25616313235E+03  0.25651112804E+03  0.47000000000E+01 0.  1.
         11    1    6    6    0    0 -0.18891431953E+01  0.11613641281E+01  0.69464156049E+02  0.69499543914E+02  0.00000000000E+00 0. -1.
        -12    1    6    6    0    0 -0.62620273516E+02  0.63001534750E+02  0.56698601560E+02  0.10538132403E+03  0.00000000000E+00 0.  1.
</event>
<event>
12    1  0.8053217E-002  0.2284876E+03  0.7818608E-02  0.1127809E+00
         21   -1    0    0  501  502  0.00000000000E+00  0.00000000000E+00  0.12017654563E+03  0.12017654563E+03  0.00000000000E+00 0. -1.
         21   -1    0    0  502  503 -0.00000000000E+00 -0.00000000000E+00 -0.12196502553E+04  0.12196502553E+04  0.00000000000E+00 0. -1.
         -6    2    1    2    0  503  0.14451820634E+03 -0.18414159462E+02 -0.10873891491E+04  0.11110198145E+04  0.17528626095E+03 0.  0.
        -24    2    3    3    0    0  0.14466301318E+03 -0.66978857068E+02 -0.92577590879E+03  0.94220192361E+03  0.72593917688E+02 0.  0.
          6    2    1    2  501    0 -0.14451820634E+03  0.18414159462E+02 -0.12084560520E+02  0.22880698643E+03  0.17601706509E+03 0.  0.
         24    2    5    5    0    0  0.58366058005E+00  0.22628144009E+02 -0.43905003572E+01  0.83364221014E+02  0.80112067074E+02 0.  0.
          5    1    5    5  501    0 -0.14510186692E+03 -0.42139845472E+01 -0.76940601629E+01  0.14544276542E+03  0.47000000000E+01 0. -1.
        -13    1    6    6    0    0 -0.35635619676E+01  0.30980168153E+02 -0.37612297659E+02  0.48858517454E+02  0.00000000000E+00 0.  1.
         14    1    6    6    0    0  0.41472225477E+01 -0.83520241432E+01  0.33221797302E+02  0.34505703559E+02  0.00000000000E+00 0. -1.
         -5    1    3    3    0  503 -0.14480683462E+00  0.48564697606E+02 -0.16161324034E+03  0.16881789087E+03  0.47000000000E+01 0.  1.
         13    1    4    4    0    0  0.10028275996E+03 -0.77122531187E+02 -0.75172031568E+03  0.76229124996E+03  0.00000000000E+00 0. -1.
        -14    1    4    4    0    0  0.44380253216E+02  0.10143674119E+02 -0.17405559311E+03  0.17991067365E+03  0.00000000000E+00 0.  1.
</event>
<event>
12    1  0.8053217E-002  0.2409902E+03  0.7818608E-02  0.1119168E+00
         21   -1    0    0  503  502  0.00000000000E+00  0.00000000000E+00  0.16198647988E+03  0.16198647988E+03  0.00000000000E+00 0.  1.
         21   -1    0    0  501  503 -0.00000000000E+00 -0.00000000000E+00 -0.96740648599E+03  0.96740648599E+03  0.00000000000E+00 0. -1.
          6    2    1    2  501    0  0.16792410033E+03  0.70694321562E+01 -0.85075658446E+03  0.88417534991E+03  0.17242622493E+03 0.  0.
         24    2    3    3    0    0  0.15651443181E+03 -0.40851062387E+02 -0.53560944521E+03  0.56516694295E+03  0.79816157161E+02 0.  0.
         -6    2    1    2    0  502 -0.16792410033E+03 -0.70694321562E+01  0.45336578357E+02  0.24521761595E+03  0.17270724795E+03 0.  0.
        -24    2    5    5    0    0 -0.81035077924E+02  0.56182699673E+02  0.52612358626E+02  0.13739571941E+03  0.79914603390E+02 0.  0.
          5    1    3    3  501    0  0.11409668527E+02  0.47920494544E+02 -0.31514713925E+03  0.31900840696E+03  0.47000000000E+01 0. -1.
        -11    1    4    4    0    0  0.13299970527E+03 -0.26621112158E+00 -0.41326523540E+03  0.43413954815E+03  0.00000000000E+00 0.  1.
         12    1    4    4    0    0  0.23514726536E+02 -0.40584851266E+02 -0.12234420981E+03  0.13102739481E+03  0.00000000000E+00 0. -1.
         -5    1    5    5    0  502 -0.86889022411E+02 -0.63252131829E+02 -0.72757802691E+01  0.10782189655E+03  0.47000000000E+01 0.  1.
         11    1    6    6    0    0  0.87040194472E+01  0.31027453780E+02  0.45825670135E+01  0.32549389596E+02  0.00000000000E+00 0. -1.
        -12    1    6    6    0    0 -0.89739097371E+02  0.25155245893E+02  0.48029791613E+02  0.10484632981E+03  0.00000000000E+00 0.  1.
</event>
<event>
12    1  0.8053217E-002  0.2462480E+03  0.7818608E-02  0.1115794E+00
         21   -1    0    0  501  502  0.00000000000E+00  0.00000000000E+00  0.11820221029E+03  0.11820221029E+03  0.00000000000E+00 0. -1.
         21   -1    0    0  502  503 -0.00000000000E+00 -0.00000000000E+00 -0.73247659140E+03  0.73247659140E+03  0.00000000000E+00 0. -1.
         -6    2    1    2    0  503 -0.19545822670E+02 -0.17466299005E+03 -0.54035536528E+03  0.59357550997E+03  0.17163556150E+03 0.  0.
        -24    2    3    3    0    0  0.81429909955E+01 -0.12252592490E+03 -0.19704113067E+03  0.24519109922E+03  0.78832464038E+02 0.  0.
          6    2    1    2  501    0  0.19545822670E+02  0.17466299005E+03 -0.73919015831E+02  0.25710329172E+03  0.17247864341E+03 0.  0.
         24    2    5    5    0    0  0.39365928815E+02  0.17099947194E+03 -0.11708315201E+02  0.19154019809E+03  0.75895105807E+02 0.  0.
          5    1    5    5  501    0 -0.19820106145E+02  0.36635181095E+01 -0.62210700630E+02  0.65563093623E+02  0.47000000000E+01 0. -1.
        -11    1    6    6    0    0  0.36491172981E+02  0.72596943523E+02  0.27202333991E+02  0.85684822980E+02  0.00000000000E+00 0.  1.
         12    1    6    6    0    0  0.28747558341E+01  0.98402528417E+02 -0.38910649192E+02  0.10585537511E+03  0.00000000000E+00 0. -1.
         -5    1    3    3    0  503 -0.27688813666E+02 -0.52137065145E+02 -0.34331423462E+03  0.34838441075E+03  0.47000000000E+01 0.  1.
         11    1    4    4    0    0  0.36954432266E+02 -0.31166515668E+02 -0.84956102892E+02  0.97747231069E+02  0.00000000000E+00 0. -1.
        -12    1    4    4    0    0 -0.28811441271E+02 -0.91359409237E+02 -0.11208502778E+03  0.14744386815E+03  0.00000000000E+00 0.  1.
</event>
<event>
12    1  0.8053217E-002  0.1785824E+03  0.7818608E-02  0.1169580E+00
         21   -1    0    0  503  502  0.00000000000E+00  0.00000000000E+00  0.18962171677E+03  0.18962171677E+03  0.00000000000E+00 0.  1.
         21   -1    0    0  501  503 -0.00000000000E+00 -0.00000000000E+00 -0.37891711960E+03  0.37891711960E+03  0.00000000000E+00 0.  1.
          6    2    1    2  501    0  0.13788934722E+02  0.46901686270E+02 -0.30759365273E+03  0.35567614586E+03  0.17176077153E+03 0.  0.
         24    2    3    3    0    0 -0.22312402054E+02  0.82557784637E+02 -0.14848985196E+03  0.18861096909E+03  0.78811359821E+02 0.  0.
         -6    2    1    2    0  502 -0.13788934722E+02 -0.46901686270E+02  0.11829824990E+03  0.21286269052E+03  0.17007688318E+03 0.  0.
        -24    2    5    5    0    0 -0.68897774138E+02 -0.14494494697E+02  0.93720365154E+02  0.14420868360E+03  0.83997880475E+02 0.  0.
          5    1    3    3  501    0  0.36101336777E+02 -0.35656098368E+02 -0.15910380077E+03  0.16706517677E+03  0.47000000000E+01 0. -1.
        -13    1    4    4    0    0  0.22890444567E+02  0.26565599396E+02 -0.87554796722E+02  0.94316201963E+02  0.00000000000E+00 0.  1.
         14    1    4    4    0    0 -0.45202846622E+02  0.55992185242E+02 -0.60935055235E+02  0.94294767126E+02  0.00000000000E+00 0. -1.
         -5    1    5    5    0  502  0.55108839415E+02 -0.32407191573E+02  0.24577884744E+02  0.68654006918E+02  0.47000000000E+01 0.  1.
         11    1    6    6    0    0  0.15930126617E+02 -0.15593881347E+01 -0.14432983645E+01  0.16071208279E+02  0.00000000000E+00 0. -1.
        -12    1    6    6    0    0 -0.84827900754E+02 -0.12935106562E+02  0.95163663519E+02  0.12813747532E+03  0.00000000000E+00 0.  1.
</event>
<event>
12    1  0.8053217E-002  0.2330431E+03  0.7818608E-02  0.1124611E+00
         21   -1    0    0  501  502  0.00000000000E+00  0.00000000000E+00  0.39737811653E+03  0.39737811653E+03  0.00000000000E+00 0.  1.
         21   -1    0    0  502  503 -0.00000000000E+00 -0.00000000000E+00 -0.13669620764E+03  0.13669620764E+03  0.00000000000E+00 0.  1.
         -6    2    1    2    0  503  0.15231530625E+03  0.36817829881E+02  0.11669978511E+03  0.26014017353E+03  0.17175146265E+03 0.  0.
        -24    2    3    3    0    0  0.14700033325E+03  0.39885192152E+02  0.14851155073E+03  0.22740279304E+03  0.80351870260E+02 0.  0.
          6    2    1    2  501    0 -0.15231530625E+03 -0.36817829881E+02  0.14398212377E+03  0.27393415064E+03  0.17249220796E+03 0.  0.
         24    2    5    5    0    0 -0.16147157564E+03  0.57672052231E+01  0.14059040574E+03  0.22999195867E+03  0.83811147647E+02 0.  0.
          5    1    5    5  501    0  0.91562693971E+01 -0.42585035104E+02  0.33917180381E+01  0.43942191972E+02  0.47000000000E+01 0. -1.
        -11    1    6    6    0    0 -0.52029227562E+02 -0.37707278853E+02  0.49969512084E+02  0.81399210912E+02  0.00000000000E+00 0.  1.
         12    1    6    6    0    0 -0.10944234808E+03  0.43474484076E+02  0.90620893653E+02  0.14859274776E+03  0.00000000000E+00 0. -1.
         -5    1    3    3    0  503  0.53149729995E+01 -0.30673622713E+01 -0.31811765620E+02  0.32737380487E+02  0.47000000000E+01 0.  1.
         13    1    4    4    0    0  0.19488094871E+02 -0.13047615736E+02  0.57346914767E+02  0.61957200965E+02  0.00000000000E+00 0. -1.
        -14    1    4    4    0    0  0.12751223838E+03  0.52932807888E+02  0.91164635963E+02  0.16544559207E+03  0.00000000000E+00 0.  1.
</event>
<event>
12    1  0.8053217E-002  0.2894597E+03  0.7818608E-02  0.1090671E+00
         21   -1    0    0  501  502  0.00000000000E+00  0.00000000000E+00  0.14812297069E+03  0.14812297069E+03  0.00000000000E+00 0.  1.
         21   -1    0    0  502  503 -0.00000000000E+00 -0.00000000000E+00 -0.63826936842E+03  0.63826936842E+03  0.00000000000E+00 0.  1.
         -6    2    1    2    0  503  0.21701577044E+03  0.82370714315E+02 -0.37811380817E+03  0.47600831933E+03  0.17243285347E+03 0.  0.
        -24    2    3    3    0    0  0.11523585657E+03  0.11346409716E+03 -0.20872028652E+03  0.27590283590E+03  0.80030074783E+02 0.  0.
          6    2    1    2  501    0 -0.21701577044E+03 -0.82370714315E+02 -0.11203258956E+03  0.31038401977E+03  0.17293397413E+03 0.  0.
         24    2    5    5    0    0 -0.16341212782E+03 -0.50791213475E+02 -0.14662861192E+03  0.23904265633E+03  0.79738139087E+02 0.  0.
          5    1    5    5  501    0 -0.53603642617E+02 -0.31579500840E+02  0.34596022356E+02  0.71341363444E+02  0.47000000000E+01 0. -1.
        -13    1    6    6    0    0 -0.10465452001E+03  0.35069195158E+01 -0.10717882434E+03  0.14984047327E+03  0.00000000000E+00 0.  1.
         14    1    6    6    0    0 -0.58757607812E+02 -0.54298132991E+02 -0.39449787580E+02  0.89202183058E+02  0.00000000000E+00 0. -1.
         -5    1    3    3    0  503  0.10177991387E+03 -0.31093382848E+02 -0.16939352164E+03  0.20010548343E+03  0.47000000000E+01 0.  1.
         11    1    4    4    0    0 -0.63209213370E+01 -0.68390458571E+01 -0.88163277269E+01  0.12823970889E+02  0.00000000000E+00 0. -1.
        -12    1    4    4    0    0  0.12155677790E+03  0.12030314302E+03 -0.19990395879E+03  0.26307886501E+03  0.00000000000E+00 0.  1.
</event>
<event>
12    1  0.8053217E-002  0.2311052E+03  0.7818608E-02  0.1126013E+00
         21   -1    0    0  503  502  0.00000000000E+00  0.00000000000E+00  0.50127282895E+03  0.50127282895E+03  0.00000000000E+00 0.  1.
         21   -1    0    0  501  503 -0.00000000000E+00 -0.00000000000E+00 -0.25005010824E+03  0.25005010824E+03  0.00000000000E+00 0.  1.
          6    2    1    2  501    0  0.59864386753E+02  0.14092474493E+03 -0.15945769792E+03  0.28008199476E+03  0.17197568964E+03 0.  0.
         24    2    3    3    0    0  0.33611845024E+02  0.61363763243E+02 -0.64446730285E+01  0.10557061536E+03  0.78793105351E+02 0.  0.
         -6    2    1    2    0  502 -0.59864386753E+02 -0.14092474493E+03  0.41068041863E+03  0.47124094244E+03  0.17310716636E+03 0.  0.
        -24    2    5    5    0    0 -0.66476532898E+02 -0.15670019767E+02  0.17168157190E+03  0.20128723271E+03  0.79858055193E+02 0.  0.
          5    1    3    3  501    0  0.26252541729E+02  0.79560981683E+02 -0.15301302489E+03  0.17451137940E+03  0.47000000000E+01 0. -1.
        -11    1    4    4    0    0  0.45553485415E+02  0.72712358497E+02 -0.14845748340E+02  0.87078145108E+02  0.00000000000E+00 0.  1.
         12    1    4    4    0    0 -0.11941640390E+02 -0.11348595254E+02  0.84010753116E+01  0.18492470247E+02  0.00000000000E+00 0. -1.
         -5    1    5    5    0  502  0.66121461444E+01 -0.12525472516E+03  0.23899884674E+03  0.26995370972E+03  0.47000000000E+01 0.  1.
         13    1    6    6    0    0 -0.73837469833E+01  0.29398629344E+02  0.41584993520E+02  0.51459798027E+02  0.00000000000E+00 0. -1.
        -14    1    6    6    0    0 -0.59092785914E+02 -0.45068649111E+02  0.13009657838E+03  0.14982743469E+03  0.00000000000E+00 0.  1.
</event>
<event>
12    1  0.8053217E-002  0.2221455E+03  0.7818608E-02  0.1132693E+00
         21   -1    0    0  503  502  0.00000000000E+00  0.00000000000E+00  0.25706753250E+03  0.25706753250E+03  0.00000000000E+00 0. -1.
         21   -1    0    0  501  503 -0.00000000000E+00 -0.00000000000E+00 -0.19842340505E+03  0.19842340505E+03  0.00000000000E+00 0. -1.
          6    2    1    2  501    0  0.82099344339E+02 -0.10980957040E+03 -0.17169846573E+02  0.22280801713E+03  0.17478605429E+03 0.  0.
         24    2    3    3    0    0  0.84834551211E+02 -0.89390929538E+02 -0.72280398859E+02  0.16378543480E+03  0.80084787767E+02 0.  0.
         -6    2    1    2    0  502 -0.82099344339E+02  0.10980957040E+03  0.75813974028E+02  0.23268292042E+03  0.17203237691E+03 0.  0.
        -24    2    5    5    0    0  0.22297343212E+02  0.68505557716E+02  0.39891734014E+02  0.11471179191E+03  0.79857759844E+02 0.  0.
          5    1    3    3  501    0 -0.27352068711E+01 -0.20418640862E+02  0.55110552286E+02  0.59022582327E+02  0.47000000000E+01 0. -1.
        -11    1    4    4    0    0  0.64775840423E+02 -0.11145792290E+02 -0.38964439748E+02  0.76409199402E+02  0.00000000000E+00 0.  1.
         12    1    4    4    0    0  0.20058710787E+02 -0.78245137249E+02 -0.33315959110E+02  0.87376235402E+02  0.00000000000E+00 0. -1.
         -5    1    5    5    0  502 -0.10439668755E+03  0.41304012685E+02  0.35922240014E+02  0.11797112852E+03  0.47000000000E+01 0.  1.
         11    1    6    6    0    0  0.13218626977E+02  0.70429988132E+02  0.59419971841E+02  0.93090538622E+02  0.00000000000E+00 0. -1.
        -12    1    6    6    0    0  0.90787162349E+01 -0.19244304164E+01 -0.19528237827E+02  0.21621253283E+02  0.00000000000E+00 0.  1.
</event>
<event>
12    1  0.8053217E-002  0.1878615E+03  0.7818608E-02  0.1160653E+00
         21   -1    0    0  501  502  0.00000000000E+00  0.00000000000E+00  0.11159430284E+03  0.11159430284E+03  0.00000000000E+00 0.  1.
         21   -1    0    0  502  503 -0.00000000000E+00 -0.00000000000E+00 -0.50601161577E+03  0.50601161577E+03  0.00000000000E+00 0. -1.
         -6    2    1    2    0  503  0.67428566610E+02  0.26272309047E+02 -0.38757045709E+03  0.43070035066E+03  0.17336403039E+03 0.  0.
        -24    2    3    3    0    0  0.49537672591E+02  0.79663028300E+02 -0.31868583160E+03  0.34160582435E+03  0.79584551757E+02 0.  0.
          6    2    1    2  501    0 -0.67428566610E+02 -0.26272309047E+02 -0.68468558369E+01  0.18690556794E+03  0.17219165507E+03 0.  0.
         24    2    5    5    0    0 -0.17765098026E+02 -0.21444228029E+02  0.58490522885E+02  0.10455975119E+03  0.82074031693E+02 0.  0.
          5    1    5    5  501    0 -0.49663468584E+02 -0.48280810179E+01 -0.65337378722E+02  0.82345816751E+02  0.47000000000E+01 0. -1.
        -11    1    6    6    0    0  0.32741905419E+02 -0.13847509662E+02  0.25659135925E+02  0.43842640782E+02  0.00000000000E+00 0.  1.
         12    1    6    6    0    0 -0.50507003445E+02 -0.75967183672E+01  0.32831386960E+02  0.60717110411E+02  0.00000000000E+00 0. -1.
         -5    1    3    3    0  503  0.17890894019E+02 -0.53390719253E+02 -0.68884625489E+02  0.89094526319E+02  0.47000000000E+01 0.  1.
         13    1    4    4    0    0 -0.15757758437E+02  0.37619753595E+02 -0.69342390708E+02  0.80448243987E+02  0.00000000000E+00 0. -1.
        -14    1    4    4    0    0  0.65295431029E+02  0.42043274705E+02 -0.24934344090E+03  0.26115758036E+03  0.00000000000E+00 0.  1.
</event>
<event>
12    1  0.8053217E-002  0.1788869E+03  0.7818608E-02  0.1169047E+00
         21   -1    0    0  501  502  0.00000000000E+00  0.00000000000E+00  0.38219524792E+02  0.38219524792E+02  0.00000000000E+00 0. -1.
         21   -1    0    0  502  503 -0.00000000000E+00 -0.00000000000E+00 -0.83601299063E+03  0.83601299063E+03  0.00000000000E+00 0. -1.
         -6    2    1    2    0  503  0.24501903157E+02  0.44381783691E+02 -0.41861790692E+03  0.45497765222E+03  0.17086142350E+03 0.  0.
        -24    2    3    3    0    0 -0.34887202981E+01  0.92362973533E+02 -0.30068827091E+03  0.32453548637E+03  0.79791952001E+02 0.  0.
          6    2    1    2  501    0 -0.24501903157E+02 -0.44381783691E+02 -0.37917555891E+03  0.41925486320E+03  0.17155305261E+03 0.  0.
         24    2    5    5    0    0  0.41063229903E+02 -0.71812514239E+01 -0.12540786812E+03  0.15448553499E+03  0.80005549252E+02 0.  0.
          5    1    5    5  501    0 -0.65565133060E+02 -0.37200532267E+02 -0.25376769079E+03  0.26476932822E+03  0.47000000000E+01 0. -1.
        -13    1    6    6    0    0  0.13701103636E+01  0.31884436857E+02 -0.28867861414E+02  0.43033102825E+02  0.00000000000E+00 0.  1.
         14    1    6    6    0    0  0.39693119539E+02 -0.39065688281E+02 -0.96540006706E+02  0.11145243216E+03  0.00000000000E+00 0. -1.
         -5    1    3    3    0  503  0.27990623455E+02 -0.47981189842E+02 -0.11792963602E+03  0.13044216585E+03  0.47000000000E+01 0.  1.
         11    1    4    4    0    0  0.20292157029E+02  0.51805390747E+02 -0.24692053465E+03  0.25311128102E+03  0.00000000000E+00 0. -1.
        -12    1    4    4    0    0 -0.23780877327E+02  0.40557582786E+02 -0.53767736254E+02  0.71424205349E+02  0.00000000000E+00 0.  1.
</event>
<event>
12    1  0.8053217E-002  0.3173656E+03  0.7818608E-02  0.1077026E+00
         21   -1    0    0  503  502  0.00000000000E+00  0.00000000000E+00  0.29484041348E+03  0.29484041348E+03  0.00000000000E+00 0. -1.
         21   -1    0    0  501  503 -0.00000000000E+00 -0.00000000000E+00 -0.63969473500E+03  0.63969473500E+03  0.00000000000E+00 0.  1.
          6    2    1    2  501    0  0.33578169005E+01  0.26697254641E+03 -0.49197688167E+03  0.58472664013E+03  0.16905140081E+03 0.  0.
         24    2    3    3    0    0  0.54174895034E+02  0.91289363646E+02 -0.21420487558E+03  0.25212126811E+03  0.80079572562E+02 0.  0.
         -6    2    1    2    0  502 -0.33578169005E+01 -0.26697254641E+03  0.14712256014E+03  0.34980850835E+03  0.17156727351E+03 0.  0.
        -24    2    5    5    0    0  0.54777789793E+02 -0.18655550690E+03  0.62162318593E+02  0.21909132641E+03  0.79581983178E+02 0.  0.
          5    1    3    3  501    0 -0.50817078134E+02  0.17568318276E+03 -0.27777200608E+03  0.33260537202E+03  0.47000000000E+01 0. -1.
        -11    1    4    4    0    0  0.51126821709E+02  0.99052525239E+02 -0.21646540410E+03  0.24348023703E+03  0.00000000000E+00 0.  1.
         12    1    4    4    0    0  0.30480733255E+01 -0.77631615929E+01  0.22605285126E+01  0.86410310769E+01  0.00000000000E+00 0. -1.
         -5    1    5    5    0  502 -0.58135606694E+02 -0.80417039509E+02  0.84960241550E+02  0.13071718194E+03  0.47000000000E+01 0.  1.
         13    1    6    6    0    0  0.30347017839E+02 -0.89589751706E+02  0.71625358294E+02  0.11864845997E+03  0.00000000000E+00 0. -1.
        -14    1    6    6    0    0  0.24430771954E+02 -0.96965755195E+02 -0.94630397006E+01  0.10044286644E+03  0.00000000000E+00 0.  1.
</event>
<event>
12    1  0.8053217E-002  0.2643433E+03  0.7818608E-02  0.1104670E+00
         21   -1    0    0  501  502  0.00000000000E+00  0.00000000000E+00  0.23946645088E+03  0.23946645088E+03  0.00000000000E+00 0. -1.
         21   -1    0    0  502  503 -0.00000000000E+00 -0.00000000000E+00 -0.29102743712E+03  0.29102743712E+03  0.00000000000E+00 0.  1.
         -6    2    1    2    0  503  0.92109529507E+02 -0.17908791465E+03 -0.28576945128E+02  0.26515324404E+03  0.17009689719E+03 0.  0.
        -24    2    3    3    0    0  0.49892262224E+02 -0.80529046126E+02 -0.78497685443E+02  0.14678805265E+03  0.80066726421E+02 0.  0.
          6    2    1    2  501    0 -0.92109529507E+02  0.17908791465E+03 -0.22984041121E+02  0.26534064396E+03  0.17123301256E+03 0.  0.
         24    2    5    5    0    0  0.21733738083E+02  0.96472158551E+02 -0.58287756549E+01  0.12355896015E+03  0.73848556252E+02 0.  0.
          5    1    5    5  501    0 -0.11384326759E+03  0.82615756095E+02 -0.17155265466E+02  0.14178168381E+03  0.47000000000E+01 0. -1.
        -11    1    6    6    0    0 -0.22167005362E+02  0.66186688705E+02  0.87499419476E+00  0.69805583611E+02  0.00000000000E+00 0.  1.
         12    1    6    6    0    0  0.43900743445E+02  0.30285469846E+02 -0.67037698497E+01  0.53753376536E+02  0.00000000000E+00 0. -1.
         -5    1    3    3    0  503  0.42217267283E+02 -0.98558868520E+02  0.49920740315E+02  0.11836519140E+03  0.47000000000E+01 0.  1.
         11    1    4    4    0    0 -0.36793528880E+01 -0.59763794332E+02 -0.16176905878E+02  0.62023713485E+02  0.00000000000E+00 0. -1.
        -12    1    4    4    0    0  0.53571615112E+02 -0.20765251794E+02 -0.62320779565E+02  0.84764339161E+02  0.00000000000E+00 0.  1.
</event>
<event>
12    1  0.8053217E-002  0.1819359E+03  0.7818608E-02  0.1165989E+00
         21   -1    0    0  503  502  0.00000000000E+00  0.00000000000E+00  0.80082243322E+03  0.80082243322E+03  0.00000000000E+00 0. -1.
         21   -1    0    0  501  503 -0.00000000000E+00 -0.00000000000E+00 -0.46763324896E+02  0.46763324896E+02  0.00000000000E+00 0. -1.
          6    2    1    2  501    0  0.42210611106E+02  0.46217855154E+02  0.23184870356E+03  0.29458995119E+03  0.17062119498E+03 0.  0.
         24    2    3    3    0    0 -0.32211772586E+02 -0.10274296582E+02  0.11900222658E+03  0.14800730635E+03  0.81249451311E+02 0.  0.
         -6    2    1    2    0  502 -0.42210611106E+02 -0.46217855154E+02  0.52221040477E+03  0.55299580693E+03  0.17082982704E+03 0.  0.
        -24    2    5    5    0    0 -0.91483738861E+02 -0.45333726400E+02  0.42180335479E+03  0.44104810267E+03  0.78618938790E+02 0.  0.
          5    1    3    3  501    0  0.74422383692E+02  0.56492151736E+02  0.11284647698E+03  0.14658264484E+03  0.47000000000E+01 0. -1.
        -11    1    4    4    0    0  0.15042548832E+02 -0.31970681095E+02  0.39346148875E+02  0.52882153476E+02  0.00000000000E+00 0.  1.
         12    1    4    4    0    0 -0.47254321418E+02  0.21696384513E+02  0.79656077705E+02  0.95125152872E+02  0.00000000000E+00 0. -1.
         -5    1    5    5    0  502  0.49273127754E+02 -0.88412875409E+00  0.10040704998E+03  0.11194770425E+03  0.47000000000E+01 0.  1.
         13    1    6    6    0    0 -0.31800115373E+02 -0.32384980584E+02  0.66365140382E+02  0.80401282099E+02  0.00000000000E+00 0. -1.
        -14    1    6    6    0    0 -0.59683623488E+02 -0.12948745815E+02  0.35543821441E+03  0.36064682057E+03  0.00000000000E+00 0.  1.
</event>
<event>
12    1  0.8053217E-002  0.1938212E+03  0.7818608E-02  0.1155376E+00
         21   -1    0    0  503  502  0.00000000000E+00  0.00000000000E+00  0.10169829879E+03  0.10169829879E+03  0.00000000000E+00 0. -1.
         21   -1    0    0  501  503 -0.00000000000E+00 -0.00000000000E+00 -0.39434366093E+03  0.39434366093E+03  0.00000000000E+00 0. -1.
          6    2    1    2  501    0 -0.62919709046E+02  0.63062986557E+02 -0.21253492279E+03  0.28764169284E+03  0.17213605084E+03 0.  0.
         24    2    3    3    0    0 -0.80219859792E+02  0.12786272304E+02 -0.65992021055E+02  0.13168030256E+03  0.79912705967E+02 0.  0.
         -6    2    1    2    0  502  0.62919709046E+02 -0.63062986557E+02 -0.80110439354E+02  0.20840026688E+03  0.17052025886E+03 0.  0.
        -24    2    5    5    0    0  0.16499822214E+02 -0.65180002256E+02  0.12082067866E+02  0.10505213658E+03  0.79807883122E+02 0.  0.
          5    1    3    3  501    0  0.17300150746E+02  0.50276714254E+02 -0.14654290173E+03  0.15596139028E+03  0.47000000000E+01 0. -1.
        -11    1    4    4    0    0  0.20407837360E+01  0.25215463061E+02 -0.34375383698E+02  0.42680808100E+02  0.00000000000E+00 0.  1.
         12    1    4    4    0    0 -0.82260643528E+02 -0.12429190757E+02 -0.31616637357E+02  0.88999494461E+02  0.00000000000E+00 0. -1.
         -5    1    5    5    0  502  0.46419886832E+02  0.21170156989E+01 -0.92192507220E+02  0.10334813030E+03  0.47000000000E+01 0.  1.
         11    1    6    6    0    0  0.16907558920E+02 -0.67357349900E+02 -0.20488603535E+02  0.72406222170E+02  0.00000000000E+00 0. -1.
        -12    1    6    6    0    0 -0.40773670604E+00  0.21773476434E+01  0.32570671401E+02  0.32645914408E+02  0.00000000000E+00 0.  1.
</event>
<event>
12    1  0.8053217E-002  0.2004534E+03  0.7818608E-02  0.1149520E+00
         21   -1    0    0  503  502  0.00000000000E+00  0.00000000000E+00  0.10119713490E+03  0.10119713490E+03  0.00000000000E+00 0. -1.
         21   -1    0    0  501  503 -0.00000000000E+00 -0.00000000000E+00 -0.54343439628E+03  0.54343439628E+03  0.00000000000E+00 0.  1.
          6    2    1    2  501    0  0.17732930427E+02 -0.10101795704E+03 -0.38957621184E+03  0.43812235576E+03  0.17222801550E+03 0.  0.
         24    2    3    3    0    0 -0.52490262833E+02 -0.30595807321E+02 -0.19060632976E+03  0.21563262562E+03  0.80469405184E+02 0.  0.
         -6    2    1    2    0  502 -0.17732930427E+02  0.10101795704E+03 -0.52661049539E+02  0.20650917542E+03  0.17132941641E+03 0.  0.
        -24    2    5    5    0    0 -0.40302095351E+02  0.12206515337E+03 -0.71208854774E+01  0.15129732686E+03  0.79473351181E+02 0.  0.
          5    1    3    3  501    0  0.70223193260E+02 -0.70422149721E+02 -0.19896988208E+03  0.22248973014E+03  0.47000000000E+01 0. -1.
        -13    1    4    4    0    0 -0.32777678245E+02  0.72698408398E+01 -0.15902641076E+03  0.16253192331E+03  0.00000000000E+00 0.  1.
         14    1    4    4    0    0 -0.19712584587E+02 -0.37865648161E+02 -0.31579919003E+02  0.53100702311E+02  0.00000000000E+00 0. -1.
         -5    1    5    5    0  502  0.22569164924E+02 -0.21047196327E+02 -0.45540164062E+02  0.55211848560E+02  0.47000000000E+01 0.  1.
         13    1    6    6    0    0  0.20300123440E+02  0.64208152786E+02 -0.36518534748E+01  0.67439735539E+02  0.00000000000E+00 0. -1.
        -14    1    6    6    0    0 -0.60602218791E+02  0.57857000583E+02 -0.34690320026E+01  0.83857591319E+02  0.00000000000E+00 0.  1.
</event>
<event>
12    1  0.8053217E-002  0.1904878E+03  0.7818608E-02  0.1158747E+00
         21   -1    0    0  503  502  0.00000000000E+00  0.00000000000E+00  0.38511142960E+03  0.38511142960E+03  0.00000000000E+00 0. -1.
         21   -1    0    0  501  503 -0.00000000000E+00 -0.00000000000E+00 -0.20813872082E+03  0.20813872082E+03  0.00000000000E+00 0. -1.
          6    2    1    2  501    0 -0.36210692060E+02  0.68048064205E+02 -0.13279973035E+03  0.22959568703E+03  0.17069463337E+03 0.  0.
         24    2    3    3    0    0  0.16489590140E+02  0.36316728658E+02 -0.67975595246E+01  0.89300161612E+02  0.79608420943E+02 0.  0.
         -6    2    1    2    0  502  0.36210692060E+02 -0.68048064205E+02  0.30977243913E+03  0.36365446339E+03  0.17419486627E+03 0.  0.
        -24    2    5    5    0    0 -0.14901993061E+02 -0.25941827073E+02  0.27771604889E+03  0.28993103467E+03  0.77709415576E+02 0.  0.
          5    1    3    3  501    0 -0.52700282200E+02  0.31731335547E+02 -0.12600217082E+03  0.14029552542E+03  0.47000000000E+01 0. -1.
        -13    1    4    4    0    0 -0.29012890733E+02  0.31948687303E+02 -0.60831490623E+01  0.43582922706E+02  0.00000000000E+00 0.  1.
         14    1    4    4    0    0  0.45502480873E+02  0.43680413547E+01 -0.71441046230E+00  0.45717238906E+02  0.00000000000E+00 0. -1.
         -5    1    5    5    0  502  0.51112685120E+02 -0.42106237131E+02  0.32056390245E+02  0.73723428712E+02  0.47000000000E+01 0.  1.
         13    1    6    6    0    0 -0.68068620967E-01 -0.52661252970E+02  0.17098685158E+03  0.17891259210E+03  0.00000000000E+00 0. -1.
        -14    1    6    6    0    0 -0.14833924440E+02  0.26719425897E+02  0.10672919730E+03  0.11101844257E+03  0.00000000000E+00 0.  1.
</event>
<event>
12    1  0.8053217E-002  0.1907582E+03  0.7818608E-02  0.1157934E+00
         21   -1    0    0  503  502  0.00000000000E+00  0.00000000000E+00  0.65419068383E+03  0.65419068383E+03  0.00000000000E+00 0.  1.
         21   -1    0    0  501  503 -0.00000000000E+00 -0.00000000000E+00 -0.58417783918E+02  0.58417783918E+02  0.00000000000E+00 0.  1.
          6    2    1    2  501    0  0.76581636635E+02  0.29437604486E+02  0.21670221634E+03  0.28824629119E+03  0.17144898422E+03 0.  0.
         24    2    3    3    0    0 -0.23283099140E+02  0.69642358690E+01  0.12965226328E+03  0.15379257397E+03  0.79068597723E+02 0.  0.
         -6    2    1    2    0  502 -0.76581636635E+02 -0.29437604486E+02  0.37907068357E+03  0.42436217655E+03  0.17221310670E+03 0.  0.
        -24    2    5    5    0    0 -0.26613707986E+02  0.20715728633E+02  0.32207504888E+03  0.33335259964E+03  0.79083422457E+02 0.  0.
          5    1    3    3  501    0  0.99864735775E+02  0.22473368617E+02  0.87049953054E+02  0.13445371722E+03  0.47000000000E+01 0. -1.
        -13    1    4    4    0    0  0.15911722575E+02  0.19367794029E+02  0.95065010798E+01  0.26807982461E+02  0.00000000000E+00 0.  1.
         14    1    4    4    0    0 -0.39194821715E+02 -0.12403558160E+02  0.12014576221E+03  0.12698459151E+03  0.00000000000E+00 0. -1.
         -5    1    5    5    0  502 -0.49967928649E+02 -0.50153333119E+02  0.56995634684E+02  0.91009576911E+02  0.47000000000E+01 0.  1.
         11    1    6    6    0    0 -0.16297116746E+02  0.16294591179E+02  0.18453263394E+02  0.29523425374E+02  0.00000000000E+00 0. -1.
        -12    1    6    6    0    0 -0.10316591241E+02  0.44211374541E+01  0.30362178549E+03  0.30382917427E+03  0.00000000000E+00 0.  1.
</event>
<event>
12    1  0.8053217E-002  0.1731574E+03  0.7818608E-02  0.1174689E+00
         21   -1    0    0  501  502  0.00000000000E+00  0.00000000000E+00  0.77071165491E+02  0.77071165491E+02  0.00000000000E+00 0. -1.
         21   -1    0    0  502  503 -0.00000000000E+00 -0.00000000000E+00 -0.80949059140E+03  0.80949059140E+03  0.00000000000E+00 0. -1.
         -6    2    1    2    0  503 -0.21951809927E+02  0.82128615475E+00 -0.68580887390E+03  0.70724070697E+03  0.17138567503E+03 0.  0.
        -24    2    3    3    0    0 -0.74991525664E+01  0.44476682055E+02 -0.62396926004E+03  0.63003383721E+03  0.74636358549E+02 0.  0.
          6    2    1    2  501    0  0.21951809927E+02 -0.82128615475E+00 -0.46610552000E+02  0.17932104991E+03  0.17175837364E+03 0.  0.
         24    2    5    5    0    0 -0.30165295698E+02  0.48312034042E+02 -0.11582218134E+02  0.99450216527E+02  0.80698203775E+02 0.  0.
          5    1    5    5  501    0  0.52117105625E+02 -0.49133320196E+02 -0.35028333866E+02  0.79870833386E+02  0.47000000000E+01 0. -1.
        -13    1    6    6    0    0 -0.38330007880E+01 -0.22302849812E+02 -0.79932407786E+01  0.24000018811E+02  0.00000000000E+00 0.  1.
         14    1    6    6    0    0 -0.26332294910E+02  0.70614883854E+02 -0.35889773556E+01  0.75450197716E+02  0.00000000000E+00 0. -1.
         -5    1    3    3    0  503 -0.14452657361E+02 -0.43655395900E+02 -0.61839613862E+02  0.77206869763E+02  0.47000000000E+01 0.  1.
         13    1    4    4    0    0 -0.83738419613E+01  0.64798975781E+02 -0.52042991217E+03  0.52451532101E+03  0.00000000000E+00 0. -1.
        -14    1    4    4    0    0  0.87468939486E+00 -0.20322293725E+02 -0.10353934787E+03  0.10551851620E+03  0.00000000000E+00 0.  1.
</event>
<event>
12    1  0.8053217E-002  0.2953895E+03  0.7818608E-02  0.1087596E+00
         21   -1    0    0  503  502  0.00000000000E+00  0.00000000000E+00  0.72794856985E+03  0.72794856985E+03  0.00000000000E+00 0.  1.
         21   -1    0    0  501  503 -0.00000000000E+00 -0.00000000000E+00 -0.16465267591E+03  0.16465267591E+03  0.00000000000E+00 0. -1.
          6    2    1    2  501    0 -0.19385508147E+03 -0.14062186978E+03  0.48573568226E+02  0.29914185264E+03  0.17254609123E+03 0.  0.
         24    2    3    3    0    0 -0.75864937818E+02 -0.62263260653E+00  0.35308831709E+02  0.11551314126E+03  0.79628485771E+02 0.  0.
         -6    2    1    2    0  502  0.19385508147E+03  0.14062186978E+03  0.51472232572E+03  0.59345939312E+03  0.17291811882E+03 0.  0.
        -24    2    5    5    0    0  0.15631031888E+03  0.16933179648E+03  0.46047725019E+03  0.52135885700E+03  0.81667537899E+02 0.  0.
          5    1    3    3  501    0 -0.11799014365E+03 -0.13999923717E+03  0.13264736516E+02  0.18362871138E+03  0.47000000000E+01 0. -1.
        -13    1    4    4    0    0 -0.60128599566E+01 -0.32568846429E+02  0.12313710985E+02  0.35334285345E+02  0.00000000000E+00 0.  1.
         14    1    4    4    0    0 -0.69852077861E+02  0.31946213823E+02  0.22995120725E+02  0.80178855918E+02  0.00000000000E+00 0. -1.
         -5    1    5    5    0  502  0.37544762588E+02 -0.28709926701E+02  0.54245075526E+02  0.72100536113E+02  0.47000000000E+01 0.  1.
         11    1    6    6    0    0  0.15009795278E+03  0.15635236813E+03  0.45808545689E+03  0.50677188582E+03  0.00000000000E+00 0. -1.
        -12    1    6    6    0    0  0.62123661062E+01  0.12979428353E+02  0.23917932973E+01  0.14586971179E+02  0.00000000000E+00 0.  1.
</event>
<event>
12    1  0.8053217E-002  0.2468049E+03  0.7818608E-02  0.1115584E+00
         21   -1    0    0  501  502  0.00000000000E+00  0.00000000000E+00  0.38448151644E+03  0.38448151644E+03  0.00000000000E+00 0.  1.
         21   -1    0    0  502  503 -0.00000000000E+00 -0.00000000000E+00 -0.16108283797E+03  0.16108283797E+03  0.00000000000E+00 0. -1.
         -6    2    1    2    0  503 -0.40039371152E+02 -0.16983412098E+03  0.70467828946E+02  0.25521883704E+03  0.17240696034E+03 0.  0.
        -24    2    3    3    0    0 -0.58197061916E+02 -0.49916749352E+02  0.74439275142E+02  0.13377856309E+03  0.80479304031E+02 0.  0.
          6    2    1    2  501    0  0.40039371152E+02  0.16983412098E+03  0.15293084952E+03  0.29034551737E+03  0.17454482183E+03 0.  0.
         24    2    5    5    0    0  0.26929406844E+02  0.49436149738E+02  0.13352170686E+03  0.16760046670E+03  0.84218432551E+02 0.  0.
          5    1    5    5  501    0  0.13109964308E+02  0.12039797125E+03  0.19409142660E+02  0.12274505067E+03  0.47000000000E+01 0. -1.
        -13    1    6    6    0    0 -0.25058756830E+02  0.22215462282E+02  0.85326663617E+02  0.91663010982E+02  0.00000000000E+00 0.  1.
         14    1    6    6    0    0  0.51988163674E+02  0.27220687456E+02  0.48195043243E+02  0.75937455718E+02  0.00000000000E+00 0. -1.
         -5    1    3    3    0  503  0.18157690765E+02 -0.11991737163E+03 -0.39714461965E+01  0.12144027395E+03  0.47000000000E+01 0.  1.
         13    1    4    4    0    0 -0.66886515556E+02 -0.92324939134E+01  0.33357100185E+02  0.75310962282E+02  0.00000000000E+00 0. -1.
        -14    1    4    4    0    0  0.86894536391E+01 -0.40684255438E+02  0.41082174957E+02  0.58467600809E+02  0.00000000000E+00 0.  1.
</event>
<event>
12    1  0.8053217E-002  0.2784452E+03  0.7818608E-02  0.1096696E+00
         21   -1    0    0  503  502  0.00000000000E+00  0.00000000000E+00  0.19364380226E+03  0.19364380226E+03  0.00000000000E+00 0. -1.
         21   -1    0    0  501  503 -0.00000000000E+00 -0.00000000000E+00 -0.62548255259E+03  0.62548255259E+03  0.00000000000E+00 0.  1.
          6    2    1    2  501    0 -0.18636847598E+03 -0.11238079283E+03 -0.46277240501E+03  0.54008333026E+03  0.17369241017E+03 0.  0.
         24    2    3    3    0    0 -0.70741482220E+02 -0.38491866107E+02 -0.33127647738E+03  0.34997166791E+03  0.79057465247E+02 0.  0.
         -6    2    1    2    0  502  0.18636847598E+03  0.11238079283E+03  0.30933654673E+02  0.27904302459E+03  0.17188794937E+03 0.  0.
        -24    2    5    5    0    0  0.79144278180E+02  0.23046142304E+01 -0.24126176299E+02  0.11574125277E+03  0.80900168078E+02 0.  0.
          5    1    3    3  501    0 -0.11562699376E+03 -0.73888926726E+02 -0.13149592763E+03  0.19011166235E+03  0.47000000000E+01 0. -1.
        -13    1    4    4    0    0  0.16620413175E+02 -0.14982300804E+02 -0.67342742335E+02  0.70963035565E+02  0.00000000000E+00 0.  1.
         14    1    4    4    0    0 -0.87361895396E+02 -0.23509565304E+02 -0.26393373505E+03  0.27900863234E+03  0.00000000000E+00 0. -1.
         -5    1    5    5    0  502  0.10722419781E+03  0.11007617860E+03  0.55059830972E+02  0.16330177181E+03  0.47000000000E+01 0.  1.
         11    1    6    6    0    0 -0.14088874357E+02 -0.76868531805E+01  0.61802121947E+01  0.17198230003E+02  0.00000000000E+00 0. -1.
        -12    1    6    6    0    0  0.93233152536E+02  0.99914674109E+01 -0.30306388493E+02  0.98543022769E+02  0.00000000000E+00 0.  1.
</event>
<event>
12    1  0.8053217E-002  0.2174241E+03  0.7818608E-02  0.1135887E+00
         21   -1    0    0  503  502  0.00000000000E+00  0.00000000000E+00  0.16157042454E+04  0.16157042454E+04  0.00000000000E+00 0. -1.
         21   -1    0    0  501  503 -0.00000000000E+00 -0.00000000000E+00 -0.35110066016E+02  0.35110066016E+02  0.00000000000E+00 0. -1.
          6    2    1    2  501    0 -0.46138724251E+02 -0.12482524528E+03  0.11292077096E+04  0.11499492597E+04  0.17193930569E+03 0.  0.
         24    2    3    3    0    0 -0.26686581796E+02 -0.14353029936E+03  0.68392061447E+03  0.70382040842E+03  0.79389167623E+02 0.  0.
         -6    2    1    2    0  502  0.46138724251E+02  0.12482524528E+03  0.45138646985E+03  0.50086505174E+03  0.17148157671E+03 0.  0.
        -24    2    5    5    0    0 -0.13978196972E+02  0.60307857760E+02  0.35756294092E+03  0.37201831297E+03  0.81938640259E+02 0.  0.
          5    1    3    3  501    0 -0.19452142454E+02  0.18705054081E+02  0.44528709509E+03  0.44612885128E+03  0.47000000000E+01 0. -1.
        -13    1    4    4    0    0 -0.35421976059E+02 -0.22016250622E+02  0.12491795355E+03  0.13169634315E+03  0.00000000000E+00 0.  1.
         14    1    4    4    0    0  0.87353942622E+01 -0.12151404874E+03  0.55900266092E+03  0.57212406527E+03  0.00000000000E+00 0. -1.
         -5    1    5    5    0  502  0.60116921223E+02  0.64517387518E+02  0.93823528932E+02  0.12884673877E+03  0.47000000000E+01 0.  1.
         11    1    6    6    0    0 -0.40749010217E+02  0.53850845698E+02  0.17844418658E+03  0.19079497672E+03  0.00000000000E+00 0. -1.
        -12    1    6    6    0    0  0.26770813245E+02  0.64570120617E+01  0.17911875434E+03  0.18122333625E+03  0.00000000000E+00 0.  1.
</event>
<event>
12    1  0.8053217E-002  0.1808514E+03  0.7818608E-02  0.1167110E+00
         21   -1    0    0  503  502  0.00000000000E+00  0.00000000000E+00  0.35486367035E+03  0.35486367035E+03  0.00000000000E+00 0. -1.
         21   -1    0    0  501  503 -0.00000000000E+00 -0.00000000000E+00 -0.94353493591E+02  0.94353493591E+02  0.00000000000E+00 0. -1.
          6    2    1    2  501    0 -0.50154522530E+02  0.28250286485E+02  0.93823523714E+02  0.20326660496E+03  0.17088272081E+03 0.  0.
         24    2    3    3    0    0  0.14555129663E+02  0.56222590339E+02  0.91825044569E+02  0.13258511665E+03  0.75987781152E+02 0.  0.
         -6    2    1    2    0  502  0.50154522530E+02 -0.28250286485E+02  0.16668665305E+03  0.24595055899E+03  0.17144585835E+03 0.  0.
        -24    2    5    5    0    0  0.82327018224E+02 -0.98073867556E+01  0.17332262102E+03  0.20798562648E+03  0.79645257865E+02 0.  0.
          5    1    3    3  501    0 -0.64709652193E+02 -0.27972303854E+02  0.19984791456E+01  0.70681488303E+02  0.47000000000E+01 0. -1.
        -13    1    4    4    0    0 -0.68593786686E+01 -0.15711347207E+02  0.33140614286E+02  0.37312167212E+02  0.00000000000E+00 0.  1.
         14    1    4    4    0    0  0.21414508332E+02  0.71933937546E+02  0.58684430282E+02  0.95272949443E+02  0.00000000000E+00 0. -1.
         -5    1    5    5    0  502 -0.32172495693E+02 -0.18442899730E+02 -0.66359679695E+01  0.37964932510E+02  0.47000000000E+01 0.  1.
         13    1    6    6    0    0  0.66737661486E+02 -0.16363292759E+02  0.53794294652E+02  0.87266826158E+02  0.00000000000E+00 0. -1.
        -14    1    6    6    0    0  0.15589356738E+02  0.65559060037E+01  0.11952832636E+03  0.12071880032E+03  0.00000000000E+00 0.  1.
</event>
<event>
12    1  0.8053217E-002  0.1735496E+03  0.7818608E-02  0.1174547E+00
         21   -1    0    0  503  502  0.00000000000E+00  0.00000000000E+00  0.61944303172E+03  0.61944303172E+03  0.00000000000E+00 0.  1.
         21   -1    0    0  501  503 -0.00000000000E+00 -0.00000000000E+00 -0.56726431447E+02  0.56726431447E+02  0.00000000000E+00 0.  1.
          6    2    1    2  501    0  0.80514992982E+01  0.52105293936E+00  0.41118607240E+03  0.44577643196E+03  0.17198122867E+03 0.  0.
         24    2    3    3    0    0 -0.45888204855E+02  0.46694152292E+02  0.23515329449E+03  0.25590522381E+03  0.76839706249E+02 0.  0.
         -6    2    1    2    0  502 -0.80514992982E+01 -0.52105293936E+00  0.15153052788E+03  0.23039303121E+03  0.17336190416E+03 0.  0.
        -24    2    5    5    0    0  0.61288059577E+02 -0.90563544722E+01  0.10722874574E+03  0.14753433404E+03  0.80188103876E+02 0.  0.
          5    1    3    3  501    0  0.53939704153E+02 -0.46173099353E+02  0.17603277791E+03  0.18987120815E+03  0.47000000000E+01 0. -1.
        -13    1    4    4    0    0 -0.21651553844E+01  0.30036702165E+02  0.21033026716E+02  0.36732541262E+02  0.00000000000E+00 0.  1.
         14    1    4    4    0    0 -0.43723049470E+02  0.16657450128E+02  0.21412026778E+03  0.21917268254E+03  0.00000000000E+00 0. -1.
         -5    1    5    5    0  502 -0.69339558876E+02  0.85353015328E+01  0.44301782134E+02  0.82858697175E+02  0.47000000000E+01 0.  1.
         11    1    6    6    0    0  0.65927879038E+02  0.19614859915E+01  0.11549376563E+03  0.13300053595E+03  0.00000000000E+00 0. -1.
        -12    1    6    6    0    0 -0.46398194610E+01 -0.11017840464E+02 -0.82650198919E+01  0.14533798090E+02  0.00000000000E+00 0.  1.
</event>
<event>
12    1  0.8053217E-002  0.3217980E+03  0.7818608E-02  0.1074859E+00
         21   -1    0    0  501  502  0.00000000000E+00  0.00000000000E+00  0.20161702364E+04  0.20161702364E+04  0.00000000000E+00 0. -1.
         21   -1    0    0  502  503 -0.00000000000E+00 -0.00000000000E+00 -0.53173987974E+02  0.53173987974E+02  0.00000000000E+00 0.  1.
         -6    2    1    2    0  503 -0.26883325542E+03 -0.44425061316E+02  0.11754133095E+04  0.12186674681E+04  0.17119884426E+03 0.  0.
        -24    2    3    3    0    0 -0.12535681169E+03 -0.70394890914E+02  0.77871219405E+03  0.79599290418E+03  0.80884185349E+02 0.  0.
          6    2    1    2  501    0  0.26883325542E+03  0.44425061316E+02  0.78758293888E+03  0.85067675626E+03  0.17064334952E+03 0.  0.
         24    2    5    5    0    0  0.28040787706E+03  0.21372902967E+02  0.69836442658E+03  0.75768532221E+03  0.85374449776E+02 0.  0.
          5    1    5    5  501    0 -0.11574621638E+02  0.23052158349E+02  0.89218512303E+02  0.92991434058E+02  0.47000000000E+01 0. -1.
        -11    1    6    6    0    0  0.81540259884E+01 -0.82740065093E+01  0.58932254512E+01  0.13026028933E+02  0.00000000000E+00 0.  1.
         12    1    6    6    0    0  0.27225385107E+03  0.29646909476E+02  0.69247120113E+03  0.74465929327E+03  0.00000000000E+00 0. -1.
         -5    1    3    3    0  503 -0.14347644374E+03  0.25969829598E+02  0.39670111546E+03  0.42267456389E+03  0.47000000000E+01 0.  1.
         13    1    4    4    0    0 -0.81090864847E+02 -0.33423902488E+01  0.31021062483E+03  0.32065172960E+03  0.00000000000E+00 0. -1.
        -14    1    4    4    0    0 -0.44265946839E+02 -0.67052500665E+02  0.46850156922E+03  0.47534117458E+03  0.00000000000E+00 0.  1.
</event>
<event>
12    1  0.8053217E-002  0.1915051E+03  0.7818608E-02  0.1159782E+00
         21   -1    0    0  501  502  0.00000000000E+00  0.00000000000E+00  0.39577250192E+03  0.39577250192E+03  0.00000000000E+00 0. -1.
         21   -1    0    0  502  503 -0.00000000000E+00 -0.00000000000E+00 -0.16822934605E+03  0.16822934605E+03  0.00000000000E+00 0. -1.
         -6    2    1    2    0  503  0.75811979087E+02 -0.39838364514E+02 -0.83791254756E+02  0.19848396957E+03  0.15824146215E+03 0.  0.
        -24    2    3    3    0    0  0.89803032234E+02 -0.68452712681E+02 -0.92590805891E+02  0.16510654323E+03  0.77050339443E+02 0.  0.
          6    2    1    2  501    0 -0.75811979087E+02  0.39838364514E+02  0.31133441062E+03  0.36551787840E+03  0.17128821540E+03 0.  0.
         24    2    5    5    0    0 -0.79118398580E+02  0.91606219770E+01  0.95761899730E+02  0.14769764576E+03  0.79376414214E+02 0.  0.
          5    1    5    5  501    0  0.33064194931E+01  0.30677742537E+02  0.21557251089E+03  0.21782023265E+03  0.47000000000E+01 0. -1.
        -13    1    6    6    0    0 -0.17645533492E+02  0.48055926695E+01 -0.13173290993E+02  0.22538725978E+02  0.00000000000E+00 0.  1.
         14    1    6    6    0    0 -0.61472865088E+02  0.43550293075E+01  0.10893519072E+03  0.12515891978E+03  0.00000000000E+00 0. -1.
         -5    1    3    3    0  503 -0.13991053148E+02  0.28614348167E+02  0.87995511350E+01  0.33377426344E+02  0.47000000000E+01 0.  1.
         13    1    4    4    0    0 -0.11164393928E+02 -0.18593661810E+02 -0.45316756683E+01  0.22156354295E+02  0.00000000000E+00 0. -1.
        -14    1    4    4    0    0  0.10096742616E+03 -0.49859050871E+02 -0.88059130223E+02  0.14295018893E+03  0.00000000000E+00 0.  1.
</event>
<event>
12    1  0.8053217E-002  0.1821841E+03  0.7818608E-02  0.1166008E+00
         21   -1    0    0  501  502  0.00000000000E+00  0.00000000000E+00  0.62335006878E+02  0.62335006878E+02  0.00000000000E+00 0.  1.
         21   -1    0    0  502  503 -0.00000000000E+00 -0.00000000000E+00 -0.68410268548E+03  0.68410268548E+03  0.00000000000E+00 0.  1.
         -6    2    1    2    0  503  0.41251386624E+02 -0.36661047756E+02 -0.48788694574E+03  0.52035118662E+03  0.17229618761E+03 0.  0.
        -24    2    3    3    0    0  0.16847534464E+02  0.28955144415E+02 -0.39285578195E+03  0.40222394688E+03  0.79537401450E+02 0.  0.
          6    2    1    2  501    0 -0.41251386624E+02  0.36661047756E+02 -0.13388073285E+03  0.22608650574E+03  0.17362415767E+03 0.  0.
         24    2    5    5    0    0  0.73408925615E+01  0.43852077174E+02 -0.98468907050E+01  0.92597163470E+02  0.80624934419E+02 0.  0.
          5    1    5    5  501    0 -0.48592279186E+02 -0.71910294188E+01 -0.12403384215E+03  0.13348934227E+03  0.47000000000E+01 0. -1.
        -13    1    6    6    0    0 -0.21736375942E+02  0.40588585205E+02 -0.31852009363E+02  0.55986192838E+02  0.00000000000E+00 0.  1.
         14    1    6    6    0    0  0.29077268504E+02  0.32634919694E+01  0.22005118658E+02  0.36610970632E+02  0.00000000000E+00 0. -1.
         -5    1    3    3    0  503  0.24403852160E+02 -0.65616192170E+02 -0.95031163796E+02  0.11812723974E+03  0.47000000000E+01 0.  1.
         11    1    4    4    0    0  0.27419482056E+02  0.20882316336E+02 -0.38547292147E+03  0.38701068760E+03  0.00000000000E+00 0. -1.
        -12    1    4    4    0    0 -0.10571947592E+02  0.80728280786E+01 -0.73828604786E+01  0.15213259280E+02  0.00000000000E+00 0.  1.
</event>
<event>
12    1  0.8053217E-002  0.1868279E+03  0.7818608E-02  0.1161772E+00
         21   -1    0    0  503  502  0.00000000000E+00  0.00000000000E+00  0.40415840792E+02  0.40415840792E+02  0.00000000000E+00 0. -1.
         21   -1    0    0  501  503 -0.00000000000E+00 -0.00000000000E+00 -0.12244790387E+04  0.12244790387E+04  0.00000000000E+00 0. -1.
          6    2    1    2  501    0 -0.54828344895E+02 -0.38871293761E+02 -0.93728313938E+03  0.95537092627E+03  0.17238560997E+03 0.  0.
         24    2    3    3    0    0 -0.51850284051E+02 -0.40523747333E+02 -0.26400073094E+03  0.28206349949E+03  0.74382832388E+02 0.  0.
         -6    2    1    2    0  502  0.54828344895E+02  0.38871293761E+02 -0.24678005858E+03  0.30952395327E+03  0.17432026690E+03 0.  0.
        -24    2    5    5    0    0  0.40800800614E+01  0.73476057898E+02 -0.20804303413E+03  0.23675360802E+03  0.85761230875E+02 0.  0.
          5    1    3    3  501    0 -0.29780608432E+01  0.16524535728E+01 -0.67328240844E+03  0.67330742678E+03  0.47000000000E+01 0. -1.
        -11    1    4    4    0    0 -0.22850380651E+02  0.20009497579E+02 -0.59081423802E+02  0.66431427259E+02  0.00000000000E+00 0.  1.
         12    1    4    4    0    0 -0.28999903400E+02 -0.60533244913E+02 -0.20491930714E+03  0.21563207223E+03  0.00000000000E+00 0. -1.
         -5    1    5    5    0  502  0.50748264833E+02 -0.34604764137E+02 -0.38737024446E+02  0.72770345248E+02  0.47000000000E+01 0.  1.
         13    1    6    6    0    0  0.50928637482E+01  0.48520041874E+02 -0.30660241997E+02  0.57621021892E+02  0.00000000000E+00 0. -1.
        -14    1    6    6    0    0 -0.10127836869E+01  0.24956016025E+02 -0.17738279214E+03  0.17913258613E+03  0.00000000000E+00 0.  1.
</event>
<event>
12    1  0.8053217E-002  0.1744745E+03  0.7818608E-02  0.1173395E+00
         21   -1    0    0  501  502  0.00000000000E+00  0.00000000000E+00  0.17763108065E+03  0.17763108065E+03  0.00000000000E+00 0.  1.
         21   -1    0    0  502  503 -0.00000000000E+00 -0.00000000000E+00 -0.17238942867E+03  0.17238942867E+03  0.00000000000E+00 0.  1.
         -6    2    1    2    0  503  0.20269610236E+02 -0.20852041608E+02  0.19157939745E+02  0.17499189967E+03  0.17149190522E+03 0.  0.
        -24    2    3    3    0    0 -0.46001977399E+02  0.16608380058E+02 -0.11234989166E+02  0.92888144292E+02  0.78166246908E+02 0.  0.
          6    2    1    2  501    0 -0.20269610236E+02  0.20852041608E+02 -0.13916287758E+02  0.17502860965E+03  0.17203396872E+03 0.  0.
         24    2    5    5    0    0 -0.39401251119E+02 -0.44001736626E+02 -0.34543439609E+02  0.10417946267E+03  0.78558893878E+02 0.  0.
          5    1    5    5  501    0  0.19131640884E+02  0.64853778234E+02  0.20627151850E+02  0.70849146979E+02  0.47000000000E+01 0. -1.
        -11    1    6    6    0    0  0.13897818371E+02 -0.23890841610E+02 -0.38136821687E+02  0.47099244545E+02  0.00000000000E+00 0.  1.
         12    1    6    6    0    0 -0.53299069491E+02 -0.20110895016E+02  0.35933820788E+01  0.57080218129E+02  0.00000000000E+00 0. -1.
         -5    1    3    3    0  503  0.66271587634E+02 -0.37460421666E+02  0.30392928912E+02  0.82103755376E+02  0.47000000000E+01 0.  1.
         13    1    4    4    0    0 -0.42008787660E+02 -0.23868711468E+02  0.60512286460E+01  0.48693644307E+02  0.00000000000E+00 0. -1.
        -14    1    4    4    0    0 -0.39931897393E+01  0.40477091526E+02 -0.17286217812E+02  0.44194499985E+02  0.00000000000E+00 0.  1.
</event>
<event>
12    1  0.8053217E-002  0.2129802E+03  0.7818608E-02  0.1139261E+00
         21   -1    0    0  501  502  0.00000000000E+00  0.00000000000E+00  0.12556616124E+04  0.12556616124E+04  0.00000000000E+00 0.  1.
         21   -1    0    0  502  503 -0.00000000000E+00 -0.00000000000E+00 -0.49979028271E+02  0.49979028271E+02  0.00000000000E+00 0. -1.
         -6    2    1    2    0  503  0.56656522665E+02  0.11121589537E+03  0.94708626263E+03  0.97073836257E+03  0.17257358647E+03 0.  0.
        -24    2    3    3    0    0  0.30203341414E+02  0.25786660969E+02  0.20917360950E+03  0.22741131574E+03  0.79906907708E+02 0.  0.
          6    2    1    2  501    0 -0.56656522665E+02 -0.11121589537E+03  0.25859632147E+03  0.33490227807E+03  0.17236165884E+03 0.  0.
         24    2    5    5    0    0  0.28947774835E+02 -0.20311380071E+02  0.10731145271E+03  0.13868574420E+03  0.80420531782E+02 0.  0.
          5    1    5    5  501    0 -0.85604297501E+02 -0.90904515300E+02  0.15128486876E+03  0.19621653388E+03  0.47000000000E+01 0. -1.
        -11    1    6    6    0    0  0.50076048665E+02 -0.34368718562E+02  0.62255540988E+02  0.86974547134E+02  0.00000000000E+00 0.  1.
         12    1    6    6    0    0 -0.21128273830E+02  0.14057338491E+02  0.45055911722E+02  0.51711197062E+02  0.00000000000E+00 0. -1.
         -5    1    3    3    0  503  0.26453181252E+02  0.85429234402E+02  0.73791265314E+03  0.74332704683E+03  0.47000000000E+01 0.  1.
         11    1    4    4    0    0  0.49017701924E+02  0.11280786568E+02  0.19096686180E+03  0.19747995735E+03  0.00000000000E+00 0. -1.
        -12    1    4    4    0    0 -0.18814360510E+02  0.14505874402E+02  0.18206747698E+02  0.29931358394E+02  0.00000000000E+00 0.  1.
</event>
<event>
12    1  0.8053217E-002  0.1745696E+03  0.7818608E-02  0.1173606E+00
         21   -1    0    0  501  502  0.00000000000E+00  0.00000000000E+00  0.22078174590E+03  0.22078174590E+03  0.00000000000E+00 0.  1.
         21   -1    0    0  502  503 -0.00000000000E+00 -0.00000000000E+00 -0.52283581004E+03  0.52283581004E+03  0.00000000000E+00 0.  1.
         -6    2    1    2    0  503 -0.19881724747E+02  0.44085860267E+01 -0.47076933113E+03  0.50209394090E+03  0.17337774870E+03 0.  0.
        -24    2    3    3    0    0  0.37037460410E+01 -0.54177072089E+02 -0.15975030152E+03  0.18469280582E+03  0.75115915829E+02 0.  0.
          6    2    1    2  501    0  0.19881724747E+02 -0.44085860267E+01  0.16871526699E+03  0.24152361505E+03  0.17162195868E+03 0.  0.
         24    2    5    5    0    0 -0.45483474369E+02 -0.10970911001E+02  0.41711904338E+02  0.98458533744E+02  0.75928206713E+02 0.  0.
          5    1    5    5  501    0  0.65365199115E+02  0.65623249743E+01  0.12700336265E+03  0.14306508131E+03  0.47000000000E+01 0. -1.
        -11    1    6    6    0    0  0.11224149985E+02  0.87792466456E+01  0.35301227747E+02  0.38068798182E+02  0.00000000000E+00 0.  1.
         12    1    6    6    0    0 -0.56707624354E+02 -0.19750157647E+02  0.64106765914E+01  0.60389735562E+02  0.00000000000E+00 0. -1.
         -5    1    3    3    0  503 -0.23585470788E+02  0.58585658116E+02 -0.31101902961E+03  0.31740113507E+03  0.47000000000E+01 0.  1.
         13    1    4    4    0    0 -0.23362874628E+02 -0.47074290149E+02 -0.54194395660E+02  0.75490696281E+02  0.00000000000E+00 0. -1.
        -14    1    4    4    0    0  0.27066620669E+02 -0.71027819400E+01 -0.10555590586E+03  0.10920210954E+03  0.00000000000E+00 0.  1.
</event>
<event>
12    1  0.8053217E-002  0.2029140E+03  0.7818608E-02  0.1147433E+00
         21   -1    0    0  501  502  0.00000000000E+00  0.00000000000E+00  0.16922499440E+03  0.16922499440E+03  0.00000000000E+00 0.  1.
         21   -1    0    0  502  503 -0.00000000000E+00 -0.00000000000E+00 -0.34071142705E+03  0.34071142705E+03  0.00000000000E+00 0.  1.
         -6    2    1    2    0  503  0.55386507465E+02 -0.91473468375E+02 -0.22268650540E+03  0.30126960672E+03  0.17245009601E+03 0.  0.
        -24    2    3    3    0    0  0.84353687088E+02 -0.10887936115E+03 -0.14403602990E+03  0.21553717472E+03  0.82095285910E+02 0.  0.
          6    2    1    2  501    0 -0.55386507465E+02  0.91473468375E+02  0.51200072755E+02  0.20866681474E+03  0.17171293341E+03 0.  0.
         24    2    5    5    0    0 -0.11184820136E+02  0.96214663408E+02 -0.15597797830E+02  0.12829073865E+03  0.82661119460E+02 0.  0.
          5    1    5    5  501    0 -0.44201687330E+02 -0.47411950332E+01  0.66797870585E+02  0.80376076092E+02  0.47000000000E+01 0. -1.
        -11    1    6    6    0    0  0.25761992997E+02  0.68671983369E+02  0.12375307909E+02  0.74381918695E+02  0.00000000000E+00 0.  1.
         12    1    6    6    0    0 -0.36946813132E+02  0.27542680040E+02 -0.27973105739E+02  0.53908819956E+02  0.00000000000E+00 0. -1.
         -5    1    3    3    0  503 -0.28967179622E+02  0.17405892773E+02 -0.78650475501E+02  0.85732431991E+02  0.47000000000E+01 0.  1.
         13    1    4    4    0    0  0.39345785238E+02 -0.16294952031E+02 -0.55005241516E+01  0.42940331201E+02  0.00000000000E+00 0. -1.
        -14    1    4    4    0    0  0.45007901849E+02 -0.92584409117E+02 -0.13853550575E+03  0.17259684352E+03  0.00000000000E+00 0.  1.
</event>
<event>
12    1  0.8053217E-002  0.2155712E+03  0.7818608E-02  0.1137237E+00
         21   -1    0    0  503  502  0.00000000000E+00  0.00000000000E+00  0.53911995755E+02  0.53911995755E+02  0.00000000000E+00 0. -1.
         21   -1    0    0  501  503 -0.00000000000E+00 -0.00000000000E+00 -0.97154276562E+03  0.97154276562E+03  0.00000000000E+00 0. -1.
          6    2    1    2  501    0 -0.69222413805E+02 -0.11030838450E+03 -0.28653997007E+03  0.35857507806E+03  0.17178838696E+03 0.  0.
         24    2    3    3    0    0 -0.48344004118E+02 -0.47917372587E+02 -0.27071410410E+03  0.29074371074E+03  0.81317660097E+02 0.  0.
         -6    2    1    2    0  502  0.69222413805E+02  0.11030838450E+03 -0.63109079980E+03  0.66687968332E+03  0.17173593732E+03 0.  0.
        -24    2    5    5    0    0  0.92375243685E+02  0.12186737837E+03 -0.42450783450E+03  0.45862917210E+03  0.82152129586E+02 0.  0.
          5    1    3    3  501    0 -0.20878409687E+02 -0.62391011918E+02 -0.15825865967E+02  0.67831367322E+02  0.47000000000E+01 0. -1.
        -11    1    4    4    0    0 -0.13265741201E+02 -0.60186480773E+02 -0.11304047255E+03  0.12874991569E+03  0.00000000000E+00 0.  1.
         12    1    4    4    0    0 -0.35078262917E+02  0.12269108186E+02 -0.15767363155E+03  0.16199379504E+03  0.00000000000E+00 0. -1.
         -5    1    5    5    0  502 -0.23152829880E+02 -0.11558993861E+02 -0.20658296530E+03  0.20825051122E+03  0.47000000000E+01 0.  1.
         13    1    6    6    0    0  0.87760061699E+02  0.98627732114E+02 -0.41026720933E+03  0.43098543017E+03  0.00000000000E+00 0. -1.
        -14    1    6    6    0    0  0.46151819859E+01  0.23239646251E+02 -0.14240625176E+02  0.27643741933E+02  0.00000000000E+00 0.  1.
</event>
<event>
12    1  0.8053217E-002  0.2932488E+03  0.7818608E-02  0.1088767E+00
         21   -1    0    0  503  502  0.00000000000E+00  0.00000000000E+00  0.82507580325E+02  0.82507580325E+02  0.00000000000E+00 0. -1.
         21   -1    0    0  501  503 -0.00000000000E+00 -0.00000000000E+00 -0.11260984075E+04  0.11260984075E+04  0.00000000000E+00 0.  1.
          6    2    1    2  501    0  0.56403520548E+02  0.23107438150E+03 -0.69007067799E+03  0.74979490051E+03  0.17151712827E+03 0.  0.
         24    2    3    3    0    0  0.75554882102E+02  0.21371819494E+03 -0.68064287635E+03  0.72188459229E+03  0.80365617060E+02 0.  0.
         -6    2    1    2    0  502 -0.56403520548E+02 -0.23107438150E+03 -0.35352014914E+03  0.45881108727E+03  0.17015989845E+03 0.  0.
        -24    2    5    5    0    0 -0.44848651476E+02 -0.14016976660E+03 -0.32023285121E+03  0.36120320740E+03  0.79118348285E+02 0.  0.
          5    1    3    3  501    0 -0.19151361554E+02  0.17356186555E+02 -0.94278016467E+01  0.27910308221E+02  0.47000000000E+01 0. -1.
        -13    1    4    4    0    0  0.23373489335E+02  0.62900384566E+02 -0.32825373617E+03  0.33504222673E+03  0.00000000000E+00 0.  1.
         14    1    4    4    0    0  0.52181392767E+02  0.15081781038E+03 -0.35238914017E+03  0.38684236556E+03  0.00000000000E+00 0. -1.
         -5    1    5    5    0  502 -0.11554869072E+02 -0.90904614898E+02 -0.33287297928E+02  0.97607879868E+02  0.47000000000E+01 0.  1.
         13    1    6    6    0    0  0.19431833026E+02 -0.20791626999E+02 -0.32988605983E+02  0.43567602789E+02  0.00000000000E+00 0. -1.
        -14    1    6    6    0    0 -0.64280484501E+02 -0.11937813960E+03 -0.28724424523E+03  0.31763560461E+03  0.00000000000E+00 0.  1.
</event>
<event>
12    1  0.8053217E-002  0.2061311E+03  0.7818608E-02  0.1144681E+00
         21   -1    0    0  503  502  0.00000000000E+00  0.00000000000E+00  0.61323428370E+02  0.61323428370E+02  0.00000000000E+00 0. -1.
         21   -1    0    0  501  503 -0.00000000000E+00 -0.00000000000E+00 -0.69861368799E+03  0.69861368799E+03  0.00000000000E+00 0. -1.
          6    2    1    2  501    0 -0.56065319353E+02  0.98933771750E+02 -0.35379989775E+03  0.40946845813E+03  0.17192684296E+03 0.  0.
         24    2    3    3    0    0 -0.10353120992E+02  0.10891382930E+02 -0.26135338118E+03  0.27378678754E+03  0.80173598160E+02 0.  0.
         -6    2    1    2    0  502  0.56065319353E+02 -0.98933771750E+02 -0.28349036187E+03  0.35046865823E+03  0.17184377760E+03 0.  0.
        -24    2    5    5    0    0  0.12032081785E+01 -0.80690036658E+01 -0.51169758735E+02  0.95005921293E+02  0.79631804838E+02 0.  0.
          5    1    3    3  501    0 -0.45712198361E+02  0.88042388819E+02 -0.92446516568E+02  0.13568167059E+03  0.47000000000E+01 0. -1.
        -11    1    4    4    0    0  0.18709479542E+02 -0.26147773689E+02 -0.75458759054E+02  0.82023015134E+02  0.00000000000E+00 0.  1.
         12    1    4    4    0    0 -0.29062600534E+02  0.37039156620E+02 -0.18589462213E+03  0.19176377241E+03  0.00000000000E+00 0. -1.
         -5    1    5    5    0  502  0.54862111175E+02 -0.90864768084E+02 -0.23232060314E+03  0.25546273694E+03  0.47000000000E+01 0.  1.
         11    1    6    6    0    0 -0.86134730798E+01 -0.31928308758E+02  0.47616635817E+01  0.33410810507E+02  0.00000000000E+00 0. -1.
        -12    1    6    6    0    0  0.98166812583E+01  0.23859305092E+02 -0.55931422317E+02  0.61595110787E+02  0.00000000000E+00 0.  1.
</event>
<event>
12    1  0.8053217E-002  0.2744102E+03  0.7818608E-02  0.1098817E+00
         21   -1    0    0  501  502  0.00000000000E+00  0.00000000000E+00  0.35861828619E+03  0.35861828619E+03  0.00000000000E+00 0. -1.
         21   -1    0    0  502  503 -0.00000000000E+00 -0.00000000000E+00 -0.68451325355E+03  0.68451325355E+03  0.00000000000E+00 0.  1.
         -6    2    1    2    0  503  0.96585772144E+02  0.19125970031E+03 -0.59732330508E+03  0.65734015553E+03  0.17144055803E+03 0.  0.
        -24    2    3    3    0    0  0.12108476222E+03  0.18018124380E+03 -0.58352928853E+03  0.62675751984E+03  0.72053853777E+02 0.  0.
          6    2    1    2  501    0 -0.96585772144E+02 -0.19125970031E+03  0.27142833772E+03  0.38579138421E+03  0.17103381323E+03 0.  0.
         24    2    5    5    0    0  0.16000600754E+02 -0.71637636380E+02  0.11403919642E+03  0.15824235358E+03  0.81533637080E+02 0.  0.
          5    1    5    5  501    0 -0.11258637290E+03 -0.11962206393E+03  0.15738914130E+03  0.22754903062E+03  0.47000000000E+01 0. -1.
        -13    1    6    6    0    0  0.20219521493E+02  0.11037454934E+02  0.95561855968E+01  0.24939429504E+02  0.00000000000E+00 0.  1.
         14    1    6    6    0    0 -0.42189207398E+01 -0.82675091314E+02  0.10448301083E+03  0.13330292408E+03  0.00000000000E+00 0. -1.
         -5    1    3    3    0  503 -0.24498990073E+02  0.11078456502E+02 -0.13794016548E+02  0.30582635688E+02  0.47000000000E+01 0.  1.
         11    1    4    4    0    0  0.16141397907E+02 -0.13574561751E+01 -0.21745298509E+02  0.27115409289E+02  0.00000000000E+00 0. -1.
        -12    1    4    4    0    0  0.10494336431E+03  0.18153869998E+03 -0.56178399002E+03  0.59964211055E+03  0.00000000000E+00 0.  1.
</event>
<event>
12    1  0.8053217E-002  0.1781440E+03  0.7818608E-02  0.1169672E+00
         21   -1    0    0  503  502  0.00000000000E+00  0.00000000000E+00  0.17687097500E+02  0.17687097500E+02  0.00000000000E+00 0.  1.
         21   -1    0    0  501  503 -0.00000000000E+00 -0.00000000000E+00 -0.18427351292E+04  0.18427351292E+04  0.00000000000E+00 0.  1.
          6    2    1    2  501    0 -0.41695211959E+02  0.22897826895E+02 -0.10665913493E+04  0.10813254336E+04  0.17141991057E+03 0.  0.
         24    2    3    3    0    0  0.78447196947E+01 -0.44342711120E+02 -0.46238757120E+03  0.47135839328E+03  0.79678436632E+02 0.  0.
         -6    2    1    2    0  502  0.41695211959E+02 -0.22897826895E+02 -0.75845668234E+03  0.77909679306E+03  0.17167548685E+03 0.  0.
        -24    2    5    5    0    0  0.63875252651E+02 -0.25208162653E+02 -0.74538295529E+03  0.75282315236E+03  0.80196317452E+02 0.  0.
          5    1    3    3  501    0 -0.49539931654E+02  0.67240538015E+02 -0.60420377815E+03  0.60996704035E+03  0.47000000000E+01 0. -1.
        -13    1    4    4    0    0  0.21545567664E+02  0.16921056582E+02 -0.18033276376E+03  0.18240186218E+03  0.00000000000E+00 0.  1.
         14    1    4    4    0    0 -0.13700847969E+02 -0.61263767702E+02 -0.28205480744E+03  0.28895653111E+03  0.00000000000E+00 0. -1.
         -5    1    5    5    0  502 -0.22180040692E+02  0.23103357583E+01 -0.13073727058E+02  0.26273640699E+02  0.47000000000E+01 0.  1.
         13    1    6    6    0    0  0.69134453871E+01  0.23599035596E+02 -0.95092946083E+02  0.98221070056E+02  0.00000000000E+00 0. -1.
        -14    1    6    6    0    0  0.56961807264E+02 -0.48807198249E+02 -0.65029000920E+03  0.65460208230E+03  0.00000000000E+00 0.  1.
</event>
<event>
12    1  0.8053217E-002  0.1837606E+03  0.7818608E-02  0.1164304E+00
         21   -1    0    0  501  502  0.00000000000E+00  0.00000000000E+00  0.40166192149E+03  0.40166192149E+03  0.00000000000E+00 0. -1.
         21   -1    0    0  502  503 -0.00000000000E+00 -0.00000000000E+00 -0.15022278271E+03  0.15022278271E+03  0.00000000000E+00 0. -1.
         -6    2    1    2    0  503 -0.52041043425E+02 -0.33658903631E+02 -0.57715585804E+02  0.19223958281E+03  0.17257976811E+03 0.  0.
        -24    2    3    3    0    0 -0.88365434762E+02 -0.48695755750E+02 -0.78694214152E+01  0.12858191688E+03  0.79319952509E+02 0.  0.
          6    2    1    2  501    0  0.52041043425E+02  0.33658903631E+02  0.30915472459E+03  0.35964512139E+03  0.17299357680E+03 0.  0.
         24    2    5    5    0    0  0.52072493589E+02  0.27315673851E+02  0.72975630416E+02  0.12333411429E+03  0.80175872229E+02 0.  0.
          5    1    5    5  501    0 -0.31450163909E-01  0.63432297797E+01  0.23617909417E+03  0.23631100710E+03  0.47000000000E+01 0. -1.
        -13    1    6    6    0    0 -0.17531907440E+02 -0.99919727218E+01  0.11269497329E+02  0.23112958863E+02  0.00000000000E+00 0.  1.
         14    1    6    6    0    0  0.69604401029E+02  0.37307646573E+02  0.61706133087E+02  0.10022115543E+03  0.00000000000E+00 0. -1.
         -5    1    3    3    0  503  0.36324391337E+02  0.15036852119E+02 -0.49846164388E+02  0.63657665932E+02  0.47000000000E+01 0.  1.
         13    1    4    4    0    0 -0.67815283388E+02 -0.70552150334E+02 -0.10727450856E+02  0.98445907886E+02  0.00000000000E+00 0. -1.
        -14    1    4    4    0    0 -0.20550151374E+02  0.21856394584E+02  0.28580294407E+01  0.30136008992E+02  0.00000000000E+00 0.  1.
</event>
<event>
12    1  0.8053217E-002  0.2028853E+03  0.7818608E-02  0.1147407E+00
         21   -1    0    0  501  502  0.00000000000E+00  0.00000000000E+00  0.10410225708E+04  0.10410225708E+04  0.00000000000E+00 0. -1.
         21   -1    0    0  502  503 -0.00000000000E+00 -0.00000000000E+00 -0.45608917352E+02  0.45608917352E+02  0.00000000000E+00 0. -1.
         -6    2    1    2    0  503  0.84695727063E+02 -0.65584433793E+02  0.29788967743E+03  0.36020037642E+03  0.17184692932E+03 0.  0.
        -24    2    3    3    0    0  0.51779008018E+02 -0.10059982362E+02  0.27643591353E+03  0.29201805404E+03  0.77945241556E+02 0.  0.
          6    2    1    2  501    0 -0.84695727063E+02  0.65584433793E+02  0.69752397600E+03  0.72643111171E+03  0.17230141853E+03 0.  0.
         24    2    5    5    0    0  0.10337985343E+02  0.56000890459E+02  0.32678146821E+03  0.34355339249E+03  0.89441779109E+02 0.  0.
          5    1    5    5  501    0 -0.95033712406E+02  0.95835433342E+01  0.37074250779E+03  0.38287771922E+03  0.47000000000E+01 0. -1.
        -11    1    6    6    0    0  0.30895633680E+02 -0.16979518815E+01  0.20408909048E+03  0.20642136536E+03  0.00000000000E+00 0.  1.
         12    1    6    6    0    0 -0.20557648337E+02  0.57698842341E+02  0.12269237772E+03  0.13713202713E+03  0.00000000000E+00 0. -1.
         -5    1    3    3    0  503  0.32916719045E+02 -0.55524451431E+02  0.21453763899E+02  0.68182322378E+02  0.47000000000E+01 0.  1.
         13    1    4    4    0    0  0.21117849472E+02 -0.17429386099E+02  0.20649230290E+02  0.34294865180E+02  0.00000000000E+00 0. -1.
        -14    1    4    4    0    0  0.30661158546E+02  0.73694037372E+01  0.25578668324E+03  0.25772318886E+03  0.00000000000E+00 0.  1.
</event>
<event>
12    1  0.8053217E-002  0.1736805E+03  0.7818608E-02  0.1174329E+00
         21   -1    0    0  501  502  0.00000000000E+00  0.00000000000E+00  0.11250990499E+03  0.11250990499E+03  0.00000000000E+00 0. -1.
         21   -1    0    0  502  503 -0.00000000000E+00 -0.00000000000E+00 -0.41575856972E+03  0.41575856972E+03  0.00000000000E+00 0. -1.
         -6    2    1    2    0  503  0.18553916922E+02  0.11691587689E+02 -0.30959359711E+03  0.35447210321E+03  0.17123473808E+03 0.  0.
        -24    2    3    3    0    0 -0.37373817383E+02 -0.33455081200E+02 -0.20676606286E+03  0.22892639449E+03  0.84492867519E+02 0.  0.
          6    2    1    2  501    0 -0.18553916922E+02 -0.11691587689E+02  0.63449323828E+01  0.17379637151E+03  0.17229039302E+03 0.  0.
         24    2    5    5    0    0 -0.16295367169E+02  0.38694268528E+02  0.52557952241E+02  0.10522838511E+03  0.80919029170E+02 0.  0.
          5    1    5    5  501    0 -0.22585497538E+01 -0.50385856216E+02 -0.46213019858E+02  0.68567986393E+02  0.47000000000E+01 0. -1.
        -13    1    6    6    0    0 -0.89508693670E+01  0.55847010543E+02  0.82582701269E+01  0.57159475806E+02  0.00000000000E+00 0.  1.
         14    1    6    6    0    0 -0.73444978016E+01 -0.17152742015E+02  0.44299682114E+02  0.48068909307E+02  0.00000000000E+00 0. -1.
         -5    1    3    3    0  503  0.55927734305E+02  0.45146668888E+02 -0.10282753425E+03  0.12554570871E+03  0.47000000000E+01 0.  1.
         11    1    4    4    0    0 -0.25817472221E+02 -0.19245388363E+02 -0.20808634310E+03  0.21056318061E+03  0.00000000000E+00 0. -1.
        -12    1    4    4    0    0 -0.11556345162E+02 -0.14209692836E+02  0.13202802436E+01  0.18363213878E+02  0.00000000000E+00 0.  1.
</event>
<event>
12    1  0.8053217E-002  0.1735052E+03  0.7818608E-02  0.1174380E+00
         21   -1    0    0  501  502  0.00000000000E+00  0.00000000000E+00  0.84679633827E+02  0.84679633827E+02  0.00000000000E+00 0. -1.
         21   -1    0    0  502  503 -0.00000000000E+00 -0.00000000000E+00 -0.40830090441E+03  0.40830090441E+03  0.00000000000E+00 0. -1.
         -6    2    1    2    0  503 -0.44218989321E+01 -0.19051394526E+02 -0.25159825359E+03  0.30562349954E+03  0.17239934291E+03 0.  0.
        -24    2    3    3    0    0 -0.60311167999E+02  0.23902406629E+02 -0.13941433799E+03  0.17304914172E+03  0.79378119061E+02 0.  0.
          6    2    1    2  501    0  0.44218989321E+01  0.19051394526E+02 -0.72023016998E+02  0.18735703871E+03  0.17185120352E+03 0.  0.
         24    2    5    5    0    0  0.11581180082E+02 -0.34260269369E+02 -0.92816242894E+02  0.12949654219E+03  0.82744242730E+02 0.  0.
          5    1    5    5  501    0 -0.71592811494E+01  0.53311663895E+02  0.20793225896E+02  0.57860496515E+02  0.47000000000E+01 0. -1.
        -13    1    6    6    0    0 -0.24433290672E+02 -0.18967417800E+01 -0.73306370222E+02  0.77294289812E+02  0.00000000000E+00 0.  1.
         14    1    6    6    0    0  0.36014470754E+02 -0.32363527589E+02 -0.19509872672E+02  0.52202252378E+02  0.00000000000E+00 0. -1.
         -5    1    3    3    0  503  0.55889269067E+02 -0.42953801155E+02 -0.11218391560E+03  0.13257435781E+03  0.47000000000E+01 0.  1.
         13    1    4    4    0    0 -0.36076072827E+02 -0.11419682931E+02 -0.13711727522E+02  0.40248026790E+02  0.00000000000E+00 0. -1.
        -14    1    4    4    0    0 -0.24235095173E+02  0.35322089560E+02 -0.12570261047E+03  0.13280111493E+03  0.00000000000E+00 0.  1.
</event>
<event>
12    1  0.8053217E-002  0.2079891E+03  0.7818608E-02  0.1143302E+00
         21   -1    0    0  501  502  0.00000000000E+00  0.00000000000E+00  0.10459579248E+03  0.10459579248E+03  0.00000000000E+00 0. -1.
         21   -1    0    0  502  503 -0.00000000000E+00 -0.00000000000E+00 -0.63442316256E+03  0.63442316256E+03  0.00000000000E+00 0.  1.
         -6    2    1    2    0  503  0.15027036282E+02 -0.11537607034E+03 -0.48385008326E+03  0.52665962887E+03  0.17240073138E+03 0.  0.
        -24    2    3    3    0    0 -0.48798485935E+02 -0.28870866926E+02 -0.19170133575E+03  0.21532407328E+03  0.80001470095E+02 0.  0.
          6    2    1    2  501    0 -0.15027036282E+02  0.11537607034E+03 -0.45977286825E+02  0.21235932617E+03  0.17159581313E+03 0.  0.
         24    2    5    5    0    0 -0.14012636227E+01  0.90076321435E+02  0.35743483224E+02  0.12560615198E+03  0.79897444262E+02 0.  0.
          5    1    5    5  501    0 -0.13625772659E+02  0.25299748904E+02 -0.81720770049E+02  0.86753174193E+02  0.47000000000E+01 0. -1.
        -11    1    6    6    0    0 -0.33999901199E+02  0.78962202099E+02  0.25307792014E+02  0.89618675389E+02  0.00000000000E+00 0.  1.
         12    1    6    6    0    0  0.32598637576E+02  0.11114119336E+02  0.10435691210E+02  0.35987476592E+02  0.00000000000E+00 0. -1.
         -5    1    3    3    0  503  0.63825522217E+02 -0.86505203413E+02 -0.29214874751E+03  0.31133555559E+03  0.47000000000E+01 0.  1.
         11    1    4    4    0    0 -0.17232268717E+02  0.23627055493E+02 -0.10613928996E+03  0.11009422196E+03  0.00000000000E+00 0. -1.
        -12    1    4    4    0    0 -0.31566217218E+02 -0.52497922419E+02 -0.85562045796E+02  0.10522985132E+03  0.00000000000E+00 0.  1.
</event>
<event>
12    1  0.8053217E-002  0.1785990E+03  0.7818608E-02  0.1169555E+00
         21   -1    0    0  503  502  0.00000000000E+00  0.00000000000E+00  0.12288160036E+03  0.12288160036E+03  0.00000000000E+00 0.  1.
         21   -1    0    0  501  503 -0.00000000000E+00 -0.00000000000E+00 -0.37479828854E+03  0.37479828854E+03  0.00000000000E+00 0.  1.
          6    2    1    2  501    0  0.22087849579E+02 -0.42509043920E+02 -0.26568104607E+03  0.32013127507E+03  0.17205441906E+03 0.  0.
         24    2    3    3    0    0  0.55495871228E+02  0.95419243582E+01 -0.22721887825E+03  0.24714615629E+03  0.79258841097E+02 0.  0.
         -6    2    1    2    0  502 -0.22087849579E+02  0.42509043920E+02  0.13764357894E+02  0.17754861384E+03  0.17040880497E+03 0.  0.
        -24    2    5    5    0    0 -0.68168834067E+02  0.29596262419E+02 -0.30251282314E+02  0.11235916960E+03  0.78654397355E+02 0.  0.
          5    1    3    3  501    0 -0.33408021649E+02 -0.52050968278E+02 -0.38462167822E+02  0.72985118776E+02  0.47000000000E+01 0. -1.
        -13    1    4    4    0    0  0.31579822258E+02  0.25202579230E+02 -0.36982161525E+02  0.54773492172E+02  0.00000000000E+00 0.  1.
         14    1    4    4    0    0  0.23916048970E+02 -0.15660654872E+02 -0.19023671673E+03  0.19237266412E+03  0.00000000000E+00 0. -1.
         -5    1    5    5    0  502  0.46080984488E+02  0.12912781501E+02  0.44015640209E+02  0.65189444241E+02  0.47000000000E+01 0.  1.
         11    1    6    6    0    0  0.33147992018E+01  0.24098522926E+02 -0.32540724092E+02  0.40627889748E+02  0.00000000000E+00 0. -1.
        -12    1    6    6    0    0 -0.71483633269E+02  0.54977394926E+01  0.22894417775E+01  0.71731279847E+02  0.00000000000E+00 0.  1.
</event>
<event>
12    1  0.8053217E-002  0.2220282E+03  0.7818608E-02  0.1132440E+00
         21   -1    0    0  503  502  0.00000000000E+00  0.00000000000E+00  0.93532325898E+03  0.93532325898E+03  0.00000000000E+00 0. -1.
         21   -1    0    0  501  503 -0.00000000000E+00 -0.00000000000E+00 -0.55941572308E+02  0.55941572308E+02  0.00000000000E+00 0. -1.
          6    2    1    2  501    0 -0.79882696338E+02 -0.11584024242E+03  0.56060959514E+03  0.60297566877E+03  0.17174496217E+03 0.  0.
         24    2    3    3    0    0 -0.92327701568E+02 -0.20218547024E+02  0.27663641220E+03  0.30304026671E+03  0.79827968587E+02 0.  0.
         -6    2    1    2    0  502  0.79882696338E+02  0.11584024242E+03  0.31877209153E+03  0.38828916252E+03  0.17132606470E+03 0.  0.
        -24    2    5    5    0    0  0.68576858911E+02  0.14270613582E+03  0.31232197148E+03  0.35806843723E+03  0.74834250822E+02 0.  0.
          5    1    3    3  501    0  0.12445005230E+02 -0.95621695399E+02  0.28397318294E+03  0.29993540207E+03  0.47000000000E+01 0. -1.
        -13    1    4    4    0    0 -0.54527530212E+02 -0.49943368621E+02  0.14245658693E+03  0.16050380301E+03  0.00000000000E+00 0.  1.
         14    1    4    4    0    0 -0.37800171356E+02  0.29724821597E+02  0.13417982527E+03  0.14253646370E+03  0.00000000000E+00 0. -1.
         -5    1    5    5    0  502  0.11305837428E+02 -0.26865893395E+02  0.64501200566E+01  0.30220725282E+02  0.47000000000E+01 0.  1.
         13    1    6    6    0    0  0.32358885284E+02  0.11679112995E+03  0.16882762435E+03  0.20782211681E+03  0.00000000000E+00 0. -1.
        -14    1    6    6    0    0  0.36217973627E+02  0.25915005870E+02  0.14349434713E+03  0.15024632043E+03  0.00000000000E+00 0.  1.
</event>
<event>
12    1  0.8053217E-002  0.1932786E+03  0.7818608E-02  0.1155956E+00
         21   -1    0    0  501  502  0.00000000000E+00  0.00000000000E+00  0.40021750661E+02  0.40021750661E+02  0.00000000000E+00 0. -1.
         21   -1    0    0  502  503 -0.00000000000E+00 -0.00000000000E+00 -0.95470480582E+03  0.95470480582E+03  0.00000000000E+00 0. -1.
         -6    2    1    2    0  503  0.83955795257E+02  0.11681448740E+02 -0.54825184802E+03  0.58132322336E+03  0.17369965274E+03 0.  0.
        -24    2    3    3    0    0  0.10010803861E+03 -0.27262919586E+02 -0.50097293769E+03  0.51780201311E+03  0.79875868116E+02 0.  0.
          6    2    1    2  501    0 -0.83955795257E+02 -0.11681448740E+02 -0.36643120714E+03  0.41340333312E+03  0.17159677872E+03 0.  0.
         24    2    5    5    0    0 -0.37041878045E+02  0.50921508071E+01 -0.70566038454E+02  0.11333574521E+03  0.80420113351E+02 0.  0.
          5    1    5    5  501    0 -0.46913917212E+02 -0.16773599547E+02 -0.29586516869E+03  0.30006758791E+03  0.47000000000E+01 0. -1.
        -11    1    6    6    0    0 -0.20654094611E+02  0.29097443379E+02  0.14120829033E+01  0.35710598056E+02  0.00000000000E+00 0.  1.
         12    1    6    6    0    0 -0.16387783434E+02 -0.24005292572E+02 -0.71978121357E+02  0.77625147159E+02  0.00000000000E+00 0. -1.
         -5    1    3    3    0  503 -0.16152243349E+02  0.38944368326E+02 -0.47278910328E+02  0.63521210247E+02  0.47000000000E+01 0.  1.
         13    1    4    4    0    0  0.56558588229E+02 -0.42535634636E+02 -0.17805640651E+03  0.19160437891E+03  0.00000000000E+00 0. -1.
        -14    1    4    4    0    0  0.43549450376E+02  0.15272715049E+02 -0.32291653118E+03  0.32619763420E+03  0.00000000000E+00 0.  1.
</event>
<event>
12    1  0.8053217E-002  0.2550761E+03  0.7818608E-02  0.1110292E+00
         21   -1    0    0  501  502  0.00000000000E+00  0.00000000000E+00  0.97488304926E+02  0.97488304926E+02  0.00000000000E+00 0.  1.
         21   -1    0    0  502  503 -0.00000000000E+00 -0.00000000000E+00 -0.66640157034E+03  0.66640157034E+03  0.00000000000E+00 0.  1.
         -6    2    1    2    0  503 -0.15870365036E+03  0.10117415673E+03 -0.26622701123E+03  0.36870129151E+03  0.17216492740E+03 0.  0.
        -24    2    3    3    0    0 -0.65254329919E+02  0.42328439891E+02 -0.22473289939E+03  0.25063586389E+03  0.79143134915E+02 0.  0.
          6    2    1    2  501    0  0.15870365036E+03 -0.10117415673E+03 -0.30268625418E+03  0.39518858375E+03  0.17068095860E+03 0.  0.
         24    2    5    5    0    0  0.15535567056E+03 -0.12407557887E+03 -0.30348834068E+03  0.37155772580E+03  0.80123885532E+02 0.  0.
          5    1    5    5  501    0  0.33479797999E+01  0.22901422135E+02  0.80208649465E+00  0.23630857947E+02  0.47000000000E+01 0. -1.
        -13    1    6    6    0    0  0.16293016803E+03 -0.10507389686E+03 -0.27264138508E+03  0.33454459840E+03  0.00000000000E+00 0.  1.
         14    1    6    6    0    0 -0.75744974755E+01 -0.19001682005E+02 -0.30846955596E+02  0.37013127409E+02  0.00000000000E+00 0. -1.
         -5    1    3    3    0  503 -0.93449320439E+02  0.58845716841E+02 -0.41494111835E+02  0.11806542762E+03  0.47000000000E+01 0.  1.
         11    1    4    4    0    0 -0.43999298778E+02 -0.14595061014E+02 -0.65850865175E+02  0.80531301637E+02  0.00000000000E+00 0. -1.
        -12    1    4    4    0    0 -0.21255031141E+02  0.56923500905E+02 -0.15888203422E+03  0.17010456226E+03  0.00000000000E+00 0.  1.
</event>
<event>
12    1  0.8053217E-002  0.2043968E+03  0.7818608E-02  0.1146155E+00
         21   -1    0    0  501  502  0.00000000000E+00  0.00000000000E+00  0.76552089316E+02  0.76552089316E+02  0.00000000000E+00 0. -1.
         21   -1    0    0  502  503 -0.00000000000E+00 -0.00000000000E+00 -0.11008019144E+04  0.11008019144E+04  0.00000000000E+00 0. -1.
         -6    2    1    2    0  503  0.10982744673E+03  0.12872761257E+02 -0.93027546615E+03  0.95238902500E+03  0.17147780026E+03 0.  0.
        -24    2    3    3    0    0  0.56700962611E+02  0.55303016030E+02 -0.76943880299E+03  0.77770853939E+03  0.80753191625E+02 0.  0.
          6    2    1    2  501    0 -0.10982744673E+03 -0.12872761257E+02 -0.93974358962E+02  0.22496497875E+03  0.17190196474E+03 0.  0.
         24    2    5    5    0    0 -0.36594868962E+02 -0.36520538018E+02 -0.11187843279E+03  0.14581402391E+03  0.77923114116E+02 0.  0.
          5    1    5    5  501    0 -0.73232577763E+02  0.23647776760E+02  0.17904073830E+02  0.79150954835E+02  0.47000000000E+01 0. -1.
        -11    1    6    6    0    0  0.99108469940E+01 -0.94571970743E+01 -0.84196639402E+02  0.85303795644E+02  0.00000000000E+00 0.  1.
         12    1    6    6    0    0 -0.46505715956E+02 -0.27063340944E+02 -0.27681793390E+02  0.60510228267E+02  0.00000000000E+00 0. -1.
         -5    1    3    3    0  503  0.53126484115E+02 -0.42430254772E+02 -0.16083666316E+03  0.17468048561E+03  0.47000000000E+01 0.  1.
         11    1    4    4    0    0  0.32623772489E+02 -0.38241123965E+01 -0.48868497069E+03  0.48978764271E+03  0.00000000000E+00 0. -1.
        -12    1    4    4    0    0  0.24077190122E+02  0.59127128426E+02 -0.28075383230E+03  0.28792089669E+03  0.00000000000E+00 0.  1.
</event>
<event>
12    1  0.8053217E-002  0.1804573E+03  0.7818608E-02  0.1167392E+00
         21   -1    0    0  503  502  0.00000000000E+00  0.00000000000E+00  0.37212684926E+03  0.37212684926E+03  0.00000000000E+00 0. -1.
         21   -1    0    0  501  503 -0.00000000000E+00 -0.00000000000E+00 -0.10416475777E+03  0.10416475777E+03  0.00000000000E+00 0. -1.
          6    2    1    2  501    0 -0.28067622886E+02 -0.45388781843E+02  0.22942322534E+03  0.29189015619E+03  0.17238594486E+03 0.  0.
         24    2    3    3    0    0 -0.10332915357E+02 -0.70032135518E+01  0.22562552782E+02  0.80699721857E+02  0.76469354514E+02 0.  0.
         -6    2    1    2    0  502  0.28067622886E+02  0.45388781843E+02  0.38538866155E+02  0.18440145083E+03  0.17225190244E+03 0.  0.
        -24    2    5    5    0    0  0.62323104177E+02  0.72801749613E+02 -0.18927789933E+01  0.12455400536E+03  0.79535234819E+02 0.  0.
          5    1    3    3  501    0 -0.17734707528E+02 -0.38385568291E+02  0.20686067256E+03  0.21119043434E+03  0.47000000000E+01 0. -1.
        -11    1    4    4    0    0 -0.40578333841E+01 -0.26182269594E+02 -0.20264865627E+02  0.33356289239E+02  0.00000000000E+00 0.  1.
         12    1    4    4    0    0 -0.62750819733E+01  0.19179056043E+02  0.42827418409E+02  0.47343432618E+02  0.00000000000E+00 0. -1.
         -5    1    5    5    0  502 -0.34255481291E+02 -0.27412967770E+02  0.40431645148E+02  0.59847445475E+02  0.47000000000E+01 0.  1.
         13    1    6    6    0    0  0.54203503948E+02  0.37121347231E+01  0.54466885285E+01  0.54602803961E+02  0.00000000000E+00 0. -1.
        -14    1    6    6    0    0  0.81196002284E+01  0.69089614890E+02 -0.73394675218E+01  0.69951201398E+02  0.00000000000E+00 0.  1.
</event>
<event>
12    1  0.8053217E-002  0.1771376E+03  0.7818608E-02  0.1173023E+00
         21   -1    0    0  503  502  0.00000000000E+00  0.00000000000E+00  0.18981213658E+04  0.18981213658E+04  0.00000000000E+00 0. -1.
         21   -1    0    0  501  503 -0.00000000000E+00 -0.00000000000E+00 -0.17774906879E+02  0.17774906879E+02  0.00000000000E+00 0. -1.
          6    2    1    2  501    0 -0.51886861878E-01 -0.42027112776E+02  0.12480316831E+04  0.12592382933E+04  0.16227050419E+03 0.  0.
         24    2    3    3    0    0 -0.60717872924E+02 -0.31496815362E+02  0.82307743591E+03  0.82982072124E+03  0.80419241729E+02 0.  0.
         -6    2    1    2    0  502  0.51886861878E-01  0.42027112776E+02  0.63231477583E+03  0.65665797933E+03  0.17207976403E+03 0.  0.
        -24    2    5    5    0    0 -0.32914537868E+02  0.52331712141E+02  0.60311520451E+03  0.61118628602E+03  0.77322386192E+02 0.  0.
          5    1    3    3  501    0  0.60665986062E+02 -0.10530297414E+02  0.42495424716E+03  0.42941757208E+03  0.47000000000E+01 0. -1.
        -13    1    4    4    0    0  0.94110327530E+01  0.46170724538E+01  0.17564867571E+02  0.20455059724E+02  0.00000000000E+00 0.  1.
         14    1    4    4    0    0 -0.70128905677E+02 -0.36113887815E+02  0.80551256833E+03  0.80936566152E+03  0.00000000000E+00 0. -1.
         -5    1    5    5    0  502  0.32966424730E+02 -0.10304599365E+02  0.29199571319E+02  0.45471693313E+02  0.47000000000E+01 0.  1.
         13    1    6    6    0    0 -0.43775066452E+02  0.25938220738E+02  0.17843425588E+03  0.18554738319E+03  0.00000000000E+00 0. -1.
        -14    1    6    6    0    0  0.10860528584E+02  0.26393491403E+02  0.42468094863E+03  0.42563890283E+03  0.00000000000E+00 0.  1.
</event>
<event>
12    1  0.8053217E-002  0.2263459E+03  0.7818608E-02  0.1130240E+00
         21   -1    0    0  501  502  0.00000000000E+00  0.00000000000E+00  0.45145962467E+03  0.45145962467E+03  0.00000000000E+00 0.  1.
         21   -1    0    0  502  503 -0.00000000000E+00 -0.00000000000E+00 -0.32152414795E+03  0.32152414795E+03  0.00000000000E+00 0. -1.
         -6    2    1    2    0  503 -0.14441186181E+03 -0.18172245615E+02 -0.24768248823E+03  0.33552802992E+03  0.17334193821E+03 0.  0.
        -24    2    3    3    0    0 -0.13330476353E+02  0.25296678334E+02 -0.12466898011E+03  0.15052454308E+03  0.79357796932E+02 0.  0.
          6    2    1    2  501    0  0.14441186181E+03  0.18172245615E+02  0.37761796495E+03  0.43745574270E+03  0.16609389824E+03 0.  0.
         24    2    5    5    0    0  0.11561531354E+03 -0.10027761066E+02  0.37011922484E+03  0.39619071305E+03  0.80693145904E+02 0.  0.
          5    1    5    5  501    0  0.28796548265E+02  0.28200006681E+02  0.74987401051E+01  0.41265029650E+02  0.47000000000E+01 0. -1.
        -11    1    6    6    0    0  0.12685653826E+03 -0.12393256992E+02  0.35509598920E+03  0.37727885664E+03  0.00000000000E+00 0.  1.
         12    1    6    6    0    0 -0.11241224716E+02  0.23654959257E+01  0.15023235640E+02  0.18911856418E+02  0.00000000000E+00 0. -1.
         -5    1    3    3    0  503 -0.13108138545E+03 -0.43468923949E+02 -0.12301350812E+03  0.18500348684E+03  0.47000000000E+01 0.  1.
         11    1    4    4    0    0  0.17651705801E+02  0.90267575237E+01 -0.11131819056E+03  0.11306991031E+03  0.00000000000E+00 0. -1.
        -12    1    4    4    0    0 -0.30982182154E+02  0.16269920810E+02 -0.13350789551E+02  0.37454632768E+02  0.00000000000E+00 0.  1.
</event>
<event>
12    1  0.8053217E-002  0.2411445E+03  0.7818608E-02  0.1120068E+00
         21   -1    0    0  503  502  0.00000000000E+00  0.00000000000E+00  0.11492661452E+04  0.11492661452E+04  0.00000000000E+00 0. -1.
         21   -1    0    0  501  503 -0.00000000000E+00 -0.00000000000E+00 -0.49745886361E+02  0.49745886361E+02  0.00000000000E+00 0. -1.
          6    2    1    2  501    0 -0.97782633333E+02 -0.13799761293E+03  0.50085209090E+03  0.55588080410E+03  0.17188911208E+03 0.  0.
         24    2    3    3    0    0 -0.57990384319E+02 -0.56816860949E+02  0.12280323866E+03  0.16714340912E+03  0.79153290680E+02 0.  0.
         -6    2    1    2    0  502  0.97782633333E+02  0.13799761293E+03  0.59866816798E+03  0.64313122750E+03  0.16312392799E+03 0.  0.
        -24    2    5    5    0    0  0.52081491702E+02  0.10533979744E+03  0.55140570170E+03  0.56957201342E+03  0.80963423181E+02 0.  0.
          5    1    3    3  501    0 -0.39792249014E+02 -0.81180751977E+02  0.37804885224E+03  0.38873739498E+03  0.47000000000E+01 0. -1.
        -13    1    4    4    0    0 -0.71030016149E+02 -0.19343584059E+02  0.76562443653E+02  0.10621320641E+03  0.00000000000E+00 0.  1.
         14    1    4    4    0    0  0.13039631830E+02 -0.37473276890E+02  0.46240795007E+02  0.60930202708E+02  0.00000000000E+00 0. -1.
         -5    1    5    5    0  502  0.45701141631E+02  0.32657815488E+02  0.47262466277E+02  0.73559214089E+02  0.47000000000E+01 0.  1.
         11    1    6    6    0    0  0.64496733140E+02  0.10899201960E+03  0.45482084689E+03  0.47212402151E+03  0.00000000000E+00 0. -1.
        -12    1    6    6    0    0 -0.12415241438E+02 -0.36522221653E+01  0.96584854815E+02  0.97447991905E+02  0.00000000000E+00 0.  1.
</event>
<event>
12    1  0.8053217E-002  0.2074889E+03  0.7818608E-02  0.1143643E+00
         21   -1    0    0  501  502  0.00000000000E+00  0.00000000000E+00  0.23554105698E+03  0.23554105698E+03  0.00000000000E+00 0.  1.
         21   -1    0    0  502  503 -0.00000000000E+00 -0.00000000000E+00 -0.20081183215E+03  0.20081183215E+03  0.00000000000E+00 0.  1.
         -6    2    1    2    0  503  0.45314285322E+02  0.10899658667E+03 -0.48607772934E+02  0.21275343440E+03  0.17019890687E+03 0.  0.
        -24    2    3    3    0    0  0.43844221910E+02 -0.67612148527E+01 -0.52239568534E+01  0.89034902254E+02  0.77018791687E+02 0.  0.
          6    2    1    2  501    0 -0.45314285322E+02 -0.10899658667E+03  0.83336997771E+02  0.22359945473E+03  0.17064003222E+03 0.  0.
         24    2    5    5    0    0 -0.61222967597E+02 -0.13841218500E+03  0.82381364425E+02  0.18981533372E+03  0.79605194513E+02 0.  0.
          5    1    5    5  501    0  0.15908682275E+02  0.29415598332E+02  0.95563334593E+00  0.33784121005E+02  0.47000000000E+01 0. -1.
        -11    1    6    6    0    0 -0.39368194893E+02 -0.11611402882E+03  0.25950116829E+02  0.12532250804E+03  0.00000000000E+00 0.  1.
         12    1    6    6    0    0 -0.21854772705E+02 -0.22298156177E+02  0.56431247596E+02  0.64492825680E+02  0.00000000000E+00 0. -1.
         -5    1    3    3    0  503  0.14700634117E+01  0.11575780152E+03 -0.43383816081E+02  0.12371853215E+03  0.47000000000E+01 0.  1.
         13    1    4    4    0    0  0.19226710001E+02 -0.25066683051E+02  0.29133946855E+02  0.42974316003E+02  0.00000000000E+00 0. -1.
        -14    1    4    4    0    0  0.24617511910E+02  0.18305468198E+02 -0.34357903708E+02  0.46060586251E+02  0.00000000000E+00 0.  1.
</event>
<event>
12    1  0.8053217E-002  0.1715323E+03  0.7818608E-02  0.1176965E+00
         21   -1    0    0  503  502  0.00000000000E+00  0.00000000000E+00  0.64411154763E+03  0.64411154763E+03  0.00000000000E+00 0. -1.
         21   -1    0    0  501  503 -0.00000000000E+00 -0.00000000000E+00 -0.84432601224E+02  0.84432601224E+02  0.00000000000E+00 0. -1.
          6    2    1    2  501    0 -0.26206078585E+01  0.11229293485E+02  0.29588722009E+02  0.17139159785E+03  0.16842393750E+03 0.  0.
         24    2    3    3    0    0 -0.79548988951E+01  0.56260531730E+01  0.83896533531E+02  0.11633454239E+03  0.80001028272E+02 0.  0.
         -6    2    1    2    0  502  0.26206078585E+01 -0.11229293485E+02  0.53009022440E+03  0.55715255101E+03  0.17114425049E+03 0.  0.
        -24    2    5    5    0    0  0.64145940752E+01  0.54084051905E+02  0.40017633050E+03  0.41161926531E+03  0.79517874699E+02 0.  0.
          5    1    3    3  501    0  0.53342910366E+01  0.56032403118E+01 -0.54307811522E+02  0.55057055453E+02  0.47000000000E+01 0. -1.
        -13    1    4    4    0    0 -0.10340950019E+02  0.33482135037E+02  0.80965073139E+02  0.88223192429E+02  0.00000000000E+00 0.  1.
         14    1    4    4    0    0  0.23860511240E+01 -0.27856081864E+02  0.29314603919E+01  0.28111349964E+02  0.00000000000E+00 0. -1.
         -5    1    5    5    0  502 -0.37939862167E+01 -0.65313345389E+02  0.12991389390E+03  0.14553328570E+03  0.47000000000E+01 0.  1.
         11    1    6    6    0    0 -0.23693717857E+01 -0.12343924892E+02  0.20260604945E+03  0.20299556074E+03  0.00000000000E+00 0. -1.
        -12    1    6    6    0    0  0.87839658608E+01  0.66427976797E+02  0.19757028105E+03  0.20862370458E+03  0.00000000000E+00 0.  1.
</event>
<event>
12    1  0.8053217E-002  0.1774436E+03  0.7818608E-02  0.1170493E+00
         21   -1    0    0  503  502  0.00000000000E+00  0.00000000000E+00  0.93610352517E+02  0.93610352517E+02  0.00000000000E+00 0. -1.
         21   -1    0    0  501  503 -0.00000000000E+00 -0.00000000000E+00 -0.35746457210E+03  0.35746457210E+03  0.00000000000E+00 0. -1.
          6    2    1    2  501    0 -0.19964933678E+02  0.37526177235E+02 -0.18889721477E+03  0.25916861670E+03  0.17227710695E+03 0.  0.
         24    2    3    3    0    0  0.19984709466E+02 -0.28437185613E+02 -0.14855956166E+03  0.17201154307E+03  0.79435290964E+02 0.  0.
         -6    2    1    2    0  502  0.19964933678E+02 -0.37526177235E+02 -0.74957004813E+02  0.19190630792E+03  0.17147205572E+03 0.  0.
        -24    2    5    5    0    0  0.79399909340E+02 -0.33361283645E+02 -0.40136817567E+02  0.12273696420E+03  0.77692196566E+02 0.  0.
          5    1    3    3  501    0 -0.39949643144E+02  0.65963362848E+02 -0.40337653115E+02  0.87157073634E+02  0.47000000000E+01 0. -1.
        -11    1    4    4    0    0 -0.24937917197E+02  0.10217806671E+02 -0.38261365813E+02  0.46799950867E+02  0.00000000000E+00 0.  1.
         12    1    4    4    0    0  0.44922626663E+02 -0.38654992284E+02 -0.11029819584E+03  0.12521159220E+03  0.00000000000E+00 0. -1.
         -5    1    5    5    0  502 -0.59434975661E+02 -0.41648935901E+01 -0.34820187246E+02  0.69169343718E+02  0.47000000000E+01 0.  1.
         11    1    6    6    0    0 -0.68333173857E+01  0.39026694750E+01  0.12712464973E+02  0.14950980610E+02  0.00000000000E+00 0. -1.
        -12    1    6    6    0    0  0.86233226725E+02 -0.37263953120E+02 -0.52849282539E+02  0.10778598359E+03  0.00000000000E+00 0.  1.
</event>
<event>
12    1  0.8053217E-002  0.2764491E+03  0.7818608E-02  0.1097883E+00
         21   -1    0    0  503  502  0.00000000000E+00  0.00000000000E+00  0.57898860304E+03  0.57898860304E+03  0.00000000000E+00 0.  1.
         21   -1    0    0  501  503 -0.00000000000E+00 -0.00000000000E+00 -0.60563567543E+03  0.60563567543E+03  0.00000000000E+00 0. -1.
          6    2    1    2  501    0  0.19444952609E+03  0.85815280996E+02 -0.53758815968E+03  0.60450404410E+03  0.17677451529E+03 0.  0.
         24    2    3    3    0    0  0.20854598503E+02  0.43741414732E+02 -0.24655281452E+03  0.26299405707E+03  0.77648941183E+02 0.  0.
         -6    2    1    2    0  502 -0.19444952609E+03 -0.85815280996E+02  0.51094108729E+03  0.58012023437E+03  0.17407989829E+03 0.  0.
        -24    2    5    5    0    0 -0.20474838284E+03 -0.11217420351E+03  0.47271017553E+03  0.53232324847E+03  0.73540319591E+02 0.  0.
          5    1    3    3  501    0  0.17359492759E+03  0.42073866264E+02 -0.29103534517E+03  0.34150998703E+03  0.47000000000E+01 0. -1.
        -11    1    4    4    0    0 -0.20601160579E+01  0.59302524087E+02 -0.12561852493E+03  0.13892820897E+03  0.00000000000E+00 0.  1.
         12    1    4    4    0    0  0.22914714561E+02 -0.15561109355E+02 -0.12093428959E+03  0.12406584810E+03  0.00000000000E+00 0. -1.
         -5    1    5    5    0  502  0.10298856746E+02  0.26358922518E+02  0.38230911768E+02  0.47796985901E+02  0.47000000000E+01 0.  1.
         11    1    6    6    0    0 -0.27352041144E+02  0.37147001106E+01  0.26070710257E+02  0.37968606571E+02  0.00000000000E+00 0. -1.
        -12    1    6    6    0    0 -0.17739634169E+03 -0.11588890362E+03  0.44663946527E+03  0.49435464190E+03  0.00000000000E+00 0.  1.
</event>
<event>
12    1  0.8053217E-002  0.1754512E+03  0.7818608E-02  0.1172709E+00
         21   -1    0    0  503  502  0.00000000000E+00  0.00000000000E+00  0.16208727209E+04  0.16208727209E+04  0.00000000000E+00 0. -1.
         21   -1    0    0  501  503 -0.00000000000E+00 -0.00000000000E+00 -0.32870833038E+02  0.32870833038E+02  0.00000000000E+00 0. -1.
          6    2    1    2  501    0  0.25427126606E+02 -0.14216227864E+02  0.25093108872E+03  0.30521047588E+03  0.17128451009E+03 0.  0.
         24    2    3    3    0    0 -0.43043841005E+02 -0.47858221920E+01  0.20014469064E+03  0.21931196491E+03  0.78512192797E+02 0.  0.
         -6    2    1    2    0  502 -0.25427126606E+02  0.14216227864E+02  0.13370707992E+04  0.13485330781E+04  0.17301589755E+03 0.  0.
        -24    2    5    5    0    0 -0.35213629664E+02  0.26155046315E+02  0.36286105951E+03  0.37418970029E+03  0.80160446146E+02 0.  0.
          5    1    3    3  501    0  0.68470967610E+02 -0.94304056722E+01  0.50786398079E+02  0.85898510967E+02  0.47000000000E+01 0. -1.
        -13    1    4    4    0    0 -0.53362868879E+02  0.20164744463E+02  0.95504059378E+02  0.11124404727E+03  0.00000000000E+00 0.  1.
         14    1    4    4    0    0  0.10319027874E+02 -0.24950566655E+02  0.10464063126E+03  0.10806791764E+03  0.00000000000E+00 0. -1.
         -5    1    5    5    0  502  0.97865030585E+01 -0.11938818451E+02  0.97420973967E+03  0.97434337781E+03  0.47000000000E+01 0.  1.
         13    1    6    6    0    0 -0.12224244770E+02  0.25282104913E+02  0.32183963967E+02  0.42713282777E+02  0.00000000000E+00 0. -1.
        -14    1    6    6    0    0 -0.22989384894E+02  0.87294140261E+00  0.33067709555E+03  0.33147641751E+03  0.00000000000E+00 0.  1.
</event>
<event>
12    1  0.8053217E-002  0.1886090E+03  0.7818608E-02  0.1163360E+00
         21   -1    0    0  501  502  0.00000000000E+00  0.00000000000E+00  0.34297801263E+02  0.34297801263E+02  0.00000000000E+00 0.  1.
         21   -1    0    0  502  503 -0.00000000000E+00 -0.00000000000E+00 -0.14575168795E+04  0.14575168795E+04  0.00000000000E+00 0.  1.
         -6    2    1    2    0  503 -0.75041350157E+02 -0.55385839318E+01 -0.11297046994E+04  0.11429249371E+04  0.15615000434E+03 0.  0.
        -24    2    3    3    0    0 -0.10380580243E+03  0.17011517824E+02 -0.96879756610E+03  0.97785193401E+03  0.80997804916E+02 0.  0.
          6    2    1    2  501    0  0.75041350157E+02  0.55385839318E+01 -0.29351437886E+03  0.34888974368E+03  0.17294936399E+03 0.  0.
         24    2    5    5    0    0  0.10103570528E+03  0.21148557127E+02 -0.28984987700E+03  0.31798834670E+03  0.80300449756E+02 0.  0.
          5    1    5    5  501    0 -0.25994355121E+02 -0.15609973196E+02 -0.36645018536E+01  0.30901396978E+02  0.47000000000E+01 0. -1.
        -11    1    6    6    0    0  0.20255106940E+02  0.14867030614E+02 -0.10685492061E+02  0.27303437458E+02  0.00000000000E+00 0.  1.
         12    1    6    6    0    0  0.80780598339E+02  0.62815265135E+01 -0.27916438494E+03  0.29068490925E+03  0.00000000000E+00 0. -1.
         -5    1    3    3    0  503  0.28764452273E+02 -0.22550101756E+02 -0.16090713329E+03  0.16507300308E+03  0.47000000000E+01 0.  1.
         11    1    4    4    0    0 -0.21593734217E+02  0.97466097111E+01 -0.49718396551E+02  0.55074537800E+02  0.00000000000E+00 0. -1.
        -12    1    4    4    0    0 -0.82212068214E+02  0.72649081127E+01 -0.91907916955E+03  0.92277739621E+03  0.00000000000E+00 0.  1.
</event>
<event>
12    1  0.8053217E-002  0.2317188E+03  0.7818608E-02  0.1125546E+00
         21   -1    0    0  501  502  0.00000000000E+00  0.00000000000E+00  0.61487329576E+03  0.61487329576E+03  0.00000000000E+00 0. -1.
         21   -1    0    0  502  503 -0.00000000000E+00 -0.00000000000E+00 -0.17295304444E+03  0.17295304444E+03  0.00000000000E+00 0.  1.
         -6    2    1    2    0  503 -0.14886026003E+03  0.42086079337E+02 -0.56442024986E+02  0.23849378373E+03  0.17251947021E+03 0.  0.
        -24    2    3    3    0    0 -0.91549144977E+02  0.40711243739E+02  0.32981432456E+02  0.13216834546E+03  0.79636959652E+02 0.  0.
          6    2    1    2  501    0  0.14886026003E+03 -0.42086079337E+02  0.49836227631E+03  0.54933255647E+03  0.17167027717E+03 0.  0.
         24    2    5    5    0    0  0.16346776928E+03 -0.36569069038E+02  0.31737530973E+03  0.36761247283E+03  0.79704670819E+02 0.  0.
          5    1    5    5  501    0 -0.14607509244E+02 -0.55170102990E+01  0.18098696658E+03  0.18172008364E+03  0.47000000000E+01 0. -1.
        -11    1    6    6    0    0  0.41617363549E+02 -0.14349910969E+02  0.26298719052E+02  0.51279113851E+02  0.00000000000E+00 0.  1.
         12    1    6    6    0    0  0.12185040573E+03 -0.22219158069E+02  0.29107659068E+03  0.31633335898E+03  0.00000000000E+00 0. -1.
         -5    1    3    3    0  503 -0.57311115055E+02  0.13748355984E+01 -0.89423457442E+02  0.10632543827E+03  0.47000000000E+01 0.  1.
         11    1    4    4    0    0 -0.51804818471E+02 -0.18355131170E+02  0.25485255456E+02  0.60581748924E+02  0.00000000000E+00 0. -1.
        -12    1    4    4    0    0 -0.39744326506E+02  0.59066374909E+02  0.74961770002E+01  0.71586596538E+02  0.00000000000E+00 0.  1.
</event>
<event>
12    1  0.8053217E-002  0.2098466E+03  0.7818608E-02  0.1141936E+00
         21   -1    0    0  501  502  0.00000000000E+00  0.00000000000E+00  0.84004748880E+03  0.84004748880E+03  0.00000000000E+00 0.  1.
         21   -1    0    0  502  503 -0.00000000000E+00 -0.00000000000E+00 -0.78826562461E+02  0.78826562461E+02  0.00000000000E+00 0. -1.
         -6    2    1    2    0  503  0.71734704928E+02 -0.93877992321E+02  0.11237603540E+03  0.23693909819E+03  0.17190932954E+03 0.  0.
        -24    2    3    3    0    0  0.11192137589E+03 -0.48978254789E+02  0.63938114905E+02  0.15948409773E+03  0.80136328020E+02 0.  0.
          6    2    1    2  501    0 -0.71734704928E+02  0.93877992321E+02  0.64884489093E+03  0.68193495307E+03  0.17342618718E+03 0.  0.
         24    2    5    5    0    0 -0.91952794566E+02  0.33543391559E+02  0.56050863066E+03  0.57296514039E+03  0.67369514695E+02 0.  0.
          5    1    5    5  501    0  0.20218089638E+02  0.60334600762E+02  0.88336260276E+02  0.10896981269E+03  0.47000000000E+01 0. -1.
        -11    1    6    6    0    0 -0.15555300648E+02  0.29826331010E+02  0.28693607381E+03  0.28890117316E+03  0.00000000000E+00 0.  1.
         12    1    6    6    0    0 -0.76397493918E+02  0.37170605496E+01  0.27357255685E+03  0.28406396723E+03  0.00000000000E+00 0. -1.
         -5    1    3    3    0  503 -0.40186670960E+02 -0.44899737533E+02  0.48437920499E+02  0.77455000455E+02  0.47000000000E+01 0.  1.
         11    1    4    4    0    0  0.12284658765E+02 -0.34907226369E+02  0.42949813177E+02  0.56693154311E+02  0.00000000000E+00 0. -1.
        -12    1    4    4    0    0  0.99636717122E+02 -0.14071028419E+02  0.20988301728E+02  0.10279094342E+03  0.00000000000E+00 0.  1.
</event>
<event>
12    1  0.8053217E-002  0.1961009E+03  0.7818608E-02  0.1154332E+00
         21   -1    0    0  503  502  0.00000000000E+00  0.00000000000E+00  0.90311409096E+02  0.90311409096E+02  0.00000000000E+00 0. -1.
         21   -1    0    0  501  503 -0.00000000000E+00 -0.00000000000E+00 -0.41536496346E+03  0.41536496346E+03  0.00000000000E+00 0. -1.
          6    2    1    2  501    0 -0.85938423164E+02 -0.11480109042E+02 -0.14774425098E+03  0.24552788627E+03  0.17589307480E+03 0.  0.
         24    2    3    3    0    0 -0.60538981175E+02  0.50151124370E+02 -0.13845705565E+03  0.17806024527E+03  0.79718198490E+02 0.  0.
         -6    2    1    2    0  502  0.85938423164E+02  0.11480109042E+02 -0.17730930339E+03  0.26014848628E+03  0.16947401089E+03 0.  0.
        -24    2    5    5    0    0  0.10911267800E+03 -0.32780730913E+02 -0.12211647373E+03  0.18555353681E+03  0.80854987781E+02 0.  0.
          5    1    3    3  501    0 -0.25399441989E+02 -0.61631233412E+02 -0.92871953314E+01  0.67467641002E+02  0.47000000000E+01 0. -1.
        -11    1    4    4    0    0 -0.40425374116E+01  0.49404486530E+02 -0.93607800239E+02  0.10592245118E+03  0.00000000000E+00 0.  1.
         12    1    4    4    0    0 -0.56496443764E+02  0.74663783991E+00 -0.44849255409E+02  0.72137794094E+02  0.00000000000E+00 0. -1.
         -5    1    5    5    0  502 -0.23174254835E+02  0.44260839955E+02 -0.55192829660E+02  0.74594949471E+02  0.47000000000E+01 0.  1.
         13    1    6    6    0    0  0.93649173883E+02 -0.37592051659E+02 -0.51866972964E+02  0.11346150449E+03  0.00000000000E+00 0. -1.
        -14    1    6    6    0    0  0.15463504116E+02  0.48113207454E+01 -0.70249500764E+02  0.72092032323E+02  0.00000000000E+00 0.  1.
</event>
<event>
12    1  0.8053217E-002  0.2175854E+03  0.7818608E-02  0.1135795E+00
         21   -1    0    0  503  502  0.00000000000E+00  0.00000000000E+00  0.20991564932E+03  0.20991564932E+03  0.00000000000E+00 0. -1.
         21   -1    0    0  501  503 -0.00000000000E+00 -0.00000000000E+00 -0.44002696161E+03  0.44002696161E+03  0.00000000000E+00 0.  1.
          6    2    1    2  501    0  0.21304203679E+02 -0.13092261860E+03 -0.34230019935E+03  0.40560179551E+03  0.17247837224E+03 0.  0.
         24    2    3    3    0    0  0.27501425015E+02 -0.15649382533E+03 -0.33432723687E+03  0.37771003514E+03  0.75123389117E+02 0.  0.
         -6    2    1    2    0  502 -0.21304203679E+02  0.13092261860E+03  0.11218888706E+03  0.24434081541E+03  0.17181817873E+03 0.  0.
        -24    2    5    5    0    0 -0.18382862398E+02  0.53764865364E+02 -0.10580366779E+02  0.99233156046E+02  0.80664023704E+02 0.  0.
          5    1    3    3  501    0 -0.61972213360E+01  0.25571206726E+02 -0.79729624836E+01  0.27891760369E+02  0.47000000000E+01 0. -1.
        -13    1    4    4    0    0  0.64744559324E+01  0.55665356247E+01 -0.41499231295E+02  0.42368515392E+02  0.00000000000E+00 0.  1.
         14    1    4    4    0    0  0.21026969083E+02 -0.16206036095E+03 -0.29282800557E+03  0.33534151975E+03  0.00000000000E+00 0. -1.
         -5    1    5    5    0  502 -0.29213412816E+01  0.77157753237E+02  0.12276925384E+03  0.14510765937E+03  0.47000000000E+01 0.  1.
         13    1    6    6    0    0 -0.10224271858E+02 -0.19297133095E+02 -0.13473244161E+02  0.25660151771E+02  0.00000000000E+00 0. -1.
        -14    1    6    6    0    0 -0.81585905400E+01  0.73061998459E+02  0.28928773822E+01  0.73573004275E+02  0.00000000000E+00 0.  1.
</event>
<event>
12    1  0.8053217E-002  0.1985323E+03  0.7818608E-02  0.1151134E+00
         21   -1    0    0  501  502  0.00000000000E+00  0.00000000000E+00  0.48467674737E+02  0.48467674737E+02  0.00000000000E+00 0. -1.
         21   -1    0    0  502  503 -0.00000000000E+00 -0.00000000000E+00 -0.87751033454E+03  0.87751033454E+03  0.00000000000E+00 0. -1.
         -6    2    1    2    0  503  0.99560675740E+02  0.23680194087E+02 -0.28572899013E+03  0.34752764480E+03  0.16929656923E+03 0.  0.
        -24    2    3    3    0    0  0.20909909795E+02 -0.29300278913E+02 -0.20539563352E+03  0.22315557524E+03  0.79468948761E+02 0.  0.
          6    2    1    2  501    0 -0.99560675740E+02 -0.23680194087E+02 -0.54331366967E+03  0.57845036448E+03  0.17012348682E+03 0.  0.
         24    2    5    5    0    0 -0.81624811398E+02 -0.72998018977E+02 -0.29476836231E+03  0.32438186408E+03  0.79648513589E+02 0.  0.
          5    1    5    5  501    0 -0.17935864342E+02  0.49317824890E+02 -0.24854530736E+03  0.25406850040E+03  0.47000000000E+01 0. -1.
        -13    1    6    6    0    0  0.90426635624E+00  0.13296145917E+02 -0.14266100634E+02  0.19522469649E+02  0.00000000000E+00 0.  1.
         14    1    6    6    0    0 -0.82529077754E+02 -0.86294164894E+02 -0.28050226168E+03  0.30485939444E+03  0.00000000000E+00 0. -1.
         -5    1    3    3    0  503  0.78650765945E+02  0.52980473000E+02 -0.80333356609E+02  0.12437206956E+03  0.47000000000E+01 0.  1.
         11    1    4    4    0    0  0.30522635631E+02 -0.14564494838E+02 -0.20252455326E+03  0.20532888367E+03  0.00000000000E+00 0. -1.
        -12    1    4    4    0    0 -0.96127258363E+01 -0.14735784075E+02 -0.28710802609E+01  0.17826691566E+02  0.00000000000E+00 0.  1.
</event>
<event>
12    1  0.8053217E-002  0.2651427E+03  0.7818608E-02  0.1104456E+00
         21   -1    0    0  503  502  0.00000000000E+00  0.00000000000E+00  0.14947777984E+03  0.14947777984E+03  0.00000000000E+00 0. -1.
         21   -1    0    0  501  503 -0.00000000000E+00 -0.00000000000E+00 -0.51841817125E+03  0.51841817125E+03  0.00000000000E+00 0. -1.
          6    2    1    2  501    0  0.95583749947E+02 -0.17697892030E+03 -0.78990339211E+02  0.27665888192E+03  0.17275089514E+03 0.  0.
         24    2    3    3    0    0  0.49163021659E+02 -0.42943587115E+02 -0.87828516105E+02  0.13445987374E+03  0.78131011968E+02 0.  0.
         -6    2    1    2    0  502 -0.95583749947E+02  0.17697892030E+03 -0.28995005220E+03  0.39123706917E+03  0.16893081435E+03 0.  0.
        -24    2    5    5    0    0 -0.84074289948E+02  0.15124859744E+03 -0.12721842152E+03  0.22601542771E+03  0.70383395272E+02 0.  0.
          5    1    3    3  501    0  0.46420728288E+02 -0.13403533319E+03  0.88381768936E+01  0.14219900818E+03  0.47000000000E+01 0. -1.
        -11    1    4    4    0    0  0.59980484857E+01  0.10959198577E+02 -0.57839391068E+02  0.59173269119E+02  0.00000000000E+00 0.  1.
         12    1    4    4    0    0  0.43164973173E+02 -0.53902785691E+02 -0.29989125036E+02  0.75286604617E+02  0.00000000000E+00 0. -1.
         -5    1    5    5    0  502 -0.11509459999E+02  0.25730322861E+02 -0.16273163067E+03  0.16522164146E+03  0.47000000000E+01 0.  1.
         13    1    6    6    0    0 -0.50819401222E+02  0.14404344995E+03 -0.10581798103E+03  0.18581865386E+03  0.00000000000E+00 0. -1.
        -14    1    6    6    0    0 -0.33254888726E+02  0.72051474932E+01 -0.21400440493E+02  0.40196773849E+02  0.00000000000E+00 0.  1.
</event>
<event>
12    1  0.8053217E-002  0.2183579E+03  0.7818608E-02  0.1135354E+00
         21   -1    0    0  501  502  0.00000000000E+00  0.00000000000E+00  0.37180416410E+03  0.37180416410E+03  0.00000000000E+00 0. -1.
         21   -1    0    0  502  503 -0.00000000000E+00 -0.00000000000E+00 -0.96768439291E+03  0.96768439291E+03  0.00000000000E+00 0. -1.
         -6    2    1    2    0  503  0.90220087730E+02 -0.96168039222E+02 -0.92189212142E+03  0.94710619344E+03  0.17244448997E+03 0.  0.
        -24    2    3    3    0    0  0.84175301207E+02 -0.11196695620E+02 -0.34960310453E+03  0.36849278404E+03  0.79710437661E+02 0.  0.
          6    2    1    2  501    0 -0.90220087730E+02  0.96168039222E+02  0.32601189261E+03  0.39238236357E+03  0.17404657170E+03 0.  0.
         24    2    5    5    0    0 -0.14544093375E+02 -0.94258492288E+01  0.17441620945E+03  0.19268192153E+03  0.80030815801E+02 0.  0.
          5    1    5    5  501    0 -0.75675994354E+02  0.10559388845E+03  0.15159568316E+03  0.19970044204E+03  0.47000000000E+01 0. -1.
        -11    1    6    6    0    0  0.31864824030E+02 -0.13041196290E+02  0.60308129436E+02  0.69444296290E+02  0.00000000000E+00 0.  1.
         12    1    6    6    0    0 -0.46408917405E+02  0.36153470608E+01  0.11410808002E+03  0.12323762524E+03  0.00000000000E+00 0. -1.
         -5    1    3    3    0  503  0.60447865232E+01 -0.84971343602E+02 -0.57228901689E+03  0.57861340940E+03  0.47000000000E+01 0.  1.
         13    1    4    4    0    0 -0.72931536683E+01 -0.22064874312E+02 -0.51900962928E+02  0.56866147414E+02  0.00000000000E+00 0. -1.
        -14    1    4    4    0    0  0.91468454875E+02  0.10868178692E+02 -0.29770214160E+03  0.31162663663E+03  0.00000000000E+00 0.  1.
</event>
<event>
12    1  0.8053217E-002  0.2037285E+03  0.7818608E-02  0.1146634E+00
         21   -1    0    0  501  502  0.00000000000E+00  0.00000000000E+00  0.15649829460E+04  0.15649829460E+04  0.00000000000E+00 0. -1.
         21   -1    0    0  502  503 -0.00000000000E+00 -0.00000000000E+00 -0.76913493887E+02  0.76913493887E+02  0.00000000000E+00 0.  1.
         -6    2    1    2    0  503  0.23350693605E+01 -0.10860787928E+03  0.79506778959E+02  0.21867681546E+03  0.17232845884E+03 0.  0.
        -24    2    3    3    0    0  0.69234859831E+02 -0.68817644051E+02  0.44503547679E+02  0.13320073117E+03  0.78946406378E+02 0.  0.
          6    2    1    2  501    0 -0.23350693605E+01  0.10860787928E+03  0.14085626732E+04  0.14232196244E+04  0.17234898076E+03 0.  0.
         24    2    5    5    0    0  0.46517645438E+02  0.11868260138E+03  0.92363648802E+03  0.93571210367E+03  0.78761207113E+02 0.  0.
          5    1    5    5  501    0 -0.48852714798E+02 -0.10074722096E+02  0.48492618516E+03  0.48750752078E+03  0.47000000000E+01 0. -1.
        -11    1    6    6    0    0 -0.17856697558E+02  0.38615990527E+02  0.38686632168E+03  0.38919867320E+03  0.00000000000E+00 0.  1.
         12    1    6    6    0    0  0.64374342995E+02  0.80066610851E+02  0.53677016634E+03  0.54651343047E+03  0.00000000000E+00 0. -1.
         -5    1    3    3    0  503 -0.66899790471E+02 -0.39790235232E+02  0.35003231279E+02  0.85476084286E+02  0.47000000000E+01 0.  1.
         13    1    4    4    0    0  0.31710774660E+02 -0.81894489972E+01  0.52055024106E+02  0.61500941774E+02  0.00000000000E+00 0. -1.
        -14    1    4    4    0    0  0.37524085171E+02 -0.60628195054E+02 -0.75514764268E+01  0.71699789397E+02  0.00000000000E+00 0.  1.
</event>
<event>
12    1  0.8053217E-002  0.2609202E+03  0.7818608E-02  0.1106658E+00
         21   -1    0    0  503  502  0.00000000000E+00  0.00000000000E+00  0.94061321855E+02  0.94061321855E+02  0.00000000000E+00 0.  1.
         21   -1    0    0  501  503 -0.00000000000E+00 -0.00000000000E+00 -0.94632395477E+03  0.94632395477E+03  0.00000000000E+00 0. -1.
          6    2    1    2  501    0  0.14322651113E+03 -0.13410464929E+03 -0.67881477369E+03  0.72707473955E+03  0.17131926182E+03 0.  0.
         24    2    3    3    0    0  0.12210561638E+03 -0.24036746478E+02 -0.39974939319E+03  0.42630803260E+03  0.80320698231E+02 0.  0.
         -6    2    1    2    0  502 -0.14322651113E+03  0.13410464929E+03 -0.17344785923E+03  0.31331053707E+03  0.17199256471E+03 0.  0.
        -24    2    5    5    0    0 -0.16124003851E+03  0.10743396580E+03 -0.18437116342E+03  0.27899988127E+03  0.79421664694E+02 0.  0.
          5    1    3    3  501    0  0.21120894746E+02 -0.11006790281E+03 -0.27906538049E+03  0.30076670696E+03  0.47000000000E+01 0. -1.
        -13    1    4    4    0    0 -0.96431445001E+01  0.14099047131E+01 -0.94032053681E+01  0.13542464264E+02  0.00000000000E+00 0.  1.
         14    1    4    4    0    0  0.13174876088E+03 -0.25446651192E+02 -0.39034618783E+03  0.41276556833E+03  0.00000000000E+00 0. -1.
         -5    1    5    5    0  502  0.18013527383E+02  0.26670683493E+02  0.10923304192E+02  0.34310655797E+02  0.47000000000E+01 0.  1.
         11    1    6    6    0    0 -0.14839997131E+02  0.16745480098E+02 -0.66885197993E+02  0.70528478851E+02  0.00000000000E+00 0. -1.
        -12    1    6    6    0    0 -0.14640004138E+03  0.90688485700E+02 -0.11748596543E+03  0.20847140242E+03  0.00000000000E+00 0.  1.
</event>
<event>
12    1  0.8053217E-002  0.2022485E+03  0.7818608E-02  0.1148389E+00
         21   -1    0    0  503  502  0.00000000000E+00  0.00000000000E+00  0.45430371145E+03  0.45430371145E+03  0.00000000000E+00 0.  1.
         21   -1    0    0  501  503 -0.00000000000E+00 -0.00000000000E+00 -0.92395721910E+02  0.92395721910E+02  0.00000000000E+00 0. -1.
          6    2    1    2  501    0 -0.47171311865E+02  0.89176393803E+02  0.12674188763E+03  0.23652602175E+03  0.17234700755E+03 0.  0.
         24    2    3    3    0    0 -0.57132281653E+02  0.12580200274E+03  0.87459560094E+02  0.18170041272E+03  0.79218835070E+02 0.  0.
         -6    2    1    2    0  502  0.47171311865E+02 -0.89176393803E+02  0.23516610191E+03  0.31017341161E+03  0.17529086657E+03 0.  0.
        -24    2    5    5    0    0 -0.32023098036E+02 -0.37023727231E+01  0.10153130429E+03  0.13280962733E+03  0.79313334237E+02 0.  0.
          5    1    3    3  501    0  0.99609697879E+01 -0.36625608940E+02  0.39282327536E+02  0.54825609034E+02  0.47000000000E+01 0. -1.
        -11    1    4    4    0    0 -0.13435709676E+02  0.15584686499E+02  0.55075861285E+02  0.58794142941E+02  0.00000000000E+00 0.  1.
         12    1    4    4    0    0 -0.43696571976E+02  0.11021731624E+03  0.32383698809E+02  0.12290626978E+03  0.00000000000E+00 0. -1.
         -5    1    5    5    0  502  0.79194409900E+02 -0.85474021080E+02  0.13363479762E+03  0.17736378428E+03  0.47000000000E+01 0.  1.
         11    1    6    6    0    0 -0.71894330576E+01  0.31626151498E+02  0.14241349767E+02  0.35421991043E+02  0.00000000000E+00 0. -1.
        -12    1    6    6    0    0 -0.24833664978E+02 -0.35328524221E+02  0.87289954527E+02  0.97387636285E+02  0.00000000000E+00 0.  1.
</event>
<event>
12    1  0.8053217E-002  0.1828453E+03  0.7818608E-02  0.1165327E+00
         21   -1    0    0  501  502  0.00000000000E+00  0.00000000000E+00  0.61061938287E+03  0.61061938287E+03  0.00000000000E+00 0. -1.
         21   -1    0    0  502  503 -0.00000000000E+00 -0.00000000000E+00 -0.76197529917E+02  0.76197529917E+02  0.00000000000E+00 0. -1.
         -6    2    1    2    0  503  0.50262975438E+02  0.30079350553E+02  0.83148595171E+02  0.19990833527E+03  0.17210031842E+03 0.  0.
        -24    2    3    3    0    0 -0.35772236626E+01  0.51770568428E+02  0.14158028262E+02  0.10962509045E+03  0.95520795681E+02 0.  0.
          6    2    1    2  501    0 -0.50262975438E+02 -0.30079350553E+02  0.45127325778E+03  0.48690857752E+03  0.17320876319E+03 0.  0.
         24    2    5    5    0    0 -0.10085091017E+03 -0.29914753798E+02  0.30123664000E+03  0.32850326540E+03  0.78135033902E+02 0.  0.
          5    1    5    5  501    0  0.50587934733E+02 -0.16459675505E+00  0.15003661778E+03  0.15840531212E+03  0.47000000000E+01 0. -1.
        -13    1    6    6    0    0 -0.37680152205E+02  0.26666934722E+02  0.11135226033E+03  0.12054146655E+03  0.00000000000E+00 0.  1.
         14    1    6    6    0    0 -0.63170757965E+02 -0.56581688521E+02  0.18988437967E+03  0.20796179885E+03  0.00000000000E+00 0. -1.
         -5    1    3    3    0  503  0.53840199100E+02 -0.21691217875E+02  0.68990566909E+02  0.90283244816E+02  0.47000000000E+01 0.  1.
         11    1    4    4    0    0 -0.54967599143E+01  0.58153046547E+02 -0.29515577289E+02  0.65445859265E+02  0.00000000000E+00 0. -1.
        -12    1    4    4    0    0  0.19195362517E+01 -0.63824781187E+01  0.43673605551E+02  0.44179231186E+02  0.00000000000E+00 0.  1.
</event>
<event>
12    1  0.8053217E-002  0.1797647E+03  0.7818608E-02  0.1168127E+00
         21   -1    0    0  503  502  0.00000000000E+00  0.00000000000E+00  0.16816613623E+03  0.16816613623E+03  0.00000000000E+00 0. -1.
         21   -1    0    0  501  503 -0.00000000000E+00 -0.00000000000E+00 -0.19419974590E+03  0.19419974590E+03  0.00000000000E+00 0. -1.
          6    2    1    2  501    0 -0.52074380464E+02  0.56750557855E+01 -0.33420233823E+02  0.18284495051E+03  0.17196341628E+03 0.  0.
         24    2    3    3    0    0 -0.90977121901E+01  0.66397402517E+02 -0.29479322851E+02  0.10820033793E+03  0.79667428873E+02 0.  0.
         -6    2    1    2    0  502  0.52074380464E+02 -0.56750557855E+01  0.73866241580E+01  0.17952093162E+03  0.17154957101E+03 0.  0.
        -24    2    5    5    0    0 -0.31089720750E+02 -0.24766726845E+02 -0.16136732843E+02  0.90885735677E+02  0.80124037017E+02 0.  0.
          5    1    3    3  501    0 -0.42976668274E+02 -0.60722346731E+02 -0.39409109714E+01  0.74644612584E+02  0.47000000000E+01 0. -1.
        -11    1    4    4    0    0 -0.24306017255E+02 -0.38907870512E+01  0.95192204585E+01  0.26391973340E+02  0.00000000000E+00 0.  1.
         12    1    4    4    0    0  0.15208305065E+02  0.70288189568E+02 -0.38998543310E+02  0.81808364585E+02  0.00000000000E+00 0. -1.
         -5    1    5    5    0  502  0.83164101214E+02  0.19091671059E+02  0.23523357001E+02  0.88635195939E+02  0.47000000000E+01 0.  1.
         11    1    6    6    0    0  0.20672350959E+02 -0.30536529612E+02 -0.20551589320E+01  0.36933039587E+02  0.00000000000E+00 0. -1.
        -12    1    6    6    0    0 -0.51762071709E+02  0.57698027671E+01 -0.14081573911E+02  0.53952696090E+02  0.00000000000E+00 0.  1.
</event>
<event>
12    1  0.8053217E-002  0.2015474E+03  0.7818608E-02  0.1148813E+00
         21   -1    0    0  503  502  0.00000000000E+00  0.00000000000E+00  0.25488811347E+02  0.25488811347E+02  0.00000000000E+00 0. -1.
         21   -1    0    0  501  503 -0.00000000000E+00 -0.00000000000E+00 -0.16077800716E+04  0.16077800716E+04  0.00000000000E+00 0. -1.
          6    2    1    2  501    0  0.40443168886E+02 -0.95821726006E+02 -0.90259992177E+03  0.92482861550E+03  0.17263804962E+03 0.  0.
         24    2    3    3    0    0  0.28444060564E+02  0.10325939761E+02 -0.53438962937E+03  0.54140689600E+03  0.81446064673E+02 0.  0.
         -6    2    1    2    0  502 -0.40443168886E+02  0.95821726006E+02 -0.67969133849E+03  0.70844026746E+03  0.17055745030E+03 0.  0.
        -24    2    5    5    0    0  0.18596590772E+02  0.42708954355E+02 -0.53481065180E+03  0.54315517101E+03  0.82614880881E+02 0.  0.
          5    1    3    3  501    0  0.11999108322E+02 -0.10614766577E+03 -0.36821029240E+03  0.38342171949E+03  0.47000000000E+01 0. -1.
        -13    1    4    4    0    0  0.38460009657E+02  0.56917680962E+01 -0.10649522846E+03  0.11337020001E+03  0.00000000000E+00 0.  1.
         14    1    4    4    0    0 -0.10015949094E+02  0.46341716648E+01 -0.42789440091E+03  0.42803669599E+03  0.00000000000E+00 0. -1.
         -5    1    5    5    0  502 -0.59039759658E+02  0.53112771651E+02 -0.14488068670E+03  0.16528509645E+03  0.47000000000E+01 0.  1.
         13    1    6    6    0    0 -0.25546258948E+02  0.36194951168E+02 -0.36100394952E+03  0.36371216285E+03  0.00000000000E+00 0. -1.
        -14    1    6    6    0    0  0.44142849720E+02  0.65140031872E+01 -0.17380670228E+03  0.17944300815E+03  0.00000000000E+00 0.  1.
</event>
<event>
12    1  0.8053217E-002  0.2277683E+03  0.7818608E-02  0.1128261E+00
         21   -1    0    0  503  502  0.00000000000E+00  0.00000000000E+00  0.38160658268E+03  0.38160658268E+03  0.00000000000E+00 0.  1.
         21   -1    0    0  501  503 -0.00000000000E+00 -0.00000000000E+00 -0.14022310773E+03  0.14022310773E+03  0.00000000000E+00 0. -1.
          6    2    1    2  501    0 -0.14910359655E+03 -0.75402929556E+01  0.74347947711E+02  0.23937747768E+03  0.17171261156E+03 0.  0.
         24    2    3    3    0    0 -0.42241292017E+02  0.45139386008E+01 -0.21120483586E+02  0.95498472946E+02  0.82880523135E+02 0.  0.
         -6    2    1    2    0  502  0.14910359655E+03  0.75402929556E+01  0.16703552724E+03  0.28245221273E+03  0.17201641373E+03 0.  0.
        -24    2    5    5    0    0  0.10829708973E+03  0.56522711497E+02  0.60051504501E+02  0.15782428870E+03  0.79870184387E+02 0.  0.
          5    1    3    3  501    0 -0.10686230453E+03 -0.12054231556E+02  0.95468431297E+02  0.14387900473E+03  0.47000000000E+01 0. -1.
        -13    1    4    4    0    0 -0.59185936255E+02 -0.18756653307E+02 -0.44791808142E+01  0.62248294390E+02  0.00000000000E+00 0.  1.
         14    1    4    4    0    0  0.16944644238E+02  0.23270591908E+02 -0.16641302772E+02  0.33250178556E+02  0.00000000000E+00 0. -1.
         -5    1    5    5    0  502  0.40806506823E+02 -0.48982418542E+02  0.10698402274E+03  0.12462792402E+03  0.47000000000E+01 0.  1.
         13    1    6    6    0    0  0.57955054136E+02 -0.87448430372E+01  0.52568460713E+01  0.58846367860E+02  0.00000000000E+00 0. -1.
        -14    1    6    6    0    0  0.50342035590E+02  0.65267554535E+02  0.54794658430E+02  0.98977920844E+02  0.00000000000E+00 0.  1.
</event>
<event>
12    1  0.8053217E-002  0.2178023E+03  0.7818608E-02  0.1135584E+00
         21   -1    0    0  503  502  0.00000000000E+00  0.00000000000E+00  0.82049498466E+03  0.82049498466E+03  0.00000000000E+00 0. -1.
         21   -1    0    0  501  503 -0.00000000000E+00 -0.00000000000E+00 -0.10013144200E+03  0.10013144200E+03  0.00000000000E+00 0. -1.
          6    2    1    2  501    0 -0.91010675827E+02 -0.98130306851E+02  0.60817755814E+02  0.22613413756E+03  0.17182941690E+03 0.  0.
         24    2    3    3    0    0 -0.97561065669E+02 -0.88143289389E+02  0.10226026373E+03  0.18274958286E+03  0.75185420778E+02 0.  0.
         -6    2    1    2    0  502  0.91010675827E+02  0.98130306851E+02  0.65954578684E+03  0.69449228910E+03  0.17148292756E+03 0.  0.
        -24    2    5    5    0    0  0.74482361096E+02  0.61717916146E+02  0.63498144421E+03  0.64732721395E+03  0.80463433600E+02 0.  0.
          5    1    3    3  501    0  0.65503898420E+01 -0.99870174628E+01 -0.41442507913E+02  0.43384554706E+02  0.47000000000E+01 0. -1.
        -13    1    4    4    0    0 -0.23381939610E+02 -0.65725136319E+02  0.69951881024E+02  0.98791569999E+02  0.00000000000E+00 0.  1.
         14    1    4    4    0    0 -0.74179126058E+02 -0.22418153069E+02  0.32308382703E+02  0.83958012856E+02  0.00000000000E+00 0. -1.
         -5    1    5    5    0  502  0.16528314731E+02  0.36412390705E+02  0.24564342631E+02  0.47165075147E+02  0.47000000000E+01 0.  1.
         13    1    6    6    0    0  0.39847289011E+02  0.77883858825E+02  0.42900274016E+03  0.43783222011E+03  0.00000000000E+00 0. -1.
        -14    1    6    6    0    0  0.34635072085E+02 -0.16165942679E+02  0.20597870405E+03  0.20949499384E+03  0.00000000000E+00 0.  1.
</event>
<event>
12    1  0.8053217E-002  0.1819706E+03  0.7818608E-02  0.1166279E+00
         21   -1    0    0  501  502  0.00000000000E+00  0.00000000000E+00  0.17473036532E+03  0.17473036532E+03  0.00000000000E+00 0.  1.
         21   -1    0    0  502  503 -0.00000000000E+00 -0.00000000000E+00 -0.20498175725E+03  0.20498175725E+03  0.00000000000E+00 0.  1.
         -6    2    1    2    0  503  0.54590610416E+02 -0.18708388849E+02 -0.69976587066E+02  0.19496163363E+03  0.17257803247E+03 0.  0.
        -24    2    3    3    0    0  0.26018820989E+02 -0.75241272112E+02 -0.21876459494E+02  0.11528713135E+03  0.80463128824E+02 0.  0.
          6    2    1    2  501    0 -0.54590610416E+02  0.18708388849E+02  0.39725195135E+02  0.18475048894E+03  0.17095178699E+03 0.  0.
         24    2    5    5    0    0 -0.63620800180E+02  0.69898829222E+02  0.45422069394E+02  0.13224763293E+03  0.80578033516E+02 0.  0.
          5    1    5    5  501    0  0.90301897640E+01 -0.51190440373E+02 -0.56968742599E+01  0.52502856009E+02  0.47000000000E+01 0. -1.
        -11    1    6    6    0    0 -0.12731964726E+02  0.64282944710E+02  0.27348357755E+01  0.65588712696E+02  0.00000000000E+00 0.  1.
         12    1    6    6    0    0 -0.50888835454E+02  0.56158845123E+01  0.42687233619E+02  0.66658920234E+02  0.00000000000E+00 0. -1.
         -5    1    3    3    0  503  0.28571789427E+02  0.56532883263E+02 -0.48100127572E+02  0.79674502280E+02  0.47000000000E+01 0.  1.
         13    1    4    4    0    0 -0.11854904934E+02 -0.17214611759E+02  0.24273471077E+02  0.32032530764E+02  0.00000000000E+00 0. -1.
        -14    1    4    4    0    0  0.37873725923E+02 -0.58026660354E+02 -0.46149930572E+02  0.83254600586E+02  0.00000000000E+00 0.  1.
</event>
<event>
12    1  0.8053217E-002  0.2301389E+03  0.7818608E-02  0.1126878E+00
         21   -1    0    0  501  502  0.00000000000E+00  0.00000000000E+00  0.76960528841E+02  0.76960528841E+02  0.00000000000E+00 0. -1.
         21   -1    0    0  502  503 -0.00000000000E+00 -0.00000000000E+00 -0.68281195021E+03  0.68281195021E+03  0.00000000000E+00 0.  1.
         -6    2    1    2    0  503  0.81824503257E+02 -0.12727584411E+03 -0.29371931866E+03  0.37197052006E+03  0.17087024260E+03 0.  0.
        -24    2    3    3    0    0  0.11947231620E+03 -0.77375334431E+02 -0.18114685133E+03  0.24312150342E+03  0.77674364896E+02 0.  0.
          6    2    1    2  501    0 -0.81824503257E+02  0.12727584411E+03 -0.31213210271E+03  0.38780195900E+03  0.17340565168E+03 0.  0.
         24    2    5    5    0    0 -0.10631817531E+03  0.10985653874E+03 -0.31319413048E+03  0.35736201693E+03  0.79025529276E+02 0.  0.
          5    1    5    5  501    0  0.24493672049E+02  0.17419305367E+02  0.10620277683E+01  0.30439942064E+02  0.47000000000E+01 0. -1.
        -11    1    6    6    0    0 -0.10025138861E+03  0.12153963736E+03 -0.27463301686E+03  0.31661572658E+03  0.00000000000E+00 0.  1.
         12    1    6    6    0    0 -0.60667866922E+01 -0.11683098620E+02 -0.38561113621E+02  0.40746290356E+02  0.00000000000E+00 0. -1.
         -5    1    3    3    0  503 -0.37647812948E+02 -0.49900509680E+02 -0.11257246733E+03  0.12884901663E+03  0.47000000000E+01 0.  1.
         11    1    4    4    0    0  0.55436187573E+02  0.16095112979E+01 -0.36807114387E+02  0.66562189633E+02  0.00000000000E+00 0. -1.
        -12    1    4    4    0    0  0.64036128632E+02 -0.78984845728E+02 -0.14433973695E+03  0.17655931379E+03  0.00000000000E+00 0.  1.
</event>
<event>
12    1  0.8053217E-002  0.2186901E+03  0.7818608E-02  0.1135650E+00
         21   -1    0    0  501  502  0.00000000000E+00  0.00000000000E+00  0.11687187469E+03  0.11687187469E+03  0.00000000000E+00 0. -1.
         21   -1    0    0  502  503 -0.00000000000E+00 -0.00000000000E+00 -0.42433372455E+03  0.42433372455E+03  0.00000000000E+00 0. -1.
         -6    2    1    2    0  503 -0.12546358584E+03 -0.42657373378E+02 -0.21512093841E+03  0.30381939110E+03  0.16872593574E+03 0.  0.
        -24    2    3    3    0    0 -0.14434178731E+03 -0.71946735677E+02 -0.18693058376E+03  0.25875233740E+03  0.77452208640E+02 0.  0.
          6    2    1    2  501    0  0.12546358584E+03  0.42657373378E+02 -0.92340911440E+02  0.23738620813E+03  0.17396725270E+03 0.  0.
         24    2    5    5    0    0  0.59040555215E+02  0.92826178025E+02 -0.64108532683E+02  0.14936300001E+03  0.78082746646E+02 0.  0.
          5    1    5    5  501    0  0.66423030628E+02 -0.50168804647E+02 -0.28232378757E+02  0.88023208120E+02  0.47000000000E+01 0. -1.
        -11    1    6    6    0    0  0.26592108835E+02  0.64461251308E+02 -0.77480065422E+02  0.10423796674E+03  0.00000000000E+00 0.  1.
         12    1    6    6    0    0  0.32448446380E+02  0.28364926717E+02  0.13371532739E+02  0.45125033274E+02  0.00000000000E+00 0. -1.
         -5    1    3    3    0  503  0.18878201471E+02  0.29289362299E+02 -0.28190354649E+02  0.45067053707E+02  0.47000000000E+01 0.  1.
         11    1    4    4    0    0 -0.23475659283E+01  0.10264191806E+02 -0.29665661304E+02  0.31478820813E+02  0.00000000000E+00 0. -1.
        -12    1    4    4    0    0 -0.14199422139E+03 -0.82210927483E+02 -0.15726492246E+03  0.22727351658E+03  0.00000000000E+00 0.  1.
</event>
<event>
12    1  0.8053217E-002  0.2790021E+03  0.7818608E-02  0.1096285E+00
         21   -1    0    0  503  502  0.00000000000E+00  0.00000000000E+00  0.14328499268E+04  0.14328499268E+04  0.00000000000E+00 0.  1.
         21   -1    0    0  501  503 -0.00000000000E+00 -0.00000000000E+00 -0.61312664179E+02  0.61312664179E+02  0.00000000000E+00 0. -1.
          6    2    1    2  501    0  0.15440574369E+03 -0.15642239114E+03  0.93882406418E+03  0.97930056969E+03  0.17125969804E+03 0.  0.
         24    2    3    3    0    0  0.11047049913E+03 -0.12662355605E+03  0.88230293966E+03  0.90161528277E+03  0.78831368535E+02 0.  0.
         -6    2    1    2    0  502 -0.15440574369E+03  0.15642239114E+03  0.43271319849E+03  0.51486202134E+03  0.17185194424E+03 0.  0.
        -24    2    5    5    0    0 -0.98456763283E+02  0.13858842092E+03  0.41175081898E+03  0.45233322592E+03  0.78524682049E+02 0.  0.
          5    1    3    3  501    0  0.43935244555E+02 -0.29798835088E+02  0.56521124523E+02  0.77685286922E+02  0.47000000000E+01 0. -1.
        -11    1    4    4    0    0  0.10834124838E+03 -0.12631013760E+03  0.88357925090E+03  0.89911310166E+03  0.00000000000E+00 0.  1.
         12    1    4    4    0    0  0.21292507507E+01 -0.31341844799E+00 -0.12763112429E+01  0.25021811029E+01  0.00000000000E+00 0. -1.
         -5    1    5    5    0  502 -0.55948980403E+02  0.17833970222E+02  0.20962379507E+02  0.62528795420E+02  0.47000000000E+01 0.  1.
         13    1    6    6    0    0  0.68217721664E+01  0.39567489362E+01  0.67840518550E+02  0.68297352765E+02  0.00000000000E+00 0. -1.
        -14    1    6    6    0    0 -0.10527853545E+03  0.13463167198E+03  0.34391030043E+03  0.38403587315E+03  0.00000000000E+00 0.  1.
</event>
<event>
12    1  0.8053217E-002  0.2123772E+03  0.7818608E-02  0.1140113E+00
         21   -1    0    0  501  502  0.00000000000E+00  0.00000000000E+00  0.10012663712E+03  0.10012663712E+03  0.00000000000E+00 0. -1.
         21   -1    0    0  502  503 -0.00000000000E+00 -0.00000000000E+00 -0.49747086819E+03  0.49747086819E+03  0.00000000000E+00 0. -1.
         -6    2    1    2    0  503 -0.64675933308E+02  0.10705147066E+03 -0.29569369138E+03  0.36405881528E+03  0.17164226793E+03 0.  0.
        -24    2    3    3    0    0 -0.48688592992E+02  0.15584384859E+02 -0.81158245503E+02  0.13024399459E+03  0.88110074196E+02 0.  0.
          6    2    1    2  501    0  0.64675933308E+02 -0.10705147066E+03 -0.10165053968E+03  0.23353869003E+03  0.16901033638E+03 0.  0.
         24    2    5    5    0    0 -0.33519334665E+02 -0.53449553334E+02 -0.66919911174E+02  0.11630480947E+03  0.71190825580E+02 0.  0.
          5    1    5    5  501    0  0.98195267973E+02 -0.53601917329E+02 -0.34730628507E+02  0.11723388056E+03  0.47000000000E+01 0. -1.
        -11    1    6    6    0    0 -0.89038040618E+01  0.57373232662E+01 -0.48451502813E+02  0.49595793470E+02  0.00000000000E+00 0.  1.
         12    1    6    6    0    0 -0.24615530603E+02 -0.59186876600E+02 -0.18468408361E+02  0.66709016002E+02  0.00000000000E+00 0. -1.
         -5    1    3    3    0  503 -0.15987340316E+02  0.91467085804E+02 -0.21453544588E+03  0.23381482069E+03  0.47000000000E+01 0.  1.
         11    1    4    4    0    0  0.15042246432E+02 -0.41738945827E+01 -0.57292042185E+02  0.59380709590E+02  0.00000000000E+00 0. -1.
        -12    1    4    4    0    0 -0.63730839424E+02  0.19758279442E+02 -0.23866203318E+02  0.70863285000E+02  0.00000000000E+00 0.  1.
</event>
<event>
12    1  0.8053217E-002  0.2887088E+03  0.7818608E-02  0.1091193E+00
         21   -1    0    0  503  502  0.00000000000E+00  0.00000000000E+00  0.71483416410E+03  0.71483416410E+03  0.00000000000E+00 0.  1.
         21   -1    0    0  501  503 -0.00000000000E+00 -0.00000000000E+00 -0.31435140415E+03  0.31435140415E+03  0.00000000000E+00 0. -1.
          6    2    1    2  501    0  0.17498430709E+03 -0.15080504552E+03 -0.20859434626E+03  0.35514723204E+03  0.17104468904E+03 0.  0.
         24    2    3    3    0    0  0.44008844683E+02 -0.23664327126E+02 -0.11887705315E+03  0.15170039203E+03  0.79902918515E+02 0.  0.
         -6    2    1    2    0  502 -0.17498430709E+03  0.15080504552E+03  0.60907710621E+03  0.67403833621E+03  0.17317935180E+03 0.  0.
        -24    2    5    5    0    0 -0.18366853307E+02  0.52137019438E+02  0.14002015205E+03  0.16975575428E+03  0.78458670854E+02 0.  0.
          5    1    3    3  501    0  0.13097546241E+03 -0.12714071839E+03 -0.89717293108E+02  0.20344684000E+03  0.47000000000E+01 0. -1.
        -11    1    4    4    0    0  0.19155047427E+02 -0.45765621297E+02 -0.32940659940E+02  0.59552455969E+02  0.00000000000E+00 0.  1.
         12    1    4    4    0    0  0.24853797256E+02  0.22101294171E+02 -0.85936393213E+02  0.92147936062E+02  0.00000000000E+00 0. -1.
         -5    1    5    5    0  502 -0.15661745378E+03  0.98668026079E+02  0.46905695416E+03  0.50428258194E+03  0.47000000000E+01 0.  1.
         11    1    6    6    0    0 -0.70200202029E+01  0.10287757042E+01  0.10832311069E+03  0.10855521808E+03  0.00000000000E+00 0. -1.
        -12    1    6    6    0    0 -0.11346833104E+02  0.51108243733E+02  0.31697041360E+02  0.61200536190E+02  0.00000000000E+00 0.  1.
</event>
<event>
12    1  0.8053217E-002  0.2692810E+03  0.7818608E-02  0.1103161E+00
         21   -1    0    0  503  502  0.00000000000E+00  0.00000000000E+00  0.34622928410E+03  0.34622928410E+03  0.00000000000E+00 0.  1.
         21   -1    0    0  501  503 -0.00000000000E+00 -0.00000000000E+00 -0.70797615118E+03  0.70797615118E+03  0.00000000000E+00 0. -1.
          6    2    1    2  501    0  0.58680867064E+02  0.18455132218E+03 -0.62560681177E+03  0.67719834150E+03  0.17236901147E+03 0.  0.
         24    2    3    3    0    0  0.93575798992E+02  0.17142419596E+03 -0.44855655746E+03  0.49620425245E+03  0.82903496896E+02 0.  0.
         -6    2    1    2    0  502 -0.58680867064E+02 -0.18455132218E+03  0.26385994469E+03  0.37700709378E+03  0.18710864136E+03 0.  0.
        -24    2    5    5    0    0  0.13186202149E+02 -0.17846191137E+03  0.20645982476E+03  0.28470963808E+03  0.80071149846E+02 0.  0.
          5    1    3    3  501    0 -0.34894931928E+02  0.13127126222E+02 -0.17705025431E+03  0.18099408904E+03  0.47000000000E+01 0. -1.
        -11    1    4    4    0    0 -0.76524585003E+01  0.22010074660E+02 -0.18300804637E+02  0.29629764731E+02  0.00000000000E+00 0.  1.
         12    1    4    4    0    0  0.10122825749E+03  0.14941412130E+03 -0.43025575282E+03  0.46657448772E+03  0.00000000000E+00 0. -1.
         -5    1    5    5    0  502 -0.71867069213E+02 -0.60894108109E+01  0.57400119928E+02  0.92297455702E+02  0.47000000000E+01 0.  1.
         11    1    6    6    0    0  0.47079306360E+01  0.72643158086E+01  0.31589128750E+01  0.92148589567E+01  0.00000000000E+00 0. -1.
        -12    1    6    6    0    0  0.84782715131E+01 -0.18572622718E+03  0.20330091189E+03  0.27549477912E+03  0.00000000000E+00 0.  1.
</event>
<event>
12    1  0.8053217E-002  0.1929006E+03  0.7818608E-02  0.1156245E+00
         21   -1    0    0  503  502  0.00000000000E+00  0.00000000000E+00  0.59675330007E+03  0.59675330007E+03  0.00000000000E+00 0.  1.
         21   -1    0    0  501  503 -0.00000000000E+00 -0.00000000000E+00 -0.10999630397E+03  0.10999630397E+03  0.00000000000E+00 0.  1.
          6    2    1    2  501    0 -0.74884216915E+02  0.39789884677E+02  0.47785902496E+03  0.51532501406E+03  0.17326206023E+03 0.  0.
         24    2    3    3    0    0 -0.98759464841E+02 -0.19810807299E+02  0.34406624470E+03  0.36684987137E+03  0.77790406865E+02 0.  0.
         -6    2    1    2    0  502  0.74884216915E+02 -0.39789884677E+02  0.88979711333E+01  0.19142458998E+03  0.17138646065E+03 0.  0.
        -24    2    5    5    0    0  0.12734936168E+02 -0.55112446817E+02 -0.45598969584E+02  0.10722648694E+03  0.78858690586E+02 0.  0.
          5    1    3    3  501    0  0.23875247926E+02  0.59600691976E+02  0.13379278026E+03  0.14847514269E+03  0.47000000000E+01 0. -1.
        -11    1    4    4    0    0 -0.86477967060E+02  0.17268201398E+02  0.24165241924E+03  0.25724020154E+03  0.00000000000E+00 0.  1.
         12    1    4    4    0    0 -0.12281497781E+02 -0.37079008697E+02  0.10241382546E+03  0.10960966983E+03  0.00000000000E+00 0. -1.
         -5    1    5    5    0  502  0.62149280747E+02  0.15322562140E+02  0.54496940718E+02  0.84198103040E+02  0.47000000000E+01 0.  1.
         11    1    6    6    0    0  0.12229738570E+02  0.12113460526E+02  0.10069321956E+02  0.19942258550E+02  0.00000000000E+00 0. -1.
        -12    1    6    6    0    0  0.50519759738E+00 -0.67225907343E+02 -0.55668291540E+02  0.87284228390E+02  0.00000000000E+00 0.  1.
</event>
<event>
12    1  0.8053217E-002  0.1799449E+03  0.7818608E-02  0.1168649E+00
         21   -1    0    0  501  502  0.00000000000E+00  0.00000000000E+00  0.54739440543E+03  0.54739440543E+03  0.00000000000E+00 0.  1.
         21   -1    0    0  502  503 -0.00000000000E+00 -0.00000000000E+00 -0.88556634707E+02  0.88556634707E+02  0.00000000000E+00 0.  1.
         -6    2    1    2    0  503 -0.13519673670E+02 -0.36615635453E+02  0.41554661754E+02  0.18152245158E+03  0.17233723968E+03 0.  0.
        -24    2    3    3    0    0  0.53131019606E+02 -0.34887855283E+02 -0.99450247293E+00  0.10228974675E+03  0.80138227861E+02 0.  0.
          6    2    1    2  501    0  0.13519673670E+02  0.36615635453E+02  0.41728310897E+03  0.45442858855E+03  0.17566064650E+03 0.  0.
         24    2    5    5    0    0  0.56736294832E+02 -0.21672048507E+02  0.30060596317E+03  0.31694849254E+03  0.80023227861E+02 0.  0.
          5    1    5    5  501    0 -0.43216621162E+02  0.58287683960E+02  0.11667714580E+03  0.13748009601E+03  0.47000000000E+01 0. -1.
        -11    1    6    6    0    0 -0.31884106286E+01 -0.11978287225E+02  0.23985482477E+01  0.12625306368E+02  0.00000000000E+00 0.  1.
         12    1    6    6    0    0  0.59924705460E+02 -0.96937612823E+01  0.29820741492E+03  0.30432318618E+03  0.00000000000E+00 0. -1.
         -5    1    3    3    0  503 -0.66650693276E+02 -0.17277801702E+01  0.42549164227E+02  0.79232704831E+02  0.47000000000E+01 0.  1.
         11    1    4    4    0    0 -0.11334213902E+02 -0.24478611395E+02 -0.20787590816E+02  0.34055700735E+02  0.00000000000E+00 0. -1.
        -12    1    4    4    0    0  0.64465233508E+02 -0.10409243888E+02  0.19793088343E+02  0.68234046016E+02  0.00000000000E+00 0.  1.
</event>
<event>
12    1  0.8053217E-002  0.2648588E+03  0.7818608E-02  0.1104358E+00
         21   -1    0    0  501  502  0.00000000000E+00  0.00000000000E+00  0.21578129856E+03  0.21578129856E+03  0.00000000000E+00 0. -1.
         21   -1    0    0  502  503 -0.00000000000E+00 -0.00000000000E+00 -0.99961318175E+03  0.99961318175E+03  0.00000000000E+00 0. -1.
         -6    2    1    2    0  503  0.71598114767E+02  0.18841401477E+03 -0.89125138896E+03  0.92958138832E+03  0.17078169744E+03 0.  0.
        -24    2    3    3    0    0 -0.45485265074E+01  0.15237546126E+03 -0.46134690159E+03  0.49147518363E+03  0.73945400385E+02 0.  0.
          6    2    1    2  501    0 -0.71598114767E+02 -0.18841401477E+03  0.10741950578E+03  0.28581309200E+03  0.17182561607E+03 0.  0.
         24    2    5    5    0    0  0.20255526626E+02 -0.93502895595E+02  0.14451562229E+02  0.12422614789E+03  0.77911554498E+02 0.  0.
          5    1    5    5  501    0 -0.91853641393E+02 -0.94911119170E+02  0.92967943546E+02  0.16158694411E+03  0.47000000000E+01 0. -1.
        -11    1    6    6    0    0 -0.76057343778E+01 -0.37040158314E+02 -0.29061589770E+02  0.47690633496E+02  0.00000000000E+00 0.  1.
         12    1    6    6    0    0  0.27861261003E+02 -0.56462737282E+02  0.43513151999E+02  0.76535514390E+02  0.00000000000E+00 0. -1.
         -5    1    3    3    0  503  0.76146641274E+02  0.36038553510E+02 -0.42990448738E+03  0.43810620468E+03  0.47000000000E+01 0.  1.
         11    1    4    4    0    0  0.19721685591E+02  0.38656156262E+02 -0.21134219791E+03  0.21575163479E+03  0.00000000000E+00 0. -1.
        -12    1    4    4    0    0 -0.24270212098E+02  0.11371930499E+03 -0.25000470368E+03  0.27572354884E+03  0.00000000000E+00 0.  1.
</event>
<event>
12    1  0.8053217E-002  0.2663063E+03  0.7818608E-02  0.1103485E+00
         21   -1    0    0  503  502  0.00000000000E+00  0.00000000000E+00  0.23172090497E+03  0.23172090497E+03  0.00000000000E+00 0. -1.
         21   -1    0    0  501  503 -0.00000000000E+00 -0.00000000000E+00 -0.30990055980E+03  0.30990055980E+03  0.00000000000E+00 0. -1.
          6    2    1    2  501    0 -0.19719772100E+03  0.47739271162E+02 -0.71465658929E+02  0.27572877958E+03  0.17249069628E+03 0.  0.
         24    2    3    3    0    0 -0.12765015343E+03  0.24976822452E+02  0.25032838271E+02  0.15453041661E+03  0.79590221346E+02 0.  0.
         -6    2    1    2    0  502  0.19719772100E+03 -0.47739271162E+02 -0.67139959084E+01  0.26589268519E+03  0.17172030490E+03 0.  0.
        -24    2    5    5    0    0  0.13205890872E+03 -0.59851798771E+02  0.56010940006E+02  0.17453467637E+03  0.79393542964E+02 0.  0.
          5    1    3    3  501    0 -0.69547567572E+02  0.22762448710E+02 -0.96498497200E+02  0.12119836298E+03  0.47000000000E+01 0. -1.
        -13    1    4    4    0    0 -0.40761112070E+01 -0.62243294102E+01  0.26031949331E+02  0.27074330004E+02  0.00000000000E+00 0.  1.
         14    1    4    4    0    0 -0.12357404222E+03  0.31201151862E+02 -0.99911106018E+00  0.12745608660E+03  0.00000000000E+00 0. -1.
         -5    1    5    5    0  502  0.65138812279E+02  0.12112527609E+02 -0.62724935915E+02  0.91358008821E+02  0.47000000000E+01 0.  1.
         11    1    6    6    0    0  0.11905746454E+03 -0.18373137357E+02  0.31029155270E+02  0.12439879628E+03  0.00000000000E+00 0. -1.
        -12    1    6    6    0    0  0.13001444186E+02 -0.41478661415E+02  0.24981784736E+02  0.50135880089E+02  0.00000000000E+00 0.  1.
</event>
<event>
12    1  0.8053217E-002  0.2360718E+03  0.7818608E-02  0.1124571E+00
         21   -1    0    0  503  502  0.00000000000E+00  0.00000000000E+00  0.21965426544E+03  0.21965426544E+03  0.00000000000E+00 0.  1.
         21   -1    0    0  501  503 -0.00000000000E+00 -0.00000000000E+00 -0.26894468743E+03  0.26894468743E+03  0.00000000000E+00 0. -1.
          6    2    1    2  501    0 -0.44144153185E+02 -0.13547189023E+03 -0.10308168382E+03  0.24647629937E+03  0.17269450862E+03 0.  0.
         24    2    3    3    0    0  0.37623043871E+02 -0.10158056213E+03 -0.66768993084E+02  0.15068904477E+03  0.80715461616E+02 0.  0.
         -6    2    1    2    0  502  0.44144153185E+02  0.13547189023E+03  0.53791261833E+02  0.24212265350E+03  0.18822470663E+03 0.  0.
        -24    2    5    5    0    0  0.98660358004E+02  0.12241354567E+03  0.22837940272E+02  0.17791412552E+03  0.80080722632E+02 0.  0.
          5    1    3    3  501    0 -0.81767197056E+02 -0.33891328103E+02 -0.36312690733E+02  0.95787254597E+02  0.47000000000E+01 0. -1.
        -13    1    4    4    0    0  0.35011464532E+02 -0.16650265101E+01 -0.14965141307E+02  0.38112077040E+02  0.00000000000E+00 0.  1.
         14    1    4    4    0    0  0.26115793395E+01 -0.99915535616E+02 -0.51803851777E+02  0.11257696773E+03  0.00000000000E+00 0. -1.
         -5    1    5    5    0  502 -0.54516204819E+02  0.13058344559E+02  0.30953321561E+02  0.64208527986E+02  0.47000000000E+01 0.  1.
         11    1    6    6    0    0  0.93734992667E+02  0.13371670872E+03  0.25562079921E+02  0.16528710467E+03  0.00000000000E+00 0. -1.
        -12    1    6    6    0    0  0.49253653361E+01 -0.11303163048E+02 -0.27241396491E+01  0.12627020845E+02  0.00000000000E+00 0.  1.
</event>
<event>
12    1  0.8053217E-002  0.1858274E+03  0.7818608E-02  0.1163334E+00
         21   -1    0    0  501  502  0.00000000000E+00  0.00000000000E+00  0.52560800765E+03  0.52560800765E+03  0.00000000000E+00 0. -1.
         21   -1    0    0  502  503 -0.00000000000E+00 -0.00000000000E+00 -0.22071466085E+03  0.22071466085E+03  0.00000000000E+00 0. -1.
         -6    2    1    2    0  503 -0.45927240021E+02 -0.34909170878E+02 -0.16240271785E+03  0.24343356255E+03  0.17192235172E+03 0.  0.
        -24    2    3    3    0    0 -0.37062289434E+02 -0.23447894667E+02 -0.83594042671E+01  0.88638922259E+02  0.76573897884E+02 0.  0.
          6    2    1    2  501    0  0.45927240021E+02  0.34909170878E+02  0.46729606465E+03  0.50288910595E+03  0.17664619798E+03 0.  0.
         24    2    5    5    0    0  0.59837536539E+02  0.29358745024E+02  0.13527688385E+03  0.17049907903E+03  0.79546426435E+02 0.  0.
          5    1    5    5  501    0 -0.13910296518E+02  0.55504258536E+01  0.33201918080E+03  0.33239002692E+03  0.47000000000E+01 0. -1.
        -13    1    6    6    0    0  0.31962229060E+02  0.55008884133E+02  0.66838409712E+02  0.92276402362E+02  0.00000000000E+00 0.  1.
         14    1    6    6    0    0  0.27875307479E+02 -0.25650139109E+02  0.68438474133E+02  0.78222676668E+02  0.00000000000E+00 0. -1.
         -5    1    3    3    0  503 -0.88649505877E+01 -0.11461276211E+02 -0.15404331359E+03  0.15479464029E+03  0.47000000000E+01 0.  1.
         11    1    4    4    0    0 -0.22446296616E+02 -0.35345447154E+02 -0.35976833678E+02  0.55203889607E+02  0.00000000000E+00 0. -1.
        -12    1    4    4    0    0 -0.14615992818E+02  0.11897552487E+02  0.27617429410E+02  0.33435032652E+02  0.00000000000E+00 0.  1.
</event>
<event>
12    1  0.8053217E-002  0.1891530E+03  0.7818608E-02  0.1159720E+00
         21   -1    0    0  501  502  0.00000000000E+00  0.00000000000E+00  0.18920301926E+04  0.18920301926E+04  0.00000000000E+00 0. -1.
         21   -1    0    0  502  503 -0.00000000000E+00 -0.00000000000E+00 -0.23677350474E+02  0.23677350474E+02  0.00000000000E+00 0.  1.
         -6    2    1    2    0  503 -0.60312178624E+02  0.47018459968E+02  0.49903379138E+03  0.53367927357E+03  0.17300447286E+03 0.  0.
        -24    2    3    3    0    0  0.35159965736E+01 -0.29801391216E+02  0.17846619526E+03  0.19788022776E+03  0.80036969813E+02 0.  0.
          6    2    1    2  501    0  0.60312178624E+02 -0.47018459968E+02  0.13693190507E+04  0.13820282695E+04  0.17064343089E+03 0.  0.
         24    2    5    5    0    0  0.81241250969E+02  0.16735313765E+02  0.78015053593E+03  0.78903231793E+03  0.84005526244E+02 0.  0.
          5    1    5    5  501    0 -0.20929072345E+02 -0.63753773733E+02  0.58916851480E+03  0.59299595156E+03  0.47000000000E+01 0. -1.
        -11    1    6    6    0    0  0.76383062976E+02  0.36704003633E+01  0.76348862315E+03  0.76730875261E+03  0.00000000000E+00 0.  1.
         12    1    6    6    0    0  0.48581879928E+01  0.13064913402E+02  0.16661912775E+02  0.21723565317E+02  0.00000000000E+00 0. -1.
         -5    1    3    3    0  503 -0.63828175198E+02  0.76819851185E+02  0.32056759612E+03  0.33579904581E+03  0.47000000000E+01 0.  1.
         13    1    4    4    0    0 -0.38042202367E+02 -0.19078667751E+02  0.88816955873E+02  0.98486833509E+02  0.00000000000E+00 0. -1.
        -14    1    4    4    0    0  0.41558198941E+02 -0.10722723466E+02  0.89649239385E+02  0.99393394248E+02  0.00000000000E+00 0.  1.
</event>
<event>
12    1  0.8053217E-002  0.2082794E+03  0.7818608E-02  0.1143486E+00
         21   -1    0    0  503  502  0.00000000000E+00  0.00000000000E+00  0.97242865586E+03  0.97242865586E+03  0.00000000000E+00 0.  1.
         21   -1    0    0  501  503 -0.00000000000E+00 -0.00000000000E+00 -0.61510125888E+02  0.61510125888E+02  0.00000000000E+00 0. -1.
          6    2    1    2  501    0  0.11176024848E+03  0.27955116134E+02  0.18200313345E+03  0.27659615603E+03  0.17351787022E+03 0.  0.
         24    2    3    3    0    0  0.11089325893E+03  0.78917470689E+02  0.14313352232E+03  0.21232446769E+03  0.77905021100E+02 0.  0.
         -6    2    1    2    0  502 -0.11176024848E+03 -0.27955116134E+02  0.72891539653E+03  0.75734262572E+03  0.17023030218E+03 0.  0.
        -24    2    5    5    0    0 -0.11064723512E+03 -0.75185527475E+02  0.61157182854E+03  0.63075845016E+03  0.77074294067E+02 0.  0.
          5    1    3    3  501    0  0.86698955095E+00 -0.50962354555E+02  0.38869611125E+02  0.64271688337E+02  0.47000000000E+01 0. -1.
        -11    1    4    4    0    0  0.62292872407E+02  0.27971958485E+02  0.12025797715E+03  0.13829249250E+03  0.00000000000E+00 0.  1.
         12    1    4    4    0    0  0.48600386522E+02  0.50945512204E+02  0.22875545174E+02  0.74031975192E+02  0.00000000000E+00 0. -1.
         -5    1    5    5    0  502 -0.11130133642E+01  0.47230411341E+02  0.11734356799E+03  0.12658417556E+03  0.47000000000E+01 0.  1.
         13    1    6    6    0    0 -0.92303042002E+02 -0.62829237789E+02  0.33119016320E+03  0.34950577804E+03  0.00000000000E+00 0. -1.
        -14    1    6    6    0    0 -0.18344193115E+02 -0.12356289686E+02  0.28038166534E+03  0.28125267212E+03  0.00000000000E+00 0.  1.
</event>
<event>
12    1  0.8053217E-002  0.1997392E+03  0.7818608E-02  0.1157257E+00
         21   -1    0    0  501  502  0.00000000000E+00  0.00000000000E+00  0.76792261640E+02  0.76792261640E+02  0.00000000000E+00 0. -1.
         21   -1    0    0  502  503 -0.00000000000E+00 -0.00000000000E+00 -0.11368633902E+04  0.11368633902E+04  0.00000000000E+00 0. -1.
         -6    2    1    2    0  503 -0.12942688218E+02  0.55472136359E+02 -0.98659361131E+03  0.10008301759E+04  0.15827007287E+03 0.  0.
        -24    2    3    3    0    0 -0.12888855766E+02 -0.27971866997E+02 -0.59590399883E+03  0.60130124338E+03  0.74249993450E+02 0.  0.
          6    2    1    2  501    0  0.12942688218E+02 -0.55472136359E+02 -0.73477517266E+02  0.21282547599E+03  0.19144468286E+03 0.  0.
         24    2    5    5    0    0  0.27483420307E+01 -0.32895748959E+02 -0.12702576546E+03  0.15363829117E+03  0.79871745565E+02 0.  0.
          5    1    5    5  501    0  0.10194346188E+02 -0.22576387400E+02  0.53548248191E+02  0.59187184817E+02  0.47000000000E+01 0. -1.
        -13    1    6    6    0    0 -0.20392251098E+01  0.26599885412E+02 -0.36658066403E+02  0.45337911017E+02  0.00000000000E+00 0.  1.
         14    1    6    6    0    0  0.47875671405E+01 -0.59495634372E+02 -0.90367699054E+02  0.10830038015E+03  0.00000000000E+00 0. -1.
         -5    1    3    3    0  503 -0.53832451935E-01  0.83444003356E+02 -0.39068961248E+03  0.39952893249E+03  0.47000000000E+01 0.  1.
         13    1    4    4    0    0 -0.25616817996E+02  0.15128133664E+02 -0.35477277735E+03  0.35601798457E+03  0.00000000000E+00 0. -1.
        -14    1    4    4    0    0  0.12727962229E+02 -0.43100000661E+02 -0.24113122148E+03  0.24528325881E+03  0.00000000000E+00 0.  1.
</event>
<event>
12    1  0.8053217E-002  0.2073508E+03  0.7818608E-02  0.1143891E+00
         21   -1    0    0  503  502  0.00000000000E+00  0.00000000000E+00  0.44344837727E+03  0.44344837727E+03  0.00000000000E+00 0. -1.
         21   -1    0    0  501  503 -0.00000000000E+00 -0.00000000000E+00 -0.10174567815E+03  0.10174567815E+03  0.00000000000E+00 0. -1.
          6    2    1    2  501    0 -0.49276504270E+02 -0.10301514047E+03  0.10836431547E+03  0.23303838088E+03  0.17182482084E+03 0.  0.
         24    2    3    3    0    0 -0.92824463036E+02 -0.46191315886E+02  0.58062834134E+02  0.14541589074E+03  0.83812111125E+02 0.  0.
         -6    2    1    2    0  502  0.49276504270E+02  0.10301514047E+03  0.23333838364E+03  0.31215567455E+03  0.17307244388E+03 0.  0.
        -24    2    5    5    0    0  0.72024064556E+02  0.10750220208E+03  0.24302672722E+03  0.28659126135E+03  0.79551062918E+02 0.  0.
          5    1    3    3  501    0  0.43547958767E+02 -0.56823824581E+02  0.50301481335E+02  0.87622490134E+02  0.47000000000E+01 0. -1.
        -11    1    4    4    0    0 -0.40354636748E+01 -0.37669312117E+02  0.38669485665E+02  0.54134934783E+02  0.00000000000E+00 0.  1.
         12    1    4    4    0    0 -0.88788999362E+02 -0.85220037693E+01  0.19393348470E+02  0.91280955959E+02  0.00000000000E+00 0. -1.
         -5    1    5    5    0  502 -0.22747560286E+02 -0.44870616141E+01 -0.96883435760E+01  0.25564413198E+02  0.47000000000E+01 0.  1.
         13    1    6    6    0    0  0.39186766621E+01 -0.11677499402E+02  0.37242449271E+02  0.39226522237E+02  0.00000000000E+00 0. -1.
        -14    1    6    6    0    0  0.68105387894E+02  0.11917970148E+03  0.20578427795E+03  0.24736473911E+03  0.00000000000E+00 0.  1.
</event>
<event>
12    1  0.8053217E-002  0.2677864E+03  0.7818608E-02  0.1103705E+00
         21   -1    0    0  501  502  0.00000000000E+00  0.00000000000E+00  0.32891956399E+03  0.32891956399E+03  0.00000000000E+00 0. -1.
         21   -1    0    0  502  503 -0.00000000000E+00 -0.00000000000E+00 -0.21751333569E+03  0.21751333569E+03  0.00000000000E+00 0. -1.
         -6    2    1    2    0  503  0.10066930666E+03  0.18054943788E+03  0.11770957461E+02  0.26804496499E+03  0.17022672820E+03 0.  0.
        -24    2    3    3    0    0  0.81529490345E+02  0.19220402742E+03  0.44921662187E+02  0.22775574497E+03  0.79153507084E+02 0.  0.
          6    2    1    2  501    0 -0.10066930666E+03 -0.18054943788E+03  0.99635270835E+02  0.27838793469E+03  0.15760788738E+03 0.  0.
         24    2    5    5    0    0  0.46571201648E+01 -0.89378189487E+02  0.62516635257E+02  0.13414599964E+03  0.77952998727E+02 0.  0.
          5    1    5    5  501    0 -0.10532642682E+03 -0.91171248396E+02  0.37118635578E+02  0.14424193506E+03  0.47000000000E+01 0. -1.
        -11    1    6    6    0    0 -0.24472844573E+02  0.21185431429E+00  0.13495923766E+02  0.27948255080E+02  0.00000000000E+00 0.  1.
         12    1    6    6    0    0  0.29129964737E+02 -0.89590043801E+02  0.49020711491E+02  0.10619774456E+03  0.00000000000E+00 0. -1.
         -5    1    3    3    0  503  0.19139816313E+02 -0.11654589534E+02 -0.33150704726E+02  0.40289220016E+02  0.47000000000E+01 0.  1.
         11    1    4    4    0    0 -0.97067393519E+01  0.70489321766E+02  0.13142155801E+02  0.72358009446E+02  0.00000000000E+00 0. -1.
        -12    1    4    4    0    0  0.91236229697E+02  0.12171470565E+03  0.31779506386E+02  0.15539773553E+03  0.00000000000E+00 0.  1.
</event>
<event>
12    1  0.8053217E-002  0.1739062E+03  0.7818608E-02  0.1173847E+00
         21   -1    0    0  503  502  0.00000000000E+00  0.00000000000E+00  0.22699770776E+03  0.22699770776E+03  0.00000000000E+00 0.  1.
         21   -1    0    0  501  503 -0.00000000000E+00 -0.00000000000E+00 -0.16156783674E+03  0.16156783674E+03  0.00000000000E+00 0.  1.
          6    2    1    2  501    0 -0.24187912902E+01  0.25427402525E+02 -0.48707524776E+02  0.18054940245E+03  0.17196877741E+03 0.  0.
         24    2    3    3    0    0 -0.21029716540E+02  0.72998600306E+02  0.16557838270E+01  0.10866102891E+03  0.77675175952E+02 0.  0.
         -6    2    1    2    0  502  0.24187912902E+01 -0.25427402525E+02  0.11413739580E+03  0.20801614205E+03  0.17202025137E+03 0.  0.
        -24    2    5    5    0    0  0.43626531246E+02  0.20111492028E+02  0.11536938061E+03  0.14640870308E+03  0.76273639056E+02 0.  0.
          5    1    3    3  501    0  0.18610925249E+02 -0.47571197781E+02 -0.50363308603E+02  0.71888373542E+02  0.47000000000E+01 0. -1.
        -13    1    4    4    0    0  0.35380949512E+01 -0.14622419967E+02  0.87170579494E+01  0.17387362677E+02  0.00000000000E+00 0.  1.
         14    1    4    4    0    0 -0.24567811491E+02  0.87621020273E+02 -0.70612741224E+01  0.91273666232E+02  0.00000000000E+00 0. -1.
         -5    1    5    5    0  502 -0.41207739956E+02 -0.45538894553E+02 -0.12319848136E+01  0.61607438966E+02  0.47000000000E+01 0.  1.
         13    1    6    6    0    0  0.14882372000E+02 -0.16286298486E+02 -0.43398818998E-02  0.22061924974E+02  0.00000000000E+00 0. -1.
        -14    1    6    6    0    0  0.28744159246E+02  0.36397790514E+02  0.11537372049E+03  0.12434677811E+03  0.00000000000E+00 0.  1.
</event>
<event>
12    1  0.8053217E-002  0.3003555E+03  0.7818608E-02  0.1085171E+00
         21   -1    0    0  503  502  0.00000000000E+00  0.00000000000E+00  0.86181724331E+02  0.86181724331E+02  0.00000000000E+00 0. -1.
         21   -1    0    0  501  503 -0.00000000000E+00 -0.00000000000E+00 -0.10533993407E+04  0.10533993407E+04  0.00000000000E+00 0.  1.
          6    2    1    2  501    0  0.16407041694E+03 -0.18331372659E+03 -0.42847756324E+03  0.52277130052E+03  0.17080335586E+03 0.  0.
         24    2    3    3    0    0  0.55494804926E+02 -0.48295372762E+02 -0.85024250650E+02  0.13806246604E+03  0.80124933242E+02 0.  0.
         -6    2    1    2    0  502 -0.16407041694E+03  0.18331372659E+03 -0.53874005310E+03  0.61680976448E+03  0.17230907311E+03 0.  0.
        -24    2    5    5    0    0 -0.81321228654E+02  0.10619224994E+03 -0.43716234063E+03  0.46470693087E+03  0.83376755468E+02 0.  0.
          5    1    3    3  501    0  0.10857561201E+03 -0.13501835383E+03 -0.34345331259E+03  0.38470883447E+03  0.47000000000E+01 0. -1.
        -13    1    4    4    0    0 -0.14795943539E+02 -0.24623086180E+02 -0.46051776407E+02  0.54276905112E+02  0.00000000000E+00 0.  1.
         14    1    4    4    0    0  0.70290748465E+02 -0.23672286582E+02 -0.38972474242E+02  0.83785560930E+02  0.00000000000E+00 0. -1.
         -5    1    5    5    0  502 -0.82749188285E+02  0.77121476657E+02 -0.10157771246E+03  0.15210283361E+03  0.47000000000E+01 0.  1.
         13    1    6    6    0    0 -0.55281489873E+02  0.62833169114E+02 -0.13872722593E+03  0.16201633707E+03  0.00000000000E+00 0. -1.
        -14    1    6    6    0    0 -0.26039738781E+02  0.43359080822E+02 -0.29843511470E+03  0.30269059380E+03  0.00000000000E+00 0.  1.
</event>
<event>
12    1  0.8053217E-002  0.2103769E+03  0.7818608E-02  0.1141568E+00
         21   -1    0    0  501  502  0.00000000000E+00  0.00000000000E+00  0.30796603797E+02  0.30796603797E+02  0.00000000000E+00 0. -1.
         21   -1    0    0  502  503 -0.00000000000E+00 -0.00000000000E+00 -0.19319686498E+04  0.19319686498E+04  0.00000000000E+00 0.  1.
         -6    2    1    2    0  503  0.23833165212E+02  0.11935288085E+03 -0.44621823104E+03  0.49268055375E+03  0.16973593726E+03 0.  0.
        -24    2    3    3    0    0 -0.36366687166E+02  0.99976667967E+02 -0.37133057230E+03  0.39454946141E+03  0.80405307663E+02 0.  0.
          6    2    1    2  501    0 -0.23833165212E+02 -0.11935288085E+03 -0.14549538150E+04  0.14700846999E+04  0.17159630276E+03 0.  0.
         24    2    5    5    0    0 -0.47943815653E+02 -0.11446604506E+02 -0.51559022367E+03  0.52422470250E+03  0.80923579699E+02 0.  0.
          5    1    5    5  501    0  0.24110650441E+02 -0.10790627635E+03 -0.93936359130E+03  0.94585999736E+03  0.47000000000E+01 0. -1.
        -13    1    6    6    0    0 -0.57133482961E+02 -0.50537804308E+01 -0.50668251586E+03  0.50991856943E+03  0.00000000000E+00 0.  1.
         14    1    6    6    0    0  0.91896673078E+01 -0.63928240752E+01 -0.89077078061E+01  0.14306133064E+02  0.00000000000E+00 0. -1.
         -5    1    3    3    0  503  0.60199852378E+02  0.19376212887E+02 -0.74887658739E+02  0.98131092339E+02  0.47000000000E+01 0.  1.
         13    1    4    4    0    0  0.12625131105E+02  0.71225939735E+02 -0.15775551425E+03  0.17354921695E+03  0.00000000000E+00 0. -1.
        -14    1    4    4    0    0 -0.48991818271E+02  0.28750728232E+02 -0.21357505805E+03  0.22100024446E+03  0.00000000000E+00 0.  1.
</event>
<event>
12    1  0.8053217E-002  0.1827712E+03  0.7818608E-02  0.1165391E+00
         21   -1    0    0  501  502  0.00000000000E+00  0.00000000000E+00  0.85681864554E+03  0.85681864554E+03  0.00000000000E+00 0.  1.
         21   -1    0    0  502  503 -0.00000000000E+00 -0.00000000000E+00 -0.42284056167E+02  0.42284056167E+02  0.00000000000E+00 0.  1.
         -6    2    1    2    0  503  0.36091481370E+02 -0.46148243204E+02  0.27661253579E+03  0.33097820040E+03  0.17204597876E+03 0.  0.
        -24    2    3    3    0    0  0.15621672699E+02  0.40337191725E+02  0.16587749218E+03  0.18891102120E+03  0.79378245296E+02 0.  0.
          6    2    1    2  501    0 -0.36091481370E+02  0.46148243204E+02  0.53792205358E+03  0.56812450130E+03  0.17312728807E+03 0.  0.
         24    2    5    5    0    0  0.16820060163E+02  0.38398515832E+02  0.14445878983E+03  0.17101605337E+03  0.81368225421E+02 0.  0.
          5    1    5    5  501    0 -0.52911541533E+02  0.77497273721E+01  0.39346326375E+03  0.39710844793E+03  0.47000000000E+01 0. -1.
        -13    1    6    6    0    0 -0.37234059272E+01 -0.12355742397E+02  0.99036916818E+02  0.99874115840E+02  0.00000000000E+00 0.  1.
         14    1    6    6    0    0  0.20543466090E+02  0.50754258228E+02  0.45421873013E+02  0.71141937528E+02  0.00000000000E+00 0. -1.
         -5    1    3    3    0  503  0.20469808671E+02 -0.86485434929E+02  0.11073504362E+03  0.14206717920E+03  0.47000000000E+01 0.  1.
         13    1    4    4    0    0 -0.30480876208E+02  0.22006535790E+02  0.47646380871E+02  0.60692248616E+02  0.00000000000E+00 0. -1.
        -14    1    4    4    0    0  0.46102548908E+02  0.18330655934E+02  0.11823111131E+03  0.12821877259E+03  0.00000000000E+00 0.  1.
</event>
<event>
12    1  0.8053217E-002  0.2001609E+03  0.7818608E-02  0.1149739E+00
         21   -1    0    0  501  502  0.00000000000E+00  0.00000000000E+00  0.46823075261E+02  0.46823075261E+02  0.00000000000E+00 0.  1.
         21   -1    0    0  502  503 -0.00000000000E+00 -0.00000000000E+00 -0.13875304126E+04  0.13875304126E+04  0.00000000000E+00 0.  1.
         -6    2    1    2    0  503 -0.73976198567E+02 -0.67642079196E+02 -0.11148613566E+04  0.11325741360E+04  0.17251202932E+03 0.  0.
        -24    2    3    3    0    0 -0.55597984946E+02 -0.21379604899E+01 -0.94276466295E+03  0.94745819863E+03  0.76000800252E+02 0.  0.
          6    2    1    2  501    0  0.73976198567E+02  0.67642079196E+02 -0.22584598071E+03  0.30177935183E+03  0.17325253637E+03 0.  0.
         24    2    5    5    0    0  0.65578259035E+02  0.53849827252E+02 -0.24793270939E+03  0.27401849474E+03  0.80094913207E+02 0.  0.
          5    1    5    5  501    0  0.83979395323E+01  0.13792251944E+02  0.22086728688E+02  0.27760857087E+02  0.47000000000E+01 0. -1.
        -11    1    6    6    0    0  0.73116477793E+02  0.20079839428E+02 -0.12399044803E+03  0.14533702377E+03  0.00000000000E+00 0.  1.
         12    1    6    6    0    0 -0.75382187578E+01  0.33769987824E+02 -0.12394226136E+03  0.12868147097E+03  0.00000000000E+00 0. -1.
         -5    1    3    3    0  503 -0.18378213621E+02 -0.65504118706E+02 -0.17209669370E+03  0.18511593742E+03  0.47000000000E+01 0.  1.
         13    1    4    4    0    0 -0.16623185851E+02 -0.18431888855E+02 -0.82400440591E+02  0.86057524041E+02  0.00000000000E+00 0. -1.
        -14    1    4    4    0    0 -0.38974799096E+02  0.16293928365E+02 -0.86036422236E+03  0.86140067459E+03  0.00000000000E+00 0.  1.
</event>
<event>
12    1  0.8053217E-002  0.2190831E+03  0.7818608E-02  0.1134744E+00
         21   -1    0    0  501  502  0.00000000000E+00  0.00000000000E+00  0.32208905042E+03  0.32208905042E+03  0.00000000000E+00 0. -1.
         21   -1    0    0  502  503 -0.00000000000E+00 -0.00000000000E+00 -0.20965962197E+03  0.20965962197E+03  0.00000000000E+00 0. -1.
         -6    2    1    2    0  503  0.21013414279E+01 -0.13272304386E+03 -0.87602971564E+02  0.23508328881E+03  0.17311860109E+03 0.  0.
        -24    2    3    3    0    0 -0.19752749309E+02 -0.47162797700E+02  0.18652320303E+02  0.96842795269E+02  0.80100670101E+02 0.  0.
          6    2    1    2  501    0 -0.21013414279E+01  0.13272304386E+03  0.20003240001E+03  0.29666538358E+03  0.17429161412E+03 0.  0.
         24    2    5    5    0    0 -0.12746944563E+01 -0.46735065535E+01  0.21883300954E+02  0.71637192223E+02  0.68040737353E+02 0.  0.
          5    1    5    5  501    0 -0.82664697153E+00  0.13739655041E+03  0.17814909906E+03  0.22502819136E+03  0.47000000000E+01 0. -1.
        -13    1    6    6    0    0 -0.30302920536E+02 -0.94801308030E+01 -0.45603065369E+01  0.32077036471E+02  0.00000000000E+00 0.  1.
         14    1    6    6    0    0  0.29028226080E+02  0.48066242495E+01  0.26443607491E+02  0.39560155752E+02  0.00000000000E+00 0. -1.
         -5    1    3    3    0  503  0.21854090737E+02 -0.85560246158E+02 -0.10625529187E+03  0.13824049354E+03  0.47000000000E+01 0.  1.
         11    1    4    4    0    0  0.15895514251E+02 -0.54204535512E+02  0.21393017398E+02  0.60402485352E+02  0.00000000000E+00 0. -1.
        -12    1    4    4    0    0 -0.35648263560E+02  0.70417378121E+01 -0.27406970948E+01  0.36440309916E+02  0.00000000000E+00 0.  1.
</event>
<event>
12    1  0.8053217E-002  0.1999310E+03  0.7818608E-02  0.1150639E+00
         21   -1    0    0  503  502  0.00000000000E+00  0.00000000000E+00  0.16244460210E+03  0.16244460210E+03  0.00000000000E+00 0. -1.
         21   -1    0    0  501  503 -0.00000000000E+00 -0.00000000000E+00 -0.24148216435E+03  0.24148216435E+03  0.00000000000E+00 0. -1.
          6    2    1    2  501    0  0.74339196161E+02 -0.72216935230E+02 -0.32688278171E+02  0.19869356716E+03  0.16634003812E+03 0.  0.
         24    2    3    3    0    0  0.77570316463E+02 -0.74653262509E+02 -0.76905955881E+02  0.15404304812E+03  0.78895316867E+02 0.  0.
         -6    2    1    2    0  502 -0.74339196161E+02  0.72216935230E+02 -0.46349284083E+02  0.20523319929E+03  0.17097019663E+03 0.  0.
        -24    2    5    5    0    0 -0.52678405141E+02 -0.21176760447E+02 -0.50549320527E+02  0.10915353148E+03  0.78331284162E+02 0.  0.
          5    1    3    3  501    0 -0.32311203012E+01  0.24363272786E+01  0.44217677710E+02  0.44650519046E+02  0.47000000000E+01 0. -1.
        -11    1    4    4    0    0 -0.77147424133E+00 -0.36065423203E+02  0.22968613113E+01  0.36146721777E+02  0.00000000000E+00 0.  1.
         12    1    4    4    0    0  0.78341790704E+02 -0.38587839305E+02 -0.79202817192E+02  0.11789632634E+03  0.00000000000E+00 0. -1.
         -5    1    5    5    0  502 -0.21660791020E+02  0.93393695677E+02  0.42000364436E+01  0.96079667807E+02  0.47000000000E+01 0.  1.
         13    1    6    6    0    0 -0.71260701048E+02 -0.39128697976E+01 -0.36568021533E+02  0.80191135811E+02  0.00000000000E+00 0. -1.
        -14    1    6    6    0    0  0.18582295907E+02 -0.17263890649E+02 -0.13981298994E+02  0.28962395673E+02  0.00000000000E+00 0.  1.
</event>
<event>
12    1  0.8053217E-002  0.2208240E+03  0.7818608E-02  0.1135370E+00
         21   -1    0    0  501  502  0.00000000000E+00  0.00000000000E+00  0.92874640306E+03  0.92874640306E+03  0.00000000000E+00 0.  1.
         21   -1    0    0  502  503 -0.00000000000E+00 -0.00000000000E+00 -0.98390768649E+02  0.98390768649E+02  0.00000000000E+00 0.  1.
         -6    2    1    2    0  503 -0.88423388245E+02  0.80838629312E+02  0.60153892042E+02  0.22887055305E+03  0.18549840901E+03 0.  0.
        -24    2    3    3    0    0  0.21158940117E+02  0.62061720482E+02  0.78921277846E+00  0.10274714468E+03  0.79101169313E+02 0.  0.
          6    2    1    2  501    0  0.88423388245E+02 -0.80838629312E+02  0.77020174237E+03  0.79826661866E+03  0.17223614877E+03 0.  0.
         24    2    5    5    0    0  0.35490570709E+02  0.30855790226E+01  0.15866797712E+03  0.17871775702E+03  0.74131021207E+02 0.  0.
          5    1    5    5  501    0  0.52932817535E+02 -0.83924208335E+02  0.61153376525E+03  0.61954886164E+03  0.47000000000E+01 0. -1.
        -11    1    6    6    0    0  0.24030321939E+02 -0.23498731499E+02  0.14067060767E+03  0.14463010274E+03  0.00000000000E+00 0.  1.
         12    1    6    6    0    0  0.11460248770E+02  0.26584310521E+02  0.17997369445E+02  0.34087654286E+02  0.00000000000E+00 0. -1.
         -5    1    3    3    0  503 -0.10958232836E+03  0.18776908830E+02  0.59364679263E+02  0.12612340837E+03  0.47000000000E+01 0.  1.
         13    1    4    4    0    0 -0.14043018183E+02  0.61512298300E+02 -0.13885801995E+02  0.64604834950E+02  0.00000000000E+00 0. -1.
        -14    1    4    4    0    0  0.35201958300E+02  0.54942218173E+00  0.14675014773E+02  0.38142309729E+02  0.00000000000E+00 0.  1.
</event>
<event>
12    1  0.8053217E-002  0.2131359E+03  0.7818608E-02  0.1140114E+00
         21   -1    0    0  503  502  0.00000000000E+00  0.00000000000E+00  0.58901004464E+03  0.58901004464E+03  0.00000000000E+00 0. -1.
         21   -1    0    0  501  503 -0.00000000000E+00 -0.00000000000E+00 -0.19174550997E+03  0.19174550997E+03  0.00000000000E+00 0. -1.
          6    2    1    2  501    0 -0.41595694943E+02 -0.11709854809E+03 -0.10465086634E+03  0.23744204848E+03  0.17316076565E+03 0.  0.
         24    2    3    3    0    0 -0.56589758441E+02 -0.72986306434E+02  0.28833647870E+01  0.12015431396E+03  0.76807185110E+02 0.  0.
         -6    2    1    2    0  502  0.41595694943E+02  0.11709854809E+03  0.50191540102E+03  0.54331350613E+03  0.16681793778E+03 0.  0.
        -24    2    5    5    0    0  0.85194574843E+02  0.98770414766E+02  0.30576843427E+03  0.34149055064E+03  0.78152097633E+02 0.  0.
          5    1    3    3  501    0  0.14994063497E+02 -0.44112241653E+02 -0.10753423113E+03  0.11728773452E+03  0.47000000000E+01 0. -1.
        -13    1    4    4    0    0 -0.11006181108E+02 -0.37804335744E+02  0.36321272262E+02  0.53568074842E+02  0.00000000000E+00 0.  1.
         14    1    4    4    0    0 -0.45583577333E+02 -0.35181970690E+02 -0.33437907475E+02  0.66586239122E+02  0.00000000000E+00 0. -1.
         -5    1    5    5    0  502 -0.43598879900E+02  0.18328133321E+02  0.19614696674E+03  0.20182295549E+03  0.47000000000E+01 0.  1.
         11    1    6    6    0    0  0.62198593132E+02  0.15836151448E+02  0.15714787304E+03  0.16974952925E+03  0.00000000000E+00 0. -1.
        -12    1    6    6    0    0  0.22995981711E+02  0.82934263318E+02  0.14862056124E+03  0.17174102139E+03  0.00000000000E+00 0.  1.
</event>
<event>
12    1  0.8053217E-002  0.2156661E+03  0.7818608E-02  0.1137497E+00
         21   -1    0    0  503  502  0.00000000000E+00  0.00000000000E+00  0.33210029479E+03  0.33210029479E+03  0.00000000000E+00 0.  1.
         21   -1    0    0  501  503 -0.00000000000E+00 -0.00000000000E+00 -0.18137497192E+03  0.18137497192E+03  0.00000000000E+00 0.  1.
          6    2    1    2  501    0  0.10571036920E+03  0.72795176956E+02  0.19983808773E+03  0.29401892073E+03  0.17331487095E+03 0.  0.
         24    2    3    3    0    0 -0.55469102084E+01 -0.97418400709E+01  0.90977664219E+02  0.11777130171E+03  0.73942359038E+02 0.  0.
         -6    2    1    2    0  502 -0.10571036920E+03 -0.72795176956E+02 -0.49112764869E+02  0.21945634598E+03  0.17109998297E+03 0.  0.
        -24    2    5    5    0    0 -0.10043309345E+03  0.52198638148E+01  0.64138487851E+01  0.12343816515E+03  0.71286674221E+02 0.  0.
          5    1    3    3  501    0  0.11125727941E+03  0.82537017027E+02  0.10886042351E+03  0.17624761902E+03  0.47000000000E+01 0. -1.
        -13    1    4    4    0    0  0.31057188900E+01  0.27209563282E+02  0.68239771231E+02  0.73530076849E+02  0.00000000000E+00 0.  1.
         14    1    4    4    0    0 -0.86526290984E+01 -0.36951403353E+02  0.22737892988E+02  0.44241224865E+02  0.00000000000E+00 0. -1.
         -5    1    5    5    0  502 -0.52772757475E+01 -0.78015040771E+02 -0.55526613654E+02  0.96018180829E+02  0.47000000000E+01 0.  1.
         13    1    6    6    0    0  0.97151959834E+01  0.82180653759E+01 -0.21971086841E+01  0.12913129678E+02  0.00000000000E+00 0. -1.
        -14    1    6    6    0    0 -0.11014828943E+03 -0.29982015611E+01  0.86109574692E+01  0.11052503547E+03  0.00000000000E+00 0.  1.
</event>
<event>
12    1  0.8053217E-002  0.1877356E+03  0.7818608E-02  0.1160817E+00
         21   -1    0    0  501  502  0.00000000000E+00  0.00000000000E+00  0.84216313378E+02  0.84216313378E+02  0.00000000000E+00 0.  1.
         21   -1    0    0  502  503 -0.00000000000E+00 -0.00000000000E+00 -0.41768808424E+03  0.41768808424E+03  0.00000000000E+00 0.  1.
         -6    2    1    2    0  503 -0.71035772488E+02 -0.78939268351E+01 -0.14852956598E+03  0.23837399813E+03  0.17219969791E+03 0.  0.
        -24    2    3    3    0    0 -0.77649114436E+02 -0.40641645558E+02 -0.16467268824E+03  0.20097293171E+03  0.74778985676E+02 0.  0.
          6    2    1    2  501    0  0.71035772488E+02  0.78939268351E+01 -0.18494220488E+03  0.26353039949E+03  0.17359797595E+03 0.  0.
         24    2    5    5    0    0  0.78798943634E+02  0.62286273599E+02 -0.10367112287E+03  0.16531699417E+03  0.80580105783E+02 0.  0.
          5    1    5    5  501    0 -0.77631711460E+01 -0.54392346764E+02 -0.81271082007E+02  0.98213405314E+02  0.47000000000E+01 0. -1.
        -13    1    6    6    0    0  0.12292351254E+02  0.28857076234E+02 -0.81995053664E+02  0.87789643885E+02  0.00000000000E+00 0.  1.
         14    1    6    6    0    0  0.66506592380E+02  0.33429197365E+02 -0.21676069211E+02  0.77527350289E+02  0.00000000000E+00 0. -1.
         -5    1    3    3    0  503  0.66133419484E+01  0.32747718723E+02  0.16143122263E+02  0.37401066424E+02  0.47000000000E+01 0.  1.
         11    1    4    4    0    0 -0.41431255744E+02 -0.57150334400E+02 -0.75709366678E+02  0.10351143839E+03  0.00000000000E+00 0. -1.
        -12    1    4    4    0    0 -0.36217858692E+02  0.16508688842E+02 -0.88963321566E+02  0.97461493317E+02  0.00000000000E+00 0.  1.
</event>
<event>
12    1  0.8053217E-002  0.2753620E+03  0.7818608E-02  0.1098399E+00
         21   -1    0    0  503  502  0.00000000000E+00  0.00000000000E+00  0.20729382802E+04  0.20729382802E+04  0.00000000000E+00 0. -1.
         21   -1    0    0  501  503 -0.00000000000E+00 -0.00000000000E+00 -0.42047673368E+02  0.42047673368E+02  0.00000000000E+00 0. -1.
          6    2    1    2  501    0  0.52838416535E+01  0.21363963302E+03  0.62740423002E+03  0.68474183750E+03  0.17194622527E+03 0.  0.
         24    2    3    3    0    0  0.68559822332E+01  0.72959984611E+02  0.36674433775E+03  0.38850054303E+03  0.10517175867E+03 0.  0.
         -6    2    1    2    0  502 -0.52838416535E+01 -0.21363963302E+03  0.14034863769E+04  0.14302441161E+04  0.17365025164E+03 0.  0.
        -24    2    5    5    0    0 -0.42045021819E+02 -0.12151896041E+03  0.50753507604E+03  0.52880724860E+03  0.74233490843E+02 0.  0.
          5    1    3    3  501    0 -0.15721405797E+01  0.14067964841E+03  0.26065989228E+03  0.29624129446E+03  0.47000000000E+01 0. -1.
        -13    1    4    4    0    0 -0.17316081028E+02  0.90380283555E+02  0.32082192467E+03  0.33375911922E+03  0.00000000000E+00 0.  1.
         14    1    4    4    0    0  0.24172063261E+02 -0.17420298945E+02  0.45922413079E+02  0.54741423809E+02  0.00000000000E+00 0. -1.
         -5    1    5    5    0  502  0.36761180166E+02 -0.92120672613E+02  0.89595130081E+03  0.90143686752E+03  0.47000000000E+01 0.  1.
         13    1    6    6    0    0 -0.10612598072E+02 -0.86493713446E+02  0.42460011698E+03  0.43345016905E+03  0.00000000000E+00 0. -1.
        -14    1    6    6    0    0 -0.31432423748E+02 -0.35025246963E+02  0.82934959057E+02  0.95357079555E+02  0.00000000000E+00 0.  1.
</event>
<event>
12    1  0.8053217E-002  0.1939977E+03  0.7818608E-02  0.1155094E+00
         21   -1    0    0  503  502  0.00000000000E+00  0.00000000000E+00  0.11435073950E+03  0.11435073950E+03  0.00000000000E+00 0. -1.
         21   -1    0    0  501  503 -0.00000000000E+00 -0.00000000000E+00 -0.92010654779E+03  0.92010654779E+03  0.00000000000E+00 0. -1.
          6    2    1    2  501    0 -0.12615283766E+02  0.87402178236E+02 -0.81759718163E+03  0.84009852718E+03  0.17176174724E+03 0.  0.
         24    2    3    3    0    0  0.49784380680E+02  0.76972417901E+02 -0.63993989573E+03  0.65145415473E+03  0.80412734631E+02 0.  0.
         -6    2    1    2    0  502  0.12615283766E+02 -0.87402178236E+02  0.11841373337E+02  0.19435876010E+03  0.17273338809E+03 0.  0.
        -24    2    5    5    0    0  0.80956827106E+00 -0.12114986603E+03  0.37573198440E+02  0.15005866786E+03  0.80174267186E+02 0.  0.
          5    1    3    3  501    0 -0.62399664446E+02  0.10429760335E+02 -0.17765728590E+03  0.18864437245E+03  0.47000000000E+01 0. -1.
        -13    1    4    4    0    0 -0.19219526060E+01  0.34381994566E+02 -0.74659590268E+02  0.82218427807E+02  0.00000000000E+00 0.  1.
         14    1    4    4    0    0  0.51706333286E+02  0.42590423335E+02 -0.56528030546E+03  0.56923572693E+03  0.00000000000E+00 0. -1.
         -5    1    5    5    0  502  0.11805715495E+02  0.33747687794E+02 -0.25731825102E+02  0.44300092244E+02  0.47000000000E+01 0.  1.
         13    1    6    6    0    0 -0.22305402019E+02 -0.60194595678E+00  0.88083110083E+01  0.23989156738E+02  0.00000000000E+00 0. -1.
        -14    1    6    6    0    0  0.23114970290E+02 -0.12054792007E+03  0.28764887431E+02  0.12606951112E+03  0.00000000000E+00 0.  1.
</event>
<event>
12    1  0.8053217E-002  0.1914459E+03  0.7818608E-02  0.1157569E+00
         21   -1    0    0  503  502  0.00000000000E+00  0.00000000000E+00  0.81426543222E+03  0.81426543222E+03  0.00000000000E+00 0.  1.
         21   -1    0    0  501  503 -0.00000000000E+00 -0.00000000000E+00 -0.51015920318E+02  0.51015920318E+02  0.00000000000E+00 0. -1.
          6    2    1    2  501    0  0.32672669574E+02  0.76823189754E+02  0.53677567454E+03  0.56989441835E+03  0.17228527931E+03 0.  0.
         24    2    3    3    0    0  0.18153252339E+02 -0.18439416615E+02  0.34233114148E+03  0.35283096199E+03  0.81421892980E+02 0.  0.
         -6    2    1    2    0  502 -0.32672669574E+02 -0.76823189754E+02  0.22647383736E+03  0.29538693419E+03  0.17027547110E+03 0.  0.
        -24    2    5    5    0    0 -0.56255008855E+02 -0.89862039724E+02  0.10212966455E+03  0.16806960761E+03  0.81099398378E+02 0.  0.
          5    1    3    3  501    0  0.14519417235E+02  0.95262606369E+02  0.19444453306E+03  0.21706345636E+03  0.47000000000E+01 0. -1.
        -13    1    4    4    0    0  0.40281163533E+02 -0.30306981913E+02  0.29476354566E+03  0.29904286171E+03  0.00000000000E+00 0.  1.
         14    1    4    4    0    0 -0.22127911194E+02  0.11867565298E+02  0.47567595819E+02  0.53788100282E+02  0.00000000000E+00 0. -1.
         -5    1    5    5    0  502  0.23582339281E+02  0.13038849971E+02  0.12434417281E+03  0.12731732657E+03  0.47000000000E+01 0.  1.
         13    1    6    6    0    0 -0.76099450714E+02 -0.61239735717E+02  0.83861119327E+02  0.12874051019E+03  0.00000000000E+00 0. -1.
        -14    1    6    6    0    0  0.19844441859E+02 -0.28622304007E+02  0.18268545223E+02  0.39329097421E+02  0.00000000000E+00 0.  1.
</event>
<event>
12    1  0.8053217E-002  0.2498791E+03  0.7818608E-02  0.1114380E+00
         21   -1    0    0  501  502  0.00000000000E+00  0.00000000000E+00  0.22077610426E+02  0.22077610426E+02  0.00000000000E+00 0.  1.
         21   -1    0    0  502  503 -0.00000000000E+00 -0.00000000000E+00 -0.28132928151E+04  0.28132928151E+04  0.00000000000E+00 0. -1.
         -6    2    1    2    0  503  0.90675948974E+02 -0.14706583082E+03 -0.11797279323E+04  0.12046249489E+04  0.17179286087E+03 0.  0.
        -24    2    3    3    0    0  0.13053931823E+03 -0.11861879556E+03 -0.96615586249E+03  0.98545962087E+03  0.81009761687E+02 0.  0.
          6    2    1    2  501    0 -0.90675948974E+02  0.14706583082E+03 -0.16114872724E+04  0.16307454766E+04  0.18052449712E+03 0.  0.
         24    2    5    5    0    0  0.23991251892E+01  0.11143576178E+03 -0.11770697673E+04  0.11850178355E+04  0.79689075304E+02 0.  0.
          5    1    5    5  501    0 -0.93075074163E+02  0.35630069037E+02 -0.43441750513E+03  0.44572764107E+03  0.47000000000E+01 0. -1.
        -13    1    6    6    0    0  0.14673121813E+02  0.45994443519E+01 -0.39677233707E+02  0.42552770377E+02  0.00000000000E+00 0.  1.
         14    1    6    6    0    0 -0.12273996624E+02  0.10683631743E+03 -0.11373925336E+04  0.11424650652E+04  0.00000000000E+00 0. -1.
         -5    1    3    3    0  503 -0.39863369253E+02 -0.28447035261E+02 -0.21357206977E+03  0.21916532803E+03  0.47000000000E+01 0.  1.
         11    1    4    4    0    0  0.66491448980E+02 -0.98563463306E+02 -0.74223325183E+03  0.75169546308E+03  0.00000000000E+00 0. -1.
        -12    1    4    4    0    0  0.64047869247E+02 -0.20055332249E+02 -0.22392261066E+03  0.23376415780E+03  0.00000000000E+00 0.  1.
</event>
<event>
12    1  0.8053217E-002  0.1988977E+03  0.7818608E-02  0.1151871E+00
         21   -1    0    0  501  502  0.00000000000E+00  0.00000000000E+00  0.54239722430E+03  0.54239722430E+03  0.00000000000E+00 0.  1.
         21   -1    0    0  502  503 -0.00000000000E+00 -0.00000000000E+00 -0.98993656229E+02  0.98993656229E+02  0.00000000000E+00 0.  1.
         -6    2    1    2    0  503 -0.96870909580E+02  0.19232767185E+02  0.48657403132E+02  0.19936733121E+03  0.16621046122E+03 0.  0.
        -24    2    3    3    0    0  0.81912746344E+01  0.24713019255E+02  0.86278685532E+01  0.86706116268E+02  0.82253754819E+02 0.  0.
          6    2    1    2  501    0  0.96870909580E+02 -0.19232767185E+02  0.39474616494E+03  0.44202354932E+03  0.17264533286E+03 0.  0.
         24    2    5    5    0    0  0.98606799069E+02 -0.66123564816E+02  0.21874740782E+03  0.25981648930E+03  0.74555704233E+02 0.  0.
          5    1    5    5  501    0 -0.17358894894E+01  0.46890797631E+02  0.17599875712E+03  0.18220706002E+03  0.47000000000E+01 0. -1.
        -13    1    6    6    0    0  0.79518259715E+02 -0.38203987912E+02  0.87394676039E+02  0.12417941746E+03  0.00000000000E+00 0.  1.
         14    1    6    6    0    0  0.19088539354E+02 -0.27919576904E+02  0.13135273179E+03  0.13563707184E+03  0.00000000000E+00 0. -1.
         -5    1    3    3    0  503 -0.10506218421E+03 -0.54802520699E+01  0.40029534579E+02  0.11266121495E+03  0.47000000000E+01 0.  1.
         13    1    4    4    0    0  0.15286557628E+02 -0.27888949541E+02 -0.42541632794E+01  0.32086917207E+02  0.00000000000E+00 0. -1.
        -14    1    4    4    0    0 -0.70952829939E+01  0.52601968796E+02  0.12882031833E+02  0.54619199061E+02  0.00000000000E+00 0.  1.
</event>
<event>
12    1  0.8053217E-002  0.1739821E+03  0.7818608E-02  0.1174030E+00
         21   -1    0    0  503  502  0.00000000000E+00  0.00000000000E+00  0.45451832671E+02  0.45451832671E+02  0.00000000000E+00 0.  1.
         21   -1    0    0  501  503 -0.00000000000E+00 -0.00000000000E+00 -0.12808496139E+04  0.12808496139E+04  0.00000000000E+00 0.  1.
          6    2    1    2  501    0  0.65795621882E+01 -0.32397824600E+02 -0.10796828551E+04  0.10936109242E+04  0.17081240121E+03 0.  0.
         24    2    3    3    0    0  0.47423433931E+02 -0.70033492758E+02 -0.76205856734E+03  0.77113310558E+03  0.82215170498E+02 0.  0.
         -6    2    1    2    0  502 -0.65795621882E+01  0.32397824600E+02 -0.15571492621E+03  0.23269052238E+03  0.16971986119E+03 0.  0.
        -24    2    5    5    0    0 -0.32848102384E+02  0.25888793427E+02 -0.17694056346E+03  0.19797710469E+03  0.78343752340E+02 0.  0.
          5    1    3    3  501    0 -0.40843871743E+02  0.37635668158E+02 -0.31762428772E+03  0.32247781866E+03  0.47000000000E+01 0. -1.
        -11    1    4    4    0    0  0.18551309383E+02  0.13836059135E+02 -0.28205690219E+03  0.28300474145E+03  0.00000000000E+00 0.  1.
         12    1    4    4    0    0  0.28872124549E+02 -0.83869551893E+02 -0.48000166516E+03  0.48812836412E+03  0.00000000000E+00 0. -1.
         -5    1    5    5    0  502  0.26268540195E+02  0.65090311732E+01  0.21225637249E+02  0.34713417686E+02  0.47000000000E+01 0.  1.
         13    1    6    6    0    0 -0.14057931112E+02 -0.85255744087E+01  0.30741671149E+00  0.16444006543E+02  0.00000000000E+00 0. -1.
        -14    1    6    6    0    0 -0.18790171271E+02  0.34414367836E+02 -0.17724798017E+03  0.18153309815E+03  0.00000000000E+00 0.  1.
</event>
<event>
12    1  0.8053217E-002  0.2121097E+03  0.7818608E-02  0.1140360E+00
         21   -1    0    0  501  502  0.00000000000E+00  0.00000000000E+00  0.52102301234E+03  0.52102301234E+03  0.00000000000E+00 0. -1.
         21   -1    0    0  502  503 -0.00000000000E+00 -0.00000000000E+00 -0.85598656868E+02  0.85598656868E+02  0.00000000000E+00 0. -1.
         -6    2    1    2    0  503 -0.84441591798E+02  0.90674169318E+02  0.23067912862E+03  0.31181471912E+03  0.16930260267E+03 0.  0.
        -24    2    3    3    0    0 -0.50999850752E+02  0.80642434442E+02  0.60151599467E+02  0.13768627817E+03  0.78962708085E+02 0.  0.
          6    2    1    2  501    0  0.84441591798E+02 -0.90674169318E+02  0.20474522685E+03  0.29480695008E+03  0.17215789989E+03 0.  0.
         24    2    5    5    0    0 -0.18570706978E+02 -0.12925525377E+02  0.93407542148E+02  0.12429432484E+03  0.78817319753E+02 0.  0.
          5    1    5    5  501    0  0.10301229878E+03 -0.77748643940E+02  0.11133768470E+03  0.17051262524E+03  0.47000000000E+01 0. -1.
        -13    1    6    6    0    0  0.13816203575E+00  0.19834691143E+02  0.82746816376E+02  0.85090949471E+02  0.00000000000E+00 0.  1.
         14    1    6    6    0    0 -0.18708869014E+02 -0.32760216520E+02  0.10660725771E+02  0.39203375367E+02  0.00000000000E+00 0. -1.
         -5    1    3    3    0  503 -0.33441741046E+02  0.10031734875E+02  0.17052752915E+03  0.17412844095E+03  0.47000000000E+01 0.  1.
         11    1    4    4    0    0  0.10644957451E+02  0.55915182891E+02  0.21536264000E+02  0.60857484864E+02  0.00000000000E+00 0. -1.
        -12    1    4    4    0    0 -0.61644808202E+02  0.24727251551E+02  0.38615335466E+02  0.76828793305E+02  0.00000000000E+00 0.  1.
</event>
<event>
12    1  0.8053217E-002  0.1934579E+03  0.7818608E-02  0.1156423E+00
         21   -1    0    0  501  502  0.00000000000E+00  0.00000000000E+00  0.15892849885E+03  0.15892849885E+03  0.00000000000E+00 0. -1.
         21   -1    0    0  502  503 -0.00000000000E+00 -0.00000000000E+00 -0.29016841284E+03  0.29016841284E+03  0.00000000000E+00 0. -1.
         -6    2    1    2    0  503  0.73624798544E+02 -0.38091642338E+02 -0.16864738128E+03  0.25664739107E+03  0.17479805477E+03 0.  0.
        -24    2    3    3    0    0  0.65350368442E+02  0.41241828017E+02 -0.78213464125E+02  0.13597158950E+03  0.79996050817E+02 0.  0.
          6    2    1    2  501    0 -0.73624798544E+02  0.38091642338E+02  0.37407467291E+02  0.19244952063E+03  0.16960517446E+03 0.  0.
         24    2    5    5    0    0 -0.66859876318E+02  0.33393081860E+02 -0.38650442324E+02  0.11580269252E+03  0.79567995617E+02 0.  0.
          5    1    5    5  501    0 -0.67649222255E+01  0.46985604773E+01  0.76057909615E+02  0.76646828103E+02  0.47000000000E+01 0. -1.
        -13    1    6    6    0    0 -0.50994511856E+01  0.36844539491E+02 -0.39070219554E+02  0.53944476536E+02  0.00000000000E+00 0.  1.
         14    1    6    6    0    0 -0.61760425133E+02 -0.34514576308E+01  0.41977723003E+00  0.61858215988E+02  0.00000000000E+00 0. -1.
         -5    1    3    3    0  503  0.82744301014E+01 -0.79333470355E+02 -0.90433917159E+02  0.12067580157E+03  0.47000000000E+01 0.  1.
         11    1    4    4    0    0  0.35696307442E+02 -0.20465942109E+02 -0.40829557309E+02  0.57966661983E+02  0.00000000000E+00 0. -1.
        -12    1    4    4    0    0  0.29654061000E+02  0.61707770126E+02 -0.37383906816E+02  0.78004927515E+02  0.00000000000E+00 0.  1.
</event>
<event>
12    1  0.8053217E-002  0.2030026E+03  0.7818608E-02  0.1147626E+00
         21   -1    0    0  503  502  0.00000000000E+00  0.00000000000E+00  0.90831184469E+02  0.90831184469E+02  0.00000000000E+00 0.  1.
         21   -1    0    0  501  503 -0.00000000000E+00 -0.00000000000E+00 -0.95615746570E+03  0.95615746570E+03  0.00000000000E+00 0.  1.
          6    2    1    2  501    0  0.10300085046E+03  0.27695215620E+02 -0.81278974883E+03  0.83729805194E+03  0.17048358227E+03 0.  0.
         24    2    3    3    0    0  0.72575115081E+02  0.82917037147E+02 -0.61589536870E+03  0.63050186757E+03  0.77866022385E+02 0.  0.
         -6    2    1    2    0  502 -0.10300085046E+03 -0.27695215620E+02 -0.52536532401E+02  0.20969059823E+03  0.17272480883E+03 0.  0.
        -24    2    5    5    0    0 -0.81070288589E+02 -0.40429747559E+02 -0.99533252225E+02  0.15608183475E+03  0.79042486422E+02 0.  0.
          5    1    3    3  501    0  0.30425735374E+02 -0.55221821527E+02 -0.19689438013E+03  0.20679618438E+03  0.47000000000E+01 0. -1.
        -11    1    4    4    0    0  0.60259408698E+01 -0.15747246745E+01 -0.22482715208E+03  0.22491340564E+03  0.00000000000E+00 0.  1.
         12    1    4    4    0    0  0.66549174212E+02  0.84491761822E+02 -0.39106821661E+03  0.40558846193E+03  0.00000000000E+00 0. -1.
         -5    1    5    5    0  502 -0.21930561866E+02  0.12734531939E+02  0.46996719824E+02  0.53608763479E+02  0.47000000000E+01 0.  1.
         13    1    6    6    0    0 -0.77472141917E+02  0.35759534895E+00 -0.77508093807E+02  0.10958816201E+03  0.00000000000E+00 0. -1.
        -14    1    6    6    0    0 -0.35981466721E+01 -0.40787342908E+02 -0.22025158418E+02  0.46493672734E+02  0.00000000000E+00 0.  1.
</event>
<event>
12    1  0.8053217E-002  0.2019474E+03  0.7818608E-02  0.1148198E+00
         21   -1    0    0  501  502  0.00000000000E+00  0.00000000000E+00  0.94238121584E+02  0.94238121584E+02  0.00000000000E+00 0.  1.
         21   -1    0    0  502  503 -0.00000000000E+00 -0.00000000000E+00 -0.49695352944E+03  0.49695352944E+03  0.00000000000E+00 0. -1.
         -6    2    1    2    0  503 -0.93765544291E+02 -0.46570431122E+02 -0.30818132653E+03  0.36821308490E+03  0.17217538593E+03 0.  0.
        -24    2    3    3    0    0 -0.10120438362E+03 -0.44930275603E+02 -0.12570165967E+03  0.18551402837E+03  0.79708785890E+02 0.  0.
          6    2    1    2  501    0  0.93765544291E+02  0.46570431122E+02 -0.94534081323E+02  0.22297856612E+03  0.17269037630E+03 0.  0.
         24    2    5    5    0    0  0.12016403223E+03  0.72617719908E+02 -0.62441095691E+02  0.17371000469E+03  0.81015723239E+02 0.  0.
          5    1    5    5  501    0 -0.26398487939E+02 -0.26047288786E+02 -0.32092985632E+02  0.49268561430E+02  0.47000000000E+01 0. -1.
        -13    1    6    6    0    0  0.64438923305E+02 -0.64556798694E+01 -0.17754083151E+02  0.67151009731E+02  0.00000000000E+00 0.  1.
         14    1    6    6    0    0  0.55725108925E+02  0.79073399777E+02 -0.44687012540E+02  0.10655899496E+03  0.00000000000E+00 0. -1.
         -5    1    3    3    0  503  0.74388393285E+01 -0.16401555189E+01 -0.18247966686E+03  0.18269905653E+03  0.47000000000E+01 0.  1.
         11    1    4    4    0    0  0.10808175705E+02 -0.65657582079E+00 -0.29312510527E+02  0.31248536402E+02  0.00000000000E+00 0. -1.
        -12    1    4    4    0    0 -0.11201255933E+03 -0.44273699782E+02 -0.96389149143E+02  0.15426549197E+03  0.00000000000E+00 0.  1.
</event>
<event>
12    1  0.8053217E-002  0.1796100E+03  0.7818608E-02  0.1168346E+00
         21   -1    0    0  501  502  0.00000000000E+00  0.00000000000E+00  0.53663272537E+03  0.53663272537E+03  0.00000000000E+00 0.  1.
         21   -1    0    0  502  503 -0.00000000000E+00 -0.00000000000E+00 -0.60318514754E+02  0.60318514754E+02  0.00000000000E+00 0.  1.
         -6    2    1    2    0  503  0.14222158654E+02 -0.47533562175E+02  0.21248571606E+03  0.27778793445E+03  0.17191348890E+03 0.  0.
        -24    2    3    3    0    0 -0.18997407693E+02  0.34761343406E+02  0.91855014483E+02  0.12795520359E+03  0.79786828153E+02 0.  0.
          6    2    1    2  501    0 -0.14222158654E+02  0.47533562175E+02  0.26382849456E+03  0.31916330568E+03  0.17262106424E+03 0.  0.
         24    2    5    5    0    0 -0.75840133652E+02  0.25367270062E+02  0.18586522145E+03  0.21723940611E+03  0.79068671164E+02 0.  0.
          5    1    5    5  501    0  0.61617974998E+02  0.22166292112E+02  0.77963273110E+02  0.10192389957E+03  0.47000000000E+01 0. -1.
        -13    1    6    6    0    0  0.71421995937E+01  0.51237811148E+01  0.83309891293E+02  0.83772323205E+02  0.00000000000E+00 0.  1.
         14    1    6    6    0    0 -0.82982333246E+02  0.20243488948E+02  0.10255533016E+03  0.13346708291E+03  0.00000000000E+00 0. -1.
         -5    1    3    3    0  503  0.33219566348E+02 -0.82294905580E+02  0.12063070157E+03  0.14983273085E+03  0.47000000000E+01 0.  1.
         11    1    4    4    0    0  0.80351533507E+01  0.27307321537E+02  0.95523864183E+02  0.99674781802E+02  0.00000000000E+00 0. -1.
        -12    1    4    4    0    0 -0.27032561044E+02  0.74540218689E+01 -0.36688496993E+01  0.28280421792E+02  0.00000000000E+00 0.  1.
</event>
<event>
12    1  0.8053217E-002  0.1784474E+03  0.7818608E-02  0.1170808E+00
         21   -1    0    0  503  502  0.00000000000E+00  0.00000000000E+00  0.24963071054E+04  0.24963071054E+04  0.00000000000E+00 0. -1.
         21   -1    0    0  501  503 -0.00000000000E+00 -0.00000000000E+00 -0.17657872645E+02  0.17657872645E+02  0.00000000000E+00 0. -1.
          6    2    1    2  501    0  0.15490557747E+02 -0.11885696619E+02  0.19444138094E+04  0.19525850895E+04  0.17737599141E+03 0.  0.
         24    2    3    3    0    0  0.18132169911E+02  0.57405182613E+02  0.82608551535E+03  0.83209927193E+03  0.79673013656E+02 0.  0.
         -6    2    1    2    0  502 -0.15490557747E+02  0.11885696619E+02  0.53423542332E+03  0.56137988852E+03  0.17134370297E+03 0.  0.
        -24    2    5    5    0    0  0.17872713498E+01 -0.54577729316E+02  0.39051479737E+03  0.40202613523E+03  0.78366342060E+02 0.  0.
          5    1    3    3  501    0 -0.26416121649E+01 -0.69290879232E+02  0.11183282941E+04  0.11204858176E+04  0.47000000000E+01 0. -1.
        -11    1    4    4    0    0  0.34348003200E+02  0.54574196242E+02  0.78767508377E+03  0.79031017064E+03  0.00000000000E+00 0.  1.
         12    1    4    4    0    0 -0.16215833288E+02  0.28309863703E+01  0.38410431579E+02  0.41789101296E+02  0.00000000000E+00 0. -1.
         -5    1    5    5    0  502 -0.17277829096E+02  0.66463425935E+02  0.14372062594E+03  0.15935375329E+03  0.47000000000E+01 0.  1.
         11    1    6    6    0    0  0.45169322816E+01  0.18024289369E+02  0.13872438219E+03  0.13996332340E+03  0.00000000000E+00 0. -1.
        -12    1    6    6    0    0 -0.27296609318E+01 -0.72602018685E+02  0.25179041518E+03  0.26206281183E+03  0.00000000000E+00 0.  1.
</event>
<event>
12    1  0.8053217E-002  0.2101249E+03  0.7818608E-02  0.1141636E+00
         21   -1    0    0  501  502  0.00000000000E+00  0.00000000000E+00  0.21868087353E+03  0.21868087353E+03  0.00000000000E+00 0.  1.
         21   -1    0    0  502  503 -0.00000000000E+00 -0.00000000000E+00 -0.36431682774E+03  0.36431682774E+03  0.00000000000E+00 0.  1.
         -6    2    1    2    0  503  0.11452792490E+03 -0.35302412718E+02 -0.26785468597E+03  0.33991355739E+03  0.17155811778E+03 0.  0.
        -24    2    3    3    0    0  0.44848723774E+02 -0.14372871978E+01 -0.41268524329E+02  0.10040277174E+03  0.79775633210E+02 0.  0.
          6    2    1    2  501    0 -0.11452792490E+03  0.35302412718E+02  0.12221873176E+03  0.24308414388E+03  0.17259657206E+03 0.  0.
         24    2    5    5    0    0 -0.54201032907E+02  0.27988299509E+02  0.14698666653E+03  0.17729378940E+03  0.78146725738E+02 0.  0.
          5    1    5    5  501    0 -0.60326891988E+02  0.73141132094E+01 -0.24767934772E+02  0.65790354474E+02  0.47000000000E+01 0. -1.
        -13    1    6    6    0    0 -0.18120719925E+02 -0.68140276262E+01 -0.25976458798E+01  0.19533029136E+02  0.00000000000E+00 0.  1.
         14    1    6    6    0    0 -0.36080312982E+02  0.34802327135E+02  0.14958431241E+03  0.15776076027E+03  0.00000000000E+00 0. -1.
         -5    1    3    3    0  503  0.69679201121E+02 -0.33865125521E+02 -0.22658616165E+03  0.23951078565E+03  0.47000000000E+01 0.  1.
         13    1    4    4    0    0  0.27070764192E+02 -0.40413405407E+02 -0.23563269352E+02  0.54049026569E+02  0.00000000000E+00 0. -1.
        -14    1    4    4    0    0  0.17777959582E+02  0.38976118209E+02 -0.17705254977E+02  0.46353745170E+02  0.00000000000E+00 0.  1.
</event>
<event>
12    1  0.8053217E-002  0.2952097E+03  0.7818608E-02  0.1087883E+00
         21   -1    0    0  501  502  0.00000000000E+00  0.00000000000E+00  0.10394254629E+04  0.10394254629E+04  0.00000000000E+00 0. -1.
         21   -1    0    0  502  503 -0.00000000000E+00 -0.00000000000E+00 -0.10824484077E+03  0.10824484077E+03  0.00000000000E+00 0. -1.
         -6    2    1    2    0  503 -0.23612232090E+03  0.32465633572E+02  0.19145446654E+03  0.35185734410E+03  0.17418671030E+03 0.  0.
        -24    2    3    3    0    0 -0.19680348054E+03  0.85188985514E+02  0.14830465686E+03  0.27305557303E+03  0.81094398768E+02 0.  0.
          6    2    1    2  501    0  0.23612232090E+03 -0.32465633572E+02  0.73972615558E+03  0.79581295956E+03  0.17121832136E+03 0.  0.
         24    2    5    5    0    0  0.11824101809E+03 -0.57474513794E+02  0.27058224524E+03  0.31141689822E+03  0.80507608080E+02 0.  0.
          5    1    5    5  501    0  0.11788130281E+03  0.25008880223E+02  0.46914391034E+03  0.48439606135E+03  0.47000000000E+01 0. -1.
        -13    1    6    6    0    0  0.76500330803E+02 -0.72666345116E+02  0.22069507562E+03  0.24462014375E+03  0.00000000000E+00 0.  1.
         14    1    6    6    0    0  0.41740687290E+02  0.15191831322E+02  0.49887169627E+02  0.66796754470E+02  0.00000000000E+00 0. -1.
         -5    1    3    3    0  503 -0.39318840362E+02 -0.52723351943E+02  0.43149809689E+02  0.78801771070E+02  0.47000000000E+01 0.  1.
         13    1    4    4    0    0 -0.16985932311E+03  0.63904534704E+02  0.83616521834E+02  0.19981917307E+03  0.00000000000E+00 0. -1.
        -14    1    4    4    0    0 -0.26944157425E+02  0.21284450810E+02  0.64688135022E+02  0.73236399954E+02  0.00000000000E+00 0.  1.
</event>
<event>
12    1  0.8053217E-002  0.1897393E+03  0.7818608E-02  0.1159546E+00
         21   -1    0    0  501  502  0.00000000000E+00  0.00000000000E+00  0.55993861261E+03  0.55993861261E+03  0.00000000000E+00 0.  1.
         21   -1    0    0  502  503 -0.00000000000E+00 -0.00000000000E+00 -0.80699599833E+02  0.80699599833E+02  0.00000000000E+00 0.  1.
         -6    2    1    2    0  503  0.16942502822E+02  0.78492250080E+02  0.87931016977E+02  0.20575551721E+03  0.16779567155E+03 0.  0.
        -24    2    3    3    0    0 -0.11696875791E+02 -0.17284942054E+02  0.61656863423E+02  0.10228617061E+03  0.78900606881E+02 0.  0.
          6    2    1    2  501    0 -0.16942502822E+02 -0.78492250080E+02  0.39130799580E+03  0.43488269524E+03  0.17190965451E+03 0.  0.
         24    2    5    5    0    0 -0.31564582795E+02 -0.80863231699E+02  0.14131538999E+03  0.18440750736E+03  0.80628184882E+02 0.  0.
          5    1    5    5  501    0  0.14622079973E+02  0.23709816187E+01  0.24999260582E+03  0.25047518787E+03  0.47000000000E+01 0. -1.
        -11    1    6    6    0    0 -0.41315280346E+01 -0.45648462458E+02  0.13072749595E+03  0.13852988791E+03  0.00000000000E+00 0.  1.
         12    1    6    6    0    0 -0.27433054761E+02 -0.35214769241E+02  0.10587894038E+02  0.45877619449E+02  0.00000000000E+00 0. -1.
         -5    1    3    3    0  503  0.28639378613E+02  0.95777192134E+02  0.26274153554E+02  0.10346934660E+03  0.47000000000E+01 0.  1.
         11    1    4    4    0    0 -0.93829355582E+00 -0.32523320398E+02  0.73369403673E+02  0.80260302515E+02  0.00000000000E+00 0. -1.
        -12    1    4    4    0    0 -0.10758582235E+02  0.15238378344E+02 -0.11712540251E+02  0.22025868096E+02  0.00000000000E+00 0.  1.
</event>
<event>
12    1  0.8053217E-002  0.3150025E+03  0.7818608E-02  0.1078046E+00
         21   -1    0    0  501  502  0.00000000000E+00  0.00000000000E+00  0.11042051088E+04  0.11042051088E+04  0.00000000000E+00 0.  1.
         21   -1    0    0  502  503 -0.00000000000E+00 -0.00000000000E+00 -0.13876782399E+03  0.13876782399E+03  0.00000000000E+00 0.  1.
         -6    2    1    2    0  503 -0.25194528974E+03 -0.80451877164E+02  0.11340736815E+03  0.33479512506E+03  0.17110701636E+03 0.  0.
        -24    2    3    3    0    0 -0.13913843156E+03 -0.11234825083E+03  0.86148847209E+02  0.21434645188E+03  0.80877345139E+02 0.  0.
          6    2    1    2  501    0  0.25194528974E+03  0.80451877164E+02  0.85202991663E+03  0.90817780772E+03  0.16995004568E+03 0.  0.
         24    2    5    5    0    0  0.15114346583E+03  0.10836489401E+03  0.64558911948E+03  0.67670418731E+03  0.80968811393E+02 0.  0.
          5    1    5    5  501    0  0.10080182391E+03 -0.27913016847E+02  0.20644079716E+03  0.23147362041E+03  0.47000000000E+01 0. -1.
        -13    1    6    6    0    0  0.13077766836E+02  0.32048753242E+02  0.51681501113E+02  0.62202316091E+02  0.00000000000E+00 0.  1.
         14    1    6    6    0    0  0.13806569899E+03  0.76316140768E+02  0.59390761836E+03  0.61450187122E+03  0.00000000000E+00 0. -1.
         -5    1    3    3    0  503 -0.11280685819E+03  0.31896373663E+02  0.27258520940E+02  0.12044867318E+03  0.47000000000E+01 0.  1.
         11    1    4    4    0    0 -0.55691421056E+01 -0.33654896963E+02  0.40053986549E+02  0.52611683796E+02  0.00000000000E+00 0. -1.
        -12    1    4    4    0    0 -0.13356928945E+03 -0.78693353863E+02  0.46094860660E+02  0.16173476808E+03  0.00000000000E+00 0.  1.
</event>
<event>
12    1  0.8053217E-002  0.2298654E+03  0.7818608E-02  0.1128551E+00
         21   -1    0    0  503  502  0.00000000000E+00  0.00000000000E+00  0.81804933764E+03  0.81804933764E+03  0.00000000000E+00 0.  1.
         21   -1    0    0  501  503 -0.00000000000E+00 -0.00000000000E+00 -0.74843800205E+02  0.74843800205E+02  0.00000000000E+00 0.  1.
          6    2    1    2  501    0 -0.96613248458E+02  0.98442517572E+02  0.17832841402E+03  0.28303721561E+03  0.17112566473E+03 0.  0.
         24    2    3    3    0    0 -0.54337052865E+02 -0.75000713040E+01  0.48072229825E+02  0.10983250328E+03  0.82118652646E+02 0.  0.
         -6    2    1    2    0  502  0.96613248458E+02 -0.98442517572E+02  0.56487712341E+03  0.60985592224E+03  0.18388320285E+03 0.  0.
        -24    2    5    5    0    0  0.13873680373E+03 -0.66532824416E+02  0.38391528810E+03  0.42127729603E+03  0.80056819041E+02 0.  0.
          5    1    3    3  501    0 -0.42276195593E+02  0.10594258888E+03  0.13025618420E+03  0.17320471233E+03  0.47000000000E+01 0. -1.
        -13    1    4    4    0    0 -0.75084441490E+02 -0.13495771450E+02  0.31176455274E+02  0.82412259794E+02  0.00000000000E+00 0.  1.
         14    1    4    4    0    0  0.20747388625E+02  0.59957001462E+01  0.16895774551E+02  0.27420243483E+02  0.00000000000E+00 0. -1.
         -5    1    5    5    0  502 -0.42123555267E+02 -0.31909693156E+02  0.18096183531E+03  0.18857862621E+03  0.47000000000E+01 0.  1.
         11    1    6    6    0    0  0.25362223432E+01 -0.49326157409E+01 -0.31299362427E+01  0.63686437100E+01  0.00000000000E+00 0. -1.
        -12    1    6    6    0    0  0.13620058138E+03 -0.61600208675E+02  0.38704522435E+03  0.41490865232E+03  0.00000000000E+00 0.  1.
</event>
<event>
12    1  0.8053217E-002  0.2627155E+03  0.7818608E-02  0.1105692E+00
         21   -1    0    0  501  502  0.00000000000E+00  0.00000000000E+00  0.38519855980E+03  0.38519855980E+03  0.00000000000E+00 0.  1.
         21   -1    0    0  502  503 -0.00000000000E+00 -0.00000000000E+00 -0.18646111654E+03  0.18646111654E+03  0.00000000000E+00 0. -1.
         -6    2    1    2    0  503 -0.22679158603E+02  0.19629439437E+03  0.15858475851E+03  0.30589350995E+03  0.17139393310E+03 0.  0.
        -24    2    3    3    0    0 -0.43203822605E+02  0.31895992086E+02  0.71584239431E+02  0.11870569831E+03  0.77992402696E+02 0.  0.
          6    2    1    2  501    0  0.22679158603E+02 -0.19629439437E+03  0.40152684741E+02  0.26576616638E+03  0.17312880640E+03 0.  0.
         24    2    5    5    0    0  0.32681960287E+02 -0.18737399355E+03  0.81901436123E+02  0.22166766489E+03  0.79066961691E+02 0.  0.
          5    1    5    5  501    0 -0.10002801683E+02 -0.89204008245E+01 -0.41748751382E+02  0.44098501498E+02  0.47000000000E+01 0. -1.
        -13    1    6    6    0    0  0.45853017656E+02 -0.13867301413E+03  0.88515249809E+02  0.17078540197E+03  0.00000000000E+00 0.  1.
         14    1    6    6    0    0 -0.13171057369E+02 -0.48700979414E+02 -0.66138136860E+01  0.50882262918E+02  0.00000000000E+00 0. -1.
         -5    1    3    3    0  503  0.20524664001E+02  0.16439840228E+03  0.87000519083E+02  0.18718781164E+03  0.47000000000E+01 0.  1.
         13    1    4    4    0    0  0.20561871856E+02  0.19316573668E+02  0.12455557772E+02  0.30839285204E+02  0.00000000000E+00 0. -1.
        -14    1    4    4    0    0 -0.63765694461E+02  0.12579418418E+02  0.59128681660E+02  0.87866413109E+02  0.00000000000E+00 0.  1.
</event>
<event>
12    1  0.8053217E-002  0.1956868E+03  0.7818608E-02  0.1153935E+00
         21   -1    0    0  503  502  0.00000000000E+00  0.00000000000E+00  0.50873567479E+02  0.50873567479E+02  0.00000000000E+00 0.  1.
         21   -1    0    0  501  503 -0.00000000000E+00 -0.00000000000E+00 -0.76203332302E+03  0.76203332302E+03  0.00000000000E+00 0. -1.
          6    2    1    2  501    0  0.65172533522E+02  0.68307003874E+02 -0.42043016992E+03  0.46374007152E+03  0.17140600996E+03 0.  0.
         24    2    3    3    0    0  0.71643695444E+01 -0.27600288403E+02 -0.18200534712E+03  0.20024122536E+03  0.78469725646E+02 0.  0.
         -6    2    1    2    0  502 -0.65172533522E+02 -0.68307003874E+02 -0.29072958562E+03  0.34916681898E+03  0.16876157624E+03 0.  0.
        -24    2    5    5    0    0 -0.25624838755E+01 -0.17015903936E+02 -0.45895909245E+02  0.91259055742E+02  0.76978396054E+02 0.  0.
          5    1    3    3  501    0  0.58008163978E+02  0.95907292278E+02 -0.23842482280E+03  0.26349884616E+03  0.47000000000E+01 0. -1.
        -13    1    4    4    0    0 -0.20844692712E+02  0.12235042439E+02 -0.20953372296E+02  0.31988142933E+02  0.00000000000E+00 0.  1.
         14    1    4    4    0    0  0.28009062257E+02 -0.39835330842E+02 -0.16105197482E+03  0.16825308242E+03  0.00000000000E+00 0. -1.
         -5    1    5    5    0  502 -0.62610049647E+02 -0.51291099938E+02 -0.24483367638E+03  0.25790776324E+03  0.47000000000E+01 0.  1.
         13    1    6    6    0    0 -0.15790463375E+02 -0.10912954668E+02 -0.64691370865E+02  0.67478920987E+02  0.00000000000E+00 0. -1.
        -14    1    6    6    0    0  0.13227979500E+02 -0.61029492687E+01  0.18795461620E+02  0.23780134754E+02  0.00000000000E+00 0.  1.
</event>
<event>
12    1  0.8053217E-002  0.2066274E+03  0.7818608E-02  0.1144304E+00
         21   -1    0    0  501  502  0.00000000000E+00  0.00000000000E+00  0.97497597428E+03  0.97497597428E+03  0.00000000000E+00 0.  1.
         21   -1    0    0  502  503 -0.00000000000E+00 -0.00000000000E+00 -0.31135387067E+03  0.31135387067E+03  0.00000000000E+00 0.  1.
         -6    2    1    2    0  503  0.95021242558E+02 -0.62442085619E+02 -0.26443518342E+03  0.33559029160E+03  0.17253065523E+03 0.  0.
        -24    2    3    3    0    0  0.55713566094E+02  0.33311409670E+02 -0.13044061217E+03  0.16620770568E+03  0.79978726315E+02 0.  0.
          6    2    1    2  501    0 -0.95021242558E+02  0.62442085619E+02  0.92805728703E+03  0.95073955335E+03  0.17230008621E+03 0.  0.
         24    2    5    5    0    0 -0.93895676713E+02  0.70915605563E+02  0.92978531641E+03  0.94083281200E+03  0.82584649321E+02 0.  0.
          5    1    5    5  501    0 -0.11255658446E+01 -0.84735199440E+01 -0.17280293819E+01  0.99067413541E+01  0.47000000000E+01 0. -1.
        -13    1    6    6    0    0 -0.81207473377E+02  0.19494165679E+02  0.70308966129E+03  0.70803230720E+03  0.00000000000E+00 0.  1.
         14    1    6    6    0    0 -0.12688203336E+02  0.51421439884E+02  0.22669565512E+03  0.23280050480E+03  0.00000000000E+00 0. -1.
         -5    1    3    3    0  503  0.39307676464E+02 -0.95753495289E+02 -0.13399457125E+03  0.16938258592E+03  0.47000000000E+01 0.  1.
         11    1    4    4    0    0  0.63601939194E+02  0.16679759014E+02 -0.47158746697E+02  0.80915810693E+02  0.00000000000E+00 0. -1.
        -12    1    4    4    0    0 -0.78883731005E+01  0.16631650656E+02 -0.83281865477E+02  0.85291894990E+02  0.00000000000E+00 0.  1.
</event>
<event>
12    1  0.8053217E-002  0.1872871E+03  0.7818608E-02  0.1161157E+00
         21   -1    0    0  501  502  0.00000000000E+00  0.00000000000E+00  0.11667993029E+04  0.11667993029E+04  0.00000000000E+00 0. -1.
         21   -1    0    0  502  503 -0.00000000000E+00 -0.00000000000E+00 -0.29933796572E+02  0.29933796572E+02  0.00000000000E+00 0.  1.
         -6    2    1    2    0  503 -0.43023028415E+02 -0.59057328061E+02  0.58543827435E+03  0.61436855415E+03  0.17138260788E+03 0.  0.
        -24    2    3    3    0    0 -0.83711126906E+02 -0.41722294136E+02  0.28497214526E+03  0.31062851812E+03  0.80824811144E+02 0.  0.
          6    2    1    2  501    0  0.43023028415E+02  0.59057328061E+02  0.55142723198E+03  0.58236454533E+03  0.17244628877E+03 0.  0.
         24    2    5    5    0    0  0.35895276327E+02 -0.20083033995E+02  0.41246498309E+03  0.42221899161E+03  0.80310120714E+02 0.  0.
          5    1    5    5  501    0  0.71277520878E+01  0.79140362056E+02  0.13896224889E+03  0.16014555371E+03  0.47000000000E+01 0. -1.
        -13    1    6    6    0    0 -0.10872665745E+02  0.23684728569E+02  0.10981421245E+03  0.11286426575E+03  0.00000000000E+00 0.  1.
         14    1    6    6    0    0  0.46767942073E+02 -0.43767762564E+02  0.30265077063E+03  0.30935472586E+03  0.00000000000E+00 0. -1.
         -5    1    3    3    0  503  0.40688098491E+02 -0.17335033925E+02  0.30046612909E+03  0.30374003603E+03  0.47000000000E+01 0.  1.
         11    1    4    4    0    0 -0.58118837105E+02 -0.77852396518E+01  0.24623194145E+03  0.25311771604E+03  0.00000000000E+00 0. -1.
        -12    1    4    4    0    0 -0.25592289802E+02 -0.33937054484E+02  0.38740203816E+02  0.57510802081E+02  0.00000000000E+00 0.  1.
</event>
<event>
12    1  0.8053217E-002  0.2413805E+03  0.7818608E-02  0.1118991E+00
         21   -1    0    0  501  502  0.00000000000E+00  0.00000000000E+00  0.49450608464E+03  0.49450608464E+03  0.00000000000E+00 0. -1.
         21   -1    0    0  502  503 -0.00000000000E+00 -0.00000000000E+00 -0.12088657046E+03  0.12088657046E+03  0.00000000000E+00 0.  1.
         -6    2    1    2    0  503  0.12265178653E+03 -0.11562544154E+03  0.13494617768E+03  0.27593790454E+03  0.17180964123E+03 0.  0.
        -24    2    3    3    0    0 -0.39088899625E+01 -0.20735928974E+02  0.50693136182E+02  0.96655196418E+02  0.79543540074E+02 0.  0.
          6    2    1    2  501    0 -0.12265178653E+03  0.11562544154E+03  0.23867333649E+03  0.33945475056E+03  0.17277691585E+03 0.  0.
         24    2    5    5    0    0 -0.15256429790E+03  0.84599443668E+02  0.16252520678E+03  0.25183056132E+03  0.81063295733E+02 0.  0.
          5    1    5    5  501    0  0.29912511366E+02  0.31025997876E+02  0.76148129708E+02  0.87624189232E+02  0.47000000000E+01 0. -1.
        -11    1    6    6    0    0 -0.38212538582E+02  0.58090264360E+02  0.32799564593E+02  0.76879700544E+02  0.00000000000E+00 0.  1.
         12    1    6    6    0    0 -0.11435175932E+03  0.26509179309E+02  0.12972564219E+03  0.17495086078E+03  0.00000000000E+00 0. -1.
         -5    1    3    3    0  503  0.12656067649E+03 -0.94889512569E+02  0.84253041499E+02  0.17928270812E+03  0.47000000000E+01 0.  1.
         13    1    4    4    0    0  0.16357770508E+02 -0.43869370088E+02  0.14190101386E+02  0.48922972777E+02  0.00000000000E+00 0. -1.
        -14    1    4    4    0    0 -0.20266660470E+02  0.23133441114E+02  0.36503034796E+02  0.47732223641E+02  0.00000000000E+00 0.  1.
</event>
<event>
12    1  0.8053217E-002  0.1852412E+03  0.7818608E-02  0.1162887E+00
         21   -1    0    0  501  502  0.00000000000E+00  0.00000000000E+00  0.41612216159E+03  0.41612216159E+03  0.00000000000E+00 0. -1.
         21   -1    0    0  502  503 -0.00000000000E+00 -0.00000000000E+00 -0.11513434469E+03  0.11513434469E+03  0.00000000000E+00 0. -1.
         -6    2    1    2    0  503 -0.46797844376E+02  0.49410527566E+02  0.86559672438E+01  0.18517527269E+03  0.17199859702E+03 0.  0.
        -24    2    3    3    0    0 -0.48574465638E+02  0.94674954928E+02  0.27940691117E+02  0.13571806551E+03  0.79472544207E+02 0.  0.
          6    2    1    2  501    0  0.46797844376E+02 -0.49410527566E+02  0.29233184966E+03  0.34608123359E+03  0.17228717727E+03 0.  0.
         24    2    5    5    0    0  0.72068620542E+01 -0.91216841552E+02  0.15111567033E+03  0.19350563570E+03  0.78968564530E+02 0.  0.
          5    1    5    5  501    0  0.39590982322E+02  0.41806313987E+02  0.14121617933E+03  0.15257559790E+03  0.47000000000E+01 0. -1.
        -11    1    6    6    0    0  0.29652748740E+01  0.14618981284E+02  0.17307928869E+02  0.22848892109E+02  0.00000000000E+00 0.  1.
         12    1    6    6    0    0  0.42415871803E+01 -0.10583582284E+03  0.13380774146E+03  0.17065674359E+03  0.00000000000E+00 0. -1.
         -5    1    3    3    0  503  0.17766212623E+01 -0.45264427362E+02 -0.19284723873E+02  0.49457207184E+02  0.47000000000E+01 0.  1.
         13    1    4    4    0    0 -0.43234002953E+02  0.45888209842E+02 -0.20956840062E+02  0.66438663135E+02  0.00000000000E+00 0. -1.
        -14    1    4    4    0    0 -0.53404626853E+01  0.48786745086E+02  0.48897531179E+02  0.69279402373E+02  0.00000000000E+00 0.  1.
</event>
<event>
12    1  0.8053217E-002  0.2183681E+03  0.7818608E-02  0.1135201E+00
         21   -1    0    0  501  502  0.00000000000E+00  0.00000000000E+00  0.15281599248E+04  0.15281599248E+04  0.00000000000E+00 0. -1.
         21   -1    0    0  502  503 -0.00000000000E+00 -0.00000000000E+00 -0.32095241695E+02  0.32095241695E+02  0.00000000000E+00 0.  1.
         -6    2    1    2    0  503 -0.13231417992E+03 -0.13732136435E+02  0.61203057617E+03  0.64965044994E+03  0.17253598802E+03 0.  0.
        -24    2    3    3    0    0 -0.79171540766E+02 -0.12950306061E+02  0.57126077508E+03  0.58250122779E+03  0.80826752596E+02 0.  0.
          6    2    1    2  501    0  0.13231417992E+03  0.13732136435E+02  0.88403410697E+03  0.91060471659E+03  0.17317342121E+03 0.  0.
         24    2    5    5    0    0  0.15968249864E+03 -0.10569240037E+02  0.73469858788E+03  0.75677764150E+03  0.85558017978E+02 0.  0.
          5    1    5    5  501    0 -0.27368318721E+02  0.24301376471E+02  0.14933551909E+03  0.15382707509E+03  0.47000000000E+01 0. -1.
        -11    1    6    6    0    0  0.52523852154E+02 -0.35972600973E+02  0.17199821840E+03  0.18340166357E+03  0.00000000000E+00 0.  1.
         12    1    6    6    0    0  0.10715864648E+03  0.25403360936E+02  0.56270036948E+03  0.57337597794E+03  0.00000000000E+00 0. -1.
         -5    1    3    3    0  503 -0.53142639150E+02 -0.78183037372E+00  0.40769801086E+02  0.67149222149E+02  0.47000000000E+01 0.  1.
         13    1    4    4    0    0 -0.40080888465E+02 -0.47156555811E+02  0.31900644975E+03  0.32495435581E+03  0.00000000000E+00 0. -1.
        -14    1    4    4    0    0 -0.39090652300E+02  0.34206249750E+02  0.25225432533E+03  0.25754687198E+03  0.00000000000E+00 0.  1.
</event>
<event>
12    1  0.8053217E-002  0.2098213E+03  0.7818608E-02  0.1141779E+00
         21   -1    0    0  501  502  0.00000000000E+00  0.00000000000E+00  0.26863741853E+03  0.26863741853E+03  0.00000000000E+00 0.  1.
         21   -1    0    0  502  503 -0.00000000000E+00 -0.00000000000E+00 -0.22466238872E+03  0.22466238872E+03  0.00000000000E+00 0.  1.
         -6    2    1    2    0  503 -0.34035579357E+02 -0.11574987063E+03  0.15056138891E+03  0.25795828467E+03  0.17122292950E+03 0.  0.
        -24    2    3    3    0    0 -0.36843221963E+02 -0.12511200197E+03  0.17414400095E+03  0.23200135976E+03  0.80548506011E+02 0.  0.
          6    2    1    2  501    0  0.34035579357E+02  0.11574987063E+03 -0.10658635910E+03  0.23534152258E+03  0.17166399474E+03 0.  0.
         24    2    5    5    0    0  0.29253775301E+02  0.10634303220E+03 -0.14254474865E+03  0.19757314905E+03  0.80941460271E+02 0.  0.
          5    1    5    5  501    0  0.47818040564E+01  0.94068384313E+01  0.35958389555E+02  0.37768373524E+02  0.47000000000E+01 0. -1.
        -11    1    6    6    0    0  0.64678653448E+01  0.81783746191E+02 -0.43171922667E+02  0.92705066366E+02  0.00000000000E+00 0.  1.
         12    1    6    6    0    0  0.22785909956E+02  0.24559286010E+02 -0.99372825986E+02  0.10486808269E+03  0.00000000000E+00 0. -1.
         -5    1    3    3    0  503  0.28076426056E+01  0.93621313417E+01 -0.23582612039E+02  0.25956924911E+02  0.47000000000E+01 0.  1.
         13    1    4    4    0    0  0.21629710774E+02 -0.67298860046E+02  0.72449297179E+02  0.10122194235E+03  0.00000000000E+00 0. -1.
        -14    1    4    4    0    0 -0.58472932737E+02 -0.57813141928E+02  0.10169470377E+03  0.13077941741E+03  0.00000000000E+00 0.  1.
</event>
<event>
12    1  0.8053217E-002  0.1734045E+03  0.7818608E-02  0.1174809E+00
         21   -1    0    0  503  502  0.00000000000E+00  0.00000000000E+00  0.57625080997E+02  0.57625080997E+02  0.00000000000E+00 0.  1.
         21   -1    0    0  501  503 -0.00000000000E+00 -0.00000000000E+00 -0.53716046304E+03  0.53716046304E+03  0.00000000000E+00 0.  1.
          6    2    1    2  501    0  0.82883490876E+01 -0.16703404415E+02 -0.29953686745E+03  0.34610903005E+03  0.17239902920E+03 0.  0.
         24    2    3    3    0    0  0.13865829912E+02 -0.33698302570E+02 -0.61938194193E+02  0.10779169037E+03  0.80342216662E+02 0.  0.
         -6    2    1    2    0  502 -0.82883490876E+01  0.16703404415E+02 -0.17999851459E+03  0.24867651399E+03  0.17056624199E+03 0.  0.
        -24    2    5    5    0    0 -0.60789214192E+02 -0.13668593835E+02 -0.69277452746E+02  0.12234345161E+03  0.79286793812E+02 0.  0.
          5    1    3    3  501    0 -0.55774808243E+01  0.16994898155E+02 -0.23759867326E+03  0.23831733967E+03  0.47000000000E+01 0. -1.
        -13    1    4    4    0    0 -0.29199411405E+02  0.57994539037E+01 -0.21833863887E+02  0.36918246224E+02  0.00000000000E+00 0.  1.
         14    1    4    4    0    0  0.43065241317E+02 -0.39497756473E+02 -0.40104330306E+02  0.70873444148E+02  0.00000000000E+00 0. -1.
         -5    1    5    5    0  502  0.52500865104E+02  0.30371998250E+02 -0.11072106185E+03  0.12633306238E+03  0.47000000000E+01 0.  1.
         13    1    6    6    0    0 -0.74914104466E+01 -0.25738046636E+01 -0.67407170909E+02  0.67870998157E+02  0.00000000000E+00 0. -1.
        -14    1    6    6    0    0 -0.53297803745E+02 -0.11094789171E+02 -0.18702818365E+01  0.54472453451E+02  0.00000000000E+00 0.  1.
</event>
<event>
12    1  0.8053217E-002  0.2374072E+03  0.7818608E-02  0.1124098E+00
         21   -1    0    0  501  502  0.00000000000E+00  0.00000000000E+00  0.66706985043E+02  0.66706985043E+02  0.00000000000E+00 0. -1.
         21   -1    0    0  502  503 -0.00000000000E+00 -0.00000000000E+00 -0.99022245983E+03  0.99022245983E+03  0.00000000000E+00 0. -1.
         -6    2    1    2    0  503  0.41322236368E+02  0.15602105081E+03 -0.68541299799E+03  0.72069298588E+03  0.15348389675E+03 0.  0.
        -24    2    3    3    0    0  0.16756081507E+02  0.17057109442E+03 -0.63532545189E+03  0.66284791687E+03  0.79709890025E+02 0.  0.
          6    2    1    2  501    0 -0.41322236368E+02 -0.15602105081E+03 -0.23810247680E+03  0.33623645900E+03  0.17410362255E+03 0.  0.
         24    2    5    5    0    0 -0.38306331112E+02 -0.95070928316E+02 -0.50511675366E+02  0.13891334353E+03  0.78991336535E+02 0.  0.
          5    1    5    5  501    0 -0.30159052559E+01 -0.60950122498E+02 -0.18759080143E+03  0.19732311547E+03  0.47000000000E+01 0. -1.
        -13    1    6    6    0    0  0.73775620388E+01 -0.55540562521E+01 -0.36248247231E+02  0.37406034137E+02  0.00000000000E+00 0.  1.
         14    1    6    6    0    0 -0.45683893151E+02 -0.89516872064E+02 -0.14263428134E+02  0.10150730939E+03  0.00000000000E+00 0. -1.
         -5    1    3    3    0  503  0.24566154861E+02 -0.14550043604E+02 -0.50087546104E+02  0.57845069006E+02  0.47000000000E+01 0.  1.
         13    1    4    4    0    0  0.28495344779E+02  0.97435180244E+02 -0.23910189410E+03  0.25976011007E+03  0.00000000000E+00 0. -1.
        -14    1    4    4    0    0 -0.11739263272E+02  0.73135914174E+02 -0.39622355779E+03  0.40308780680E+03  0.00000000000E+00 0.  1.
</event>
<event>
12    1  0.8053217E-002  0.1942454E+03  0.7818608E-02  0.1154691E+00
         21   -1    0    0  501  502  0.00000000000E+00  0.00000000000E+00  0.31547836777E+03  0.31547836777E+03  0.00000000000E+00 0.  1.
         21   -1    0    0  502  503 -0.00000000000E+00 -0.00000000000E+00 -0.12125117321E+03  0.12125117321E+03  0.00000000000E+00 0.  1.
         -6    2    1    2    0  503  0.65291827079E+02  0.60726975489E+02  0.12269149152E+03  0.22974869483E+03  0.17257019572E+03 0.  0.
        -24    2    3    3    0    0  0.43569848219E+02 -0.28659947373E+02  0.46613568478E+02  0.11028402759E+03  0.85264398892E+02 0.  0.
          6    2    1    2  501    0 -0.65291827079E+02 -0.60726975489E+02  0.71535703037E+02  0.20698084614E+03  0.17254832837E+03 0.  0.
         24    2    5    5    0    0 -0.10182880168E+03 -0.49427251611E+02  0.17312078348E+02  0.14046073078E+03  0.81347100633E+02 0.  0.
          5    1    5    5  501    0  0.36536974603E+02 -0.11299723878E+02  0.54223624689E+02  0.66520115359E+02  0.47000000000E+01 0. -1.
        -11    1    6    6    0    0 -0.28577054464E+02 -0.23991254938E+02  0.44697635117E+02  0.58224624863E+02  0.00000000000E+00 0.  1.
         12    1    6    6    0    0 -0.73251747218E+02 -0.25435996672E+02 -0.27385556769E+02  0.82236105919E+02  0.00000000000E+00 0. -1.
         -5    1    3    3    0  503  0.21721978860E+02  0.89386922861E+02  0.76077923046E+02  0.11946466724E+03  0.47000000000E+01 0.  1.
         13    1    4    4    0    0 -0.46809193730E+01  0.15664730739E+02 -0.13624199644E+02  0.21281767108E+02  0.00000000000E+00 0. -1.
        -14    1    4    4    0    0  0.48250767592E+02 -0.44324678112E+02  0.60237768122E+02  0.89002260484E+02  0.00000000000E+00 0.  1.
</event>
<event>
12    1  0.8053217E-002  0.1730291E+03  0.7818608E-02  0.1175240E+00
         21   -1    0    0  503  502  0.00000000000E+00  0.00000000000E+00  0.46524647380E+02  0.46524647380E+02  0.00000000000E+00 0.  1.
         21   -1    0    0  501  503 -0.00000000000E+00 -0.00000000000E+00 -0.63911822166E+03  0.63911822166E+03  0.00000000000E+00 0.  1.
          6    2    1    2  501    0  0.19604365520E+01 -0.21312652409E+02 -0.32168485179E+03  0.36526729802E+03  0.17170026986E+03 0.  0.
         24    2    3    3    0    0 -0.55640555444E+01  0.43279363593E+02 -0.10599425207E+03  0.13993804710E+03  0.80273367490E+02 0.  0.
         -6    2    1    2    0  502 -0.19604365520E+01  0.21312652409E+02 -0.27090872249E+03  0.32037557102E+03  0.16967880869E+03 0.  0.
        -24    2    5    5    0    0  0.32090906131E+02  0.53294564926E+02 -0.24612806485E+03  0.26728595188E+03  0.83621880273E+02 0.  0.
          5    1    3    3  501    0  0.75244920965E+01 -0.64592016002E+02 -0.21569059972E+03  0.22532925092E+03  0.47000000000E+01 0. -1.
        -13    1    4    4    0    0 -0.29298169846E+02  0.30236040865E+02 -0.14514810127E+02  0.44534039077E+02  0.00000000000E+00 0.  1.
         14    1    4    4    0    0  0.23734114302E+02  0.13043322728E+02 -0.91479441940E+02  0.95404008025E+02  0.00000000000E+00 0. -1.
         -5    1    5    5    0  502 -0.34051342683E+02 -0.31981912517E+02 -0.24780657643E+02  0.53089619136E+02  0.47000000000E+01 0.  1.
         13    1    6    6    0    0 -0.13579526524E+02  0.56790340984E+02 -0.14106239434E+03  0.15267005426E+03  0.00000000000E+00 0. -1.
        -14    1    6    6    0    0  0.45670432655E+02 -0.34957760577E+01 -0.10506567051E+03  0.11461589762E+03  0.00000000000E+00 0.  1.
</event>
<event>
12    1  0.8053217E-002  0.1979076E+03  0.7818608E-02  0.1151703E+00
         21   -1    0    0  503  502  0.00000000000E+00  0.00000000000E+00  0.42160941243E+02  0.42160941243E+02  0.00000000000E+00 0. -1.
         21   -1    0    0  501  503 -0.00000000000E+00 -0.00000000000E+00 -0.10794935389E+04  0.10794935389E+04  0.00000000000E+00 0. -1.
          6    2    1    2  501    0  0.52194929317E+02 -0.80839123036E+02 -0.30547189485E+03  0.36350705025E+03  0.17194482422E+03 0.  0.
         24    2    3    3    0    0  0.32793562658E+02 -0.11211868248E+03 -0.29157615308E+03  0.32388375525E+03  0.78981119009E+02 0.  0.
         -6    2    1    2    0  502 -0.52194929317E+02  0.80839123036E+02 -0.73186070283E+03  0.75814742992E+03  0.17293976607E+03 0.  0.
        -24    2    5    5    0    0 -0.44882540014E+02  0.79678991811E+02 -0.73768649766E+03  0.74761904793E+03  0.79935523140E+02 0.  0.
          5    1    3    3  501    0  0.19401366660E+02  0.31279559440E+02 -0.13895741778E+02  0.39623294999E+02  0.47000000000E+01 0. -1.
        -11    1    4    4    0    0  0.12031153629E+02  0.22433268465E+01 -0.27446636343E+01  0.12542501802E+02  0.00000000000E+00 0.  1.
         12    1    4    4    0    0  0.20762409028E+02 -0.11436200932E+03 -0.28883148944E+03  0.31134125345E+03  0.00000000000E+00 0. -1.
         -5    1    5    5    0  502 -0.73123893032E+01  0.11601312247E+01  0.58257948366E+01  0.10528381987E+02  0.47000000000E+01 0.  1.
         11    1    6    6    0    0 -0.55696335607E+02  0.40319571847E+02 -0.60233283977E+03  0.60624466970E+03  0.00000000000E+00 0. -1.
        -12    1    6    6    0    0  0.10813795593E+02  0.39359419964E+02 -0.13535365789E+03  0.14137437823E+03  0.00000000000E+00 0.  1.
</event>
<event>
12    1  0.8053217E-002  0.1837907E+03  0.7818608E-02  0.1164453E+00
         21   -1    0    0  503  502  0.00000000000E+00  0.00000000000E+00  0.13029863305E+03  0.13029863305E+03  0.00000000000E+00 0. -1.
         21   -1    0    0  501  503 -0.00000000000E+00 -0.00000000000E+00 -0.25848358963E+03  0.25848358963E+03  0.00000000000E+00 0. -1.
          6    2    1    2  501    0 -0.34529193082E+02  0.53586478378E+02 -0.53194606288E+02  0.19133399921E+03  0.17238113956E+03 0.  0.
         24    2    3    3    0    0 -0.65948444261E+02  0.37662780071E+02 -0.88294844098E+02  0.14138552369E+03  0.80163610894E+02 0.  0.
         -6    2    1    2    0  502  0.34529193082E+02 -0.53586478378E+02 -0.74990350293E+02  0.19744822346E+03  0.17116796567E+03 0.  0.
        -24    2    5    5    0    0 -0.42665116409E+02 -0.48935652386E+02 -0.31386684184E+02  0.10854399804E+03  0.81127463497E+02 0.  0.
          5    1    3    3  501    0  0.31419251179E+02  0.15923698307E+02  0.35100237810E+02  0.49948475520E+02  0.47000000000E+01 0. -1.
        -11    1    4    4    0    0 -0.22623454621E+02 -0.13583209453E+02  0.46018484994E+01  0.26786214507E+02  0.00000000000E+00 0.  1.
         12    1    4    4    0    0 -0.43324989640E+02  0.51245989523E+02 -0.92896692597E+02  0.11459930918E+03  0.00000000000E+00 0. -1.
         -5    1    5    5    0  502  0.77194309491E+02 -0.46508259923E+01 -0.43603666109E+02  0.88904225425E+02  0.47000000000E+01 0.  1.
         11    1    6    6    0    0 -0.27971372340E+02 -0.70023666309E+02 -0.12005741817E+02  0.76353450155E+02  0.00000000000E+00 0. -1.
        -12    1    6    6    0    0 -0.14693744069E+02  0.21088013923E+02 -0.19380942367E+02  0.32190547883E+02  0.00000000000E+00 0.  1.
</event>
<event>
12    1  0.8053217E-002  0.1900217E+03  0.7818608E-02  0.1158774E+00
         21   -1    0    0  503  502  0.00000000000E+00  0.00000000000E+00  0.58180937696E+02  0.58180937696E+02  0.00000000000E+00 0.  1.
         21   -1    0    0  501  503 -0.00000000000E+00 -0.00000000000E+00 -0.61620113096E+03  0.61620113096E+03  0.00000000000E+00 0. -1.
          6    2    1    2  501    0  0.19444405004E+01 -0.76109499162E+02 -0.28835268376E+03  0.34533390228E+03  0.17410283490E+03 0.  0.
         24    2    3    3    0    0  0.94583485747E+01 -0.43530520858E+02 -0.53421050116E+02  0.10798856079E+03  0.82603595934E+02 0.  0.
         -6    2    1    2    0  502 -0.19444405004E+01  0.76109499162E+02 -0.26966750951E+03  0.32904816638E+03  0.17249838667E+03 0.  0.
        -24    2    5    5    0    0  0.44701757407E+02 -0.50319962732E+01 -0.10150402029E+03  0.13653619489E+03  0.79470109339E+02 0.  0.
          5    1    3    3  501    0 -0.75139080743E+01 -0.32578978305E+02 -0.23493163364E+03  0.23734534149E+03  0.47000000000E+01 0. -1.
        -13    1    4    4    0    0 -0.19543122464E+02 -0.23596436818E+02  0.12636088281E+02  0.33142060786E+02  0.00000000000E+00 0.  1.
         14    1    4    4    0    0  0.29001471038E+02 -0.19934084040E+02 -0.66057138397E+02  0.74846499999E+02  0.00000000000E+00 0. -1.
         -5    1    5    5    0  502 -0.46646197908E+02  0.81141495436E+02 -0.16816348922E+03  0.19251197149E+03  0.47000000000E+01 0.  1.
         13    1    6    6    0    0 -0.17731937647E+02  0.13919870805E+02 -0.44548466636E+02  0.49927450321E+02  0.00000000000E+00 0. -1.
        -14    1    6    6    0    0  0.62433695054E+02 -0.18951867078E+02 -0.56955553651E+02  0.86608744567E+02  0.00000000000E+00 0.  1.
</event>
<event>
12    1  0.8053217E-002  0.1733176E+03  0.7818608E-02  0.1174620E+00
         21   -1    0    0  503  502  0.00000000000E+00  0.00000000000E+00  0.60123718786E+03  0.60123718786E+03  0.00000000000E+00 0.  1.
         21   -1    0    0  501  503 -0.00000000000E+00 -0.00000000000E+00 -0.61505012166E+02  0.61505012166E+02  0.00000000000E+00 0.  1.
          6    2    1    2  501    0 -0.22097551094E+01  0.17432243189E+01  0.12545993346E+03  0.21396069501E+03  0.17329472657E+03 0.  0.
         24    2    3    3    0    0  0.44928025668E+02  0.45260150964E+02  0.32679694639E+02  0.10106270567E+03  0.71264993366E+02 0.  0.
         -6    2    1    2    0  502  0.22097551094E+01 -0.17432243189E+01  0.41427224223E+03  0.44878150502E+03  0.17255557572E+03 0.  0.
        -24    2    5    5    0    0 -0.22746474155E+02 -0.63684422116E+01  0.41564797285E+03  0.42293215968E+03  0.74501108786E+02 0.  0.
          5    1    3    3  501    0 -0.47137780778E+02 -0.43516926646E+02  0.92780238820E+02  0.11289798934E+03  0.47000000000E+01 0. -1.
        -11    1    4    4    0    0  0.56864175649E+02  0.43213431873E+02  0.44491974316E+02  0.84145534314E+02  0.00000000000E+00 0.  1.
         12    1    4    4    0    0 -0.11936149981E+02  0.20467190919E+01 -0.11812279678E+02  0.16917171353E+02  0.00000000000E+00 0. -1.
         -5    1    5    5    0  502  0.24956229265E+02  0.46252178927E+01 -0.13757306217E+01  0.25849345338E+02  0.47000000000E+01 0.  1.
         13    1    6    6    0    0 -0.32023712395E+01  0.32600880961E+02  0.22438928026E+03  0.22676777045E+03  0.00000000000E+00 0. -1.
        -14    1    6    6    0    0 -0.19544102916E+02 -0.38969323172E+02  0.19125869260E+03  0.19616438923E+03  0.00000000000E+00 0.  1.
</event>
<event>
12    1  0.8053217E-002  0.2148942E+03  0.7818608E-02  0.1138022E+00
         21   -1    0    0  501  502  0.00000000000E+00  0.00000000000E+00  0.10622373881E+04  0.10622373881E+04  0.00000000000E+00 0. -1.
         21   -1    0    0  502  503 -0.00000000000E+00 -0.00000000000E+00 -0.73388013885E+02  0.73388013885E+02  0.00000000000E+00 0. -1.
         -6    2    1    2    0  503 -0.12604913842E+03 -0.17330820211E+02  0.13113515558E+03  0.25174576676E+03  0.17317840347E+03 0.  0.
        -24    2    3    3    0    0 -0.97830420787E+02  0.29916378718E+02  0.25305489987E+02  0.13236988163E+03  0.80097670325E+02 0.  0.
          6    2    1    2  501    0  0.12604913842E+03  0.17330820211E+02  0.85771421868E+03  0.88387963527E+03  0.17140824396E+03 0.  0.
         24    2    5    5    0    0  0.10127487081E+03  0.54769911471E+01  0.84222308117E+03  0.85199950133E+03  0.79226478663E+02 0.  0.
          5    1    5    5  501    0  0.24774267602E+02  0.11853829064E+02  0.15491137507E+02  0.31880133939E+02  0.47000000000E+01 0. -1.
        -11    1    6    6    0    0 -0.21535903849E+01  0.18094672257E+02  0.25135914617E+03  0.25201879985E+03  0.00000000000E+00 0.  1.
         12    1    6    6    0    0  0.10342846120E+03 -0.12617681110E+02  0.59086393500E+03  0.59998070148E+03  0.00000000000E+00 0. -1.
         -5    1    3    3    0  503 -0.28218717630E+02 -0.47247198930E+02  0.10582966559E+03  0.11937588513E+03  0.47000000000E+01 0.  1.
         13    1    4    4    0    0 -0.11111389543E+03  0.28783405627E+02  0.15506058200E+02  0.11582409092E+03  0.00000000000E+00 0. -1.
        -14    1    4    4    0    0  0.13283474644E+02  0.11329730916E+01  0.97994317878E+01  0.16545790704E+02  0.00000000000E+00 0.  1.
</event>
<event>
12    1  0.8053217E-002  0.3361666E+03  0.7818608E-02  0.1068476E+00
         21   -1    0    0  503  502  0.00000000000E+00  0.00000000000E+00  0.56516839718E+03  0.56516839718E+03  0.00000000000E+00 0. -1.
         21   -1    0    0  501  503 -0.00000000000E+00 -0.00000000000E+00 -0.20096272261E+03  0.20096272261E+03  0.00000000000E+00 0.  1.
          6    2    1    2  501    0  0.28600543778E+03  0.42819345134E+02  0.15257749927E+03  0.36917186356E+03  0.17139242925E+03 0.  0.
         24    2    3    3    0    0  0.52138253631E+02 -0.95123847933E+01  0.57955456699E+02  0.11147457852E+03  0.79112980847E+02 0.  0.
         -6    2    1    2    0  502 -0.28600543778E+03 -0.42819345134E+02  0.21162817531E+03  0.39695925623E+03  0.17075584841E+03 0.  0.
        -24    2    5    5    0    0 -0.14232916826E+03 -0.72983992849E+02  0.69271228030E+02  0.19241007673E+03  0.81479317899E+02 0.  0.
          5    1    3    3  501    0  0.23386718415E+03  0.52331729927E+02  0.94622042568E+02  0.25769728504E+03  0.47000000000E+01 0. -1.
        -11    1    4    4    0    0  0.39102704052E+02 -0.21623612539E+02 -0.60051478865E+01  0.45085073856E+02  0.00000000000E+00 0.  1.
         12    1    4    4    0    0  0.13035549579E+02  0.12111227746E+02  0.63960604586E+02  0.66389504662E+02  0.00000000000E+00 0. -1.
         -5    1    5    5    0  502 -0.14367626951E+03  0.30164647716E+02  0.14235694728E+03  0.20454917950E+03  0.47000000000E+01 0.  1.
         13    1    6    6    0    0 -0.16177628896E+02 -0.48333264569E+02  0.20057180933E+02  0.54773265811E+02  0.00000000000E+00 0. -1.
        -14    1    6    6    0    0 -0.12615153937E+03 -0.24650728280E+02  0.49214047096E+02  0.13763681092E+03  0.00000000000E+00 0.  1.
</event>
<event>
12    1  0.8053217E-002  0.2116310E+03  0.7818608E-02  0.1140525E+00
         21   -1    0    0  501  502  0.00000000000E+00  0.00000000000E+00  0.47966777765E+03  0.47966777765E+03  0.00000000000E+00 0. -1.
         21   -1    0    0  502  503 -0.00000000000E+00 -0.00000000000E+00 -0.12925642679E+03  0.12925642679E+03  0.00000000000E+00 0. -1.
         -6    2    1    2    0  503  0.10934146849E+02  0.12041527714E+03  0.13939352372E+02  0.21208958372E+03  0.17369021689E+03 0.  0.
        -24    2    3    3    0    0 -0.53220482979E+01  0.14548237000E+03  0.43493716237E+02  0.16980278379E+03  0.75814496322E+02 0.  0.
          6    2    1    2  501    0 -0.10934146849E+02 -0.12041527714E+03  0.33647199848E+03  0.39683462071E+03  0.17217699003E+03 0.  0.
         24    2    5    5    0    0 -0.57531097658E+02 -0.35604524329E+02  0.22474230760E+03  0.24895036380E+03  0.83004032804E+02 0.  0.
          5    1    5    5  501    0  0.46596950810E+02 -0.84810752810E+02  0.11172969088E+03  0.14788425691E+03  0.47000000000E+01 0. -1.
        -11    1    6    6    0    0 -0.49067971232E+01  0.19448623114E+02  0.12935215986E+02  0.23867245581E+02  0.00000000000E+00 0.  1.
         12    1    6    6    0    0 -0.52624300535E+02 -0.55053147443E+02  0.21180709162E+03  0.22508311822E+03  0.00000000000E+00 0. -1.
         -5    1    3    3    0  503  0.16256195147E+02 -0.25067092858E+02 -0.29554363865E+02  0.42286799932E+02  0.47000000000E+01 0.  1.
         11    1    4    4    0    0  0.22947881074E+02  0.56135967688E+02 -0.10650718926E+02  0.61573451484E+02  0.00000000000E+00 0. -1.
        -12    1    4    4    0    0 -0.28269929371E+02  0.89346402309E+02  0.54144435163E+02  0.10822933231E+03  0.00000000000E+00 0.  1.
</event>
<event>
12    1  0.8053217E-002  0.1770355E+03  0.7818608E-02  0.1171585E+00
         21   -1    0    0  503  502  0.00000000000E+00  0.00000000000E+00  0.83238244555E+03  0.83238244555E+03  0.00000000000E+00 0. -1.
         21   -1    0    0  501  503 -0.00000000000E+00 -0.00000000000E+00 -0.19109582451E+03  0.19109582451E+03  0.00000000000E+00 0. -1.
          6    2    1    2  501    0  0.25140309743E+02  0.82880557626E+01 -0.13964960574E+03  0.22272678002E+03  0.17147734286E+03 0.  0.
         24    2    3    3    0    0  0.66280354539E+02 -0.22441653367E+02 -0.12646537327E+03  0.16950336135E+03  0.88550469628E+02 0.  0.
         -6    2    1    2    0  502 -0.25140309743E+02 -0.82880557626E+01  0.78093622678E+03  0.80075149003E+03  0.17504522687E+03 0.  0.
        -24    2    5    5    0    0  0.41516799162E+02 -0.32612596642E+02  0.57807177935E+03  0.58578421929E+03  0.78669838076E+02 0.  0.
          5    1    3    3  501    0 -0.41140044796E+02  0.30729709130E+02 -0.13184232476E+02  0.53223418670E+02  0.47000000000E+01 0. -1.
        -11    1    4    4    0    0  0.22984874470E+02  0.69582332235E+01  0.79199722595E+01  0.25287297693E+02  0.00000000000E+00 0.  1.
         12    1    4    4    0    0  0.43295480069E+02 -0.29399886591E+02 -0.13438534552E+03  0.14421606366E+03  0.00000000000E+00 0. -1.
         -5    1    5    5    0  502 -0.66657108906E+02  0.24324540880E+02  0.20286444744E+03  0.21496727074E+03  0.47000000000E+01 0.  1.
         13    1    6    6    0    0  0.40545085695E+02  0.11303638610E+02  0.16120736091E+03  0.16661179259E+03  0.00000000000E+00 0. -1.
        -14    1    6    6    0    0  0.97171346714E+00 -0.43916235252E+02  0.41686441844E+03  0.41917242670E+03  0.00000000000E+00 0.  1.
</event>
<event>
12    1  0.8053217E-002  0.1851661E+03  0.7818608E-02  0.1163445E+00
         21   -1    0    0  503  502  0.00000000000E+00  0.00000000000E+00  0.16635010629E+04  0.16635010629E+04  0.00000000000E+00 0. -1.
         21   -1    0    0  501  503 -0.00000000000E+00 -0.00000000000E+00 -0.23618729496E+02  0.23618729496E+02  0.00000000000E+00 0.  1.
          6    2    1    2  501    0  0.30328494550E+02 -0.61039029705E+02  0.51068501714E+03  0.54321787724E+03  0.17216531214E+03 0.  0.
         24    2    3    3    0    0  0.93239692014E+00 -0.10490654711E+03  0.38165367102E+03  0.40371996357E+03  0.79523778778E+02 0.  0.
         -6    2    1    2    0  502 -0.30328494550E+02  0.61039029705E+02  0.11291973163E+04  0.11439019152E+04  0.16964501670E+03 0.  0.
        -24    2    5    5    0    0 -0.21913965947E+02 -0.16385656405E+02  0.86370427063E+03  0.86718177929E+03  0.72597930977E+02 0.  0.
          5    1    3    3  501    0  0.29396097630E+02  0.43867517406E+02  0.12903134611E+03  0.13949791367E+03  0.47000000000E+01 0. -1.
        -11    1    4    4    0    0  0.36078604555E+02 -0.46838949104E+02  0.23162227303E+03  0.23904901218E+03  0.00000000000E+00 0.  1.
         12    1    4    4    0    0 -0.35146207635E+02 -0.58067598007E+02  0.15003139799E+03  0.16467095140E+03  0.00000000000E+00 0. -1.
         -5    1    5    5    0  502 -0.84145286032E+01  0.77424686110E+02  0.26549304564E+03  0.27672013587E+03  0.47000000000E+01 0.  1.
         13    1    6    6    0    0 -0.39089475449E+02 -0.97859700615E+01  0.25204586036E+03  0.25524668073E+03  0.00000000000E+00 0. -1.
        -14    1    6    6    0    0  0.17175509502E+02 -0.65996863435E+01  0.61165841027E+03  0.61193509855E+03  0.00000000000E+00 0.  1.
</event>
<event>
12    1  0.8053217E-002  0.1765795E+03  0.7818608E-02  0.1171870E+00
         21   -1    0    0  501  502  0.00000000000E+00  0.00000000000E+00  0.39431164313E+02  0.39431164313E+02  0.00000000000E+00 0. -1.
         21   -1    0    0  502  503 -0.00000000000E+00 -0.00000000000E+00 -0.82379054129E+03  0.82379054129E+03  0.00000000000E+00 0. -1.
         -6    2    1    2    0  503  0.41847288322E+01  0.36918484810E+02 -0.49693475456E+03  0.52737507310E+03  0.17262627541E+03 0.  0.
        -24    2    3    3    0    0  0.56927155512E+02  0.19274163429E+02 -0.42314947795E+03  0.43485781691E+03  0.80210010769E+02 0.  0.
          6    2    1    2  501    0 -0.41847288322E+01 -0.36918484810E+02 -0.28742462242E+03  0.33584663250E+03  0.16970433264E+03 0.  0.
         24    2    5    5    0    0  0.23040017572E+02  0.27299890602E+02 -0.85562752226E+02  0.12222198225E+03  0.79631036290E+02 0.  0.
          5    1    5    5  501    0 -0.27224746405E+02 -0.64218375412E+02 -0.20186187019E+03  0.21362465025E+03  0.47000000000E+01 0. -1.
        -13    1    6    6    0    0  0.34462946749E+02  0.48710516627E+02 -0.74776122535E+02  0.95665446375E+02  0.00000000000E+00 0.  1.
         14    1    6    6    0    0 -0.11422929176E+02 -0.21410626025E+02 -0.10786629691E+02  0.26556535878E+02  0.00000000000E+00 0. -1.
         -5    1    3    3    0  503 -0.52742426679E+02  0.17644321381E+02 -0.73785276616E+02  0.92517256198E+02  0.47000000000E+01 0.  1.
         11    1    4    4    0    0  0.43544178755E+02 -0.26439351504E+02 -0.17912836465E+03  0.18623132345E+03  0.00000000000E+00 0. -1.
        -12    1    4    4    0    0  0.13382976757E+02  0.45713514933E+02 -0.24402111329E+03  0.24862649345E+03  0.00000000000E+00 0.  1.
</event>
<event>
12    1  0.8053217E-002  0.2519698E+03  0.7818608E-02  0.1113140E+00
         21   -1    0    0  503  502  0.00000000000E+00  0.00000000000E+00  0.61565933523E+02  0.61565933523E+02  0.00000000000E+00 0. -1.
         21   -1    0    0  501  503 -0.00000000000E+00 -0.00000000000E+00 -0.10731200677E+04  0.10731200677E+04  0.00000000000E+00 0. -1.
          6    2    1    2  501    0 -0.44329584742E+02  0.16759414272E+03 -0.36795947097E+03  0.44596295444E+03  0.18285479403E+03 0.  0.
         24    2    3    3    0    0 -0.70338617168E+02  0.64702886882E+02 -0.93907646062E+02  0.15204192248E+03  0.71861780976E+02 0.  0.
         -6    2    1    2    0  502  0.44329584742E+02 -0.16759414272E+03 -0.64359466317E+03  0.68872304675E+03  0.17341405912E+03 0.  0.
        -24    2    5    5    0    0  0.76381209622E+02 -0.65907391541E+02 -0.44465392832E+03  0.46296430826E+03  0.80255599822E+02 0.  0.
          5    1    3    3  501    0  0.26009032427E+02  0.10289125584E+03 -0.27405182491E+03  0.29392103196E+03  0.47000000000E+01 0. -1.
        -11    1    4    4    0    0 -0.40620426206E+02  0.11177852654E+02 -0.78216512196E+02  0.88841354083E+02  0.00000000000E+00 0.  1.
         12    1    4    4    0    0 -0.29718190962E+02  0.53525034228E+02 -0.15691133866E+02  0.63200568393E+02  0.00000000000E+00 0. -1.
         -5    1    5    5    0  502 -0.32051624880E+02 -0.10168675118E+03 -0.19894073485E+03  0.22575873849E+03  0.47000000000E+01 0.  1.
         13    1    6    6    0    0  0.46506984395E+02 -0.62462985884E+02 -0.40887961560E+03  0.41622958119E+03  0.00000000000E+00 0. -1.
        -14    1    6    6    0    0  0.29874225227E+02 -0.34444056577E+01 -0.35774312721E+02  0.46734727065E+02  0.00000000000E+00 0.  1.
</event>
<event>
12    1  0.8053217E-002  0.2337286E+03  0.7818608E-02  0.1124158E+00
         21   -1    0    0  503  502  0.00000000000E+00  0.00000000000E+00  0.53514347333E+02  0.53514347333E+02  0.00000000000E+00 0.  1.
         21   -1    0    0  501  503 -0.00000000000E+00 -0.00000000000E+00 -0.10906248269E+04  0.10906248269E+04  0.00000000000E+00 0. -1.
          6    2    1    2  501    0 -0.46630546803E+01 -0.15981765950E+03 -0.37013815009E+03  0.43739937318E+03  0.16956571924E+03 0.  0.
         24    2    3    3    0    0 -0.39612431808E+02 -0.33978109187E+02 -0.20247340304E+03  0.22481854434E+03  0.82608972185E+02 0.  0.
         -6    2    1    2    0  502  0.46630546803E+01  0.15981765950E+03 -0.66697232947E+03  0.70673980104E+03  0.17048645029E+03 0.  0.
        -24    2    5    5    0    0 -0.23302219575E+02  0.24304331328E+02 -0.35533445703E+03  0.36573221723E+03  0.79773331448E+02 0.  0.
          5    1    3    3  501    0  0.34949377128E+02 -0.12583955032E+03 -0.16766474705E+03  0.21258082884E+03  0.47000000000E+01 0. -1.
        -13    1    4    4    0    0 -0.52040108690E+02 -0.50993674943E+02 -0.17908225477E+03  0.19333644708E+03  0.00000000000E+00 0.  1.
         14    1    4    4    0    0  0.12427676882E+02  0.17015565757E+02 -0.23391148266E+02  0.31482097260E+02  0.00000000000E+00 0. -1.
         -5    1    5    5    0  502  0.27965274255E+02  0.13551332818E+03 -0.31163787244E+03  0.34100758381E+03  0.47000000000E+01 0.  1.
         13    1    6    6    0    0 -0.19398241323E+01 -0.19244897795E+02 -0.23802945657E+02  0.30670983531E+02  0.00000000000E+00 0. -1.
        -14    1    6    6    0    0 -0.21362395443E+02  0.43549229123E+02 -0.33153151137E+03  0.33506123370E+03  0.00000000000E+00 0.  1.
</event>
<event>
12    1  0.8053217E-002  0.1822169E+03  0.7818608E-02  0.1167343E+00
         21   -1    0    0  501  502  0.00000000000E+00  0.00000000000E+00  0.87950833165E+02  0.87950833165E+02  0.00000000000E+00 0.  1.
         21   -1    0    0  502  503 -0.00000000000E+00 -0.00000000000E+00 -0.44442087011E+03  0.44442087011E+03  0.00000000000E+00 0.  1.
         -6    2    1    2    0  503 -0.28636811943E+02  0.51397128831E+02 -0.29464650421E+03  0.34643836926E+03  0.17245651452E+03 0.  0.
        -24    2    3    3    0    0 -0.11845361628E+01 -0.15413727234E+02 -0.60601421651E+02  0.10145569925E+03  0.79885796555E+02 0.  0.
          6    2    1    2  501    0  0.28636811943E+02 -0.51397128831E+02 -0.61823532729E+02  0.18593333401E+03  0.16518875158E+03 0.  0.
         24    2    5    5    0    0  0.30325371717E+02 -0.96193978907E+01  0.26302215260E+02  0.88278495446E+02  0.78032847219E+02 0.  0.
          5    1    5    5  501    0 -0.16885597743E+01 -0.41777730940E+02 -0.88125747989E+02  0.97654838566E+02  0.47000000000E+01 0. -1.
        -11    1    6    6    0    0 -0.35241291740E+01  0.29730907825E+02  0.19968843458E+02  0.35987512773E+02  0.00000000000E+00 0.  1.
         12    1    6    6    0    0  0.33849500891E+02 -0.39350305716E+02  0.63333718021E+01  0.52290982673E+02  0.00000000000E+00 0. -1.
         -5    1    3    3    0  503 -0.27452275780E+02  0.66810856065E+02 -0.23404508256E+03  0.24498267001E+03  0.47000000000E+01 0.  1.
         13    1    4    4    0    0  0.25975459167E+02  0.22691596107E+02 -0.23462743006E+02  0.41714905276E+02  0.00000000000E+00 0. -1.
        -14    1    4    4    0    0 -0.27159995329E+02 -0.38105323341E+02 -0.37138678645E+02  0.59740793975E+02  0.00000000000E+00 0.  1.
</event>
<event>
12    1  0.8053217E-002  0.2075367E+03  0.7818608E-02  0.1143874E+00
         21   -1    0    0  503  502  0.00000000000E+00  0.00000000000E+00  0.13093442426E+03  0.13093442426E+03  0.00000000000E+00 0. -1.
         21   -1    0    0  501  503 -0.00000000000E+00 -0.00000000000E+00 -0.33136125457E+03  0.33136125457E+03  0.00000000000E+00 0.  1.
          6    2    1    2  501    0 -0.75243032129E+02 -0.84179440834E+02 -0.12927387873E+03  0.24450606936E+03  0.17413727369E+03 0.  0.
         24    2    3    3    0    0 -0.90631291998E+02 -0.60395615720E+02 -0.26166894369E+02  0.13747519016E+03  0.79706085465E+02 0.  0.
         -6    2    1    2    0  502  0.75243032129E+02  0.84179440834E+02 -0.71152951588E+02  0.21778960947E+03  0.17211007911E+03 0.  0.
        -24    2    5    5    0    0  0.62671444922E+02  0.53887706821E+02  0.23944919973E+02  0.11708544307E+03  0.79398027886E+02 0.  0.
          5    1    3    3  501    0  0.15388259869E+02 -0.23783825115E+02 -0.10310698436E+03  0.10703087920E+03  0.47000000000E+01 0. -1.
        -11    1    4    4    0    0 -0.72687510415E+02 -0.64255485106E+01 -0.33197319774E+02  0.80167473979E+02  0.00000000000E+00 0.  1.
         12    1    4    4    0    0 -0.17943781583E+02 -0.53970067209E+02  0.70304254052E+01  0.57307716177E+02  0.00000000000E+00 0. -1.
         -5    1    5    5    0  502  0.12571587207E+02  0.30291734013E+02 -0.95097871561E+02  0.10070416640E+03  0.47000000000E+01 0.  1.
         13    1    6    6    0    0  0.90379650045E+01  0.53719003449E+02 -0.73837314946E+01  0.54972135066E+02  0.00000000000E+00 0. -1.
        -14    1    6    6    0    0  0.53633479917E+02  0.16870337255E+00  0.31328651468E+02  0.62113308008E+02  0.00000000000E+00 0.  1.
</event>
<event>
12    1  0.8053217E-002  0.1851764E+03  0.7818608E-02  0.1163450E+00
         21   -1    0    0  501  502  0.00000000000E+00  0.00000000000E+00  0.74098171812E+03  0.74098171812E+03  0.00000000000E+00 0. -1.
         21   -1    0    0  502  503 -0.00000000000E+00 -0.00000000000E+00 -0.69281442865E+02  0.69281442865E+02  0.00000000000E+00 0. -1.
         -6    2    1    2    0  503  0.23535160644E+02 -0.66188663260E+02  0.97932749169E+02  0.20735397652E+03  0.16873057010E+03 0.  0.
        -24    2    3    3    0    0  0.40213827228E+02 -0.94889200977E+02  0.11078129226E+03  0.17145030200E+03  0.80632493324E+02 0.  0.
          6    2    1    2  501    0 -0.23535160644E+02  0.66188663260E+02  0.57376752608E+03  0.60290918446E+03  0.17133437423E+03 0.  0.
         24    2    5    5    0    0 -0.30426797094E+02  0.71787511416E+02  0.58041239974E+03  0.59086401533E+03  0.78501554506E+02 0.  0.
          5    1    5    5  501    0  0.68916364501E+01 -0.55988481562E+01 -0.66448736561E+01  0.12045169137E+02  0.47000000000E+01 0. -1.
        -11    1    6    6    0    0 -0.15309201204E+02 -0.10340545246E+02  0.40282546151E+02  0.44316837003E+02  0.00000000000E+00 0.  1.
         12    1    6    6    0    0 -0.15117595890E+02  0.82128056662E+02  0.54012985359E+03  0.54654717832E+03  0.00000000000E+00 0. -1.
         -5    1    3    3    0  503 -0.16678666583E+02  0.28700537717E+02 -0.12848543090E+02  0.35903674516E+02  0.47000000000E+01 0.  1.
         11    1    4    4    0    0  0.34627090517E+02 -0.38433823438E+02  0.57156453137E+01  0.52046736527E+02  0.00000000000E+00 0. -1.
        -12    1    4    4    0    0  0.55867367104E+01 -0.56455377538E+02  0.10506564695E+03  0.11940356547E+03  0.00000000000E+00 0.  1.
</event>
<event>
12    1  0.8053217E-002  0.3014681E+03  0.7818608E-02  0.1084567E+00
         21   -1    0    0  503  502  0.00000000000E+00  0.00000000000E+00  0.10764583211E+04  0.10764583211E+04  0.00000000000E+00 0.  1.
         21   -1    0    0  501  503 -0.00000000000E+00 -0.00000000000E+00 -0.87746388954E+02  0.87746388954E+02  0.00000000000E+00 0. -1.
          6    2    1    2  501    0 -0.21174036396E+03 -0.12809680552E+03  0.37929923262E+03  0.48451099002E+03  0.17216334763E+03 0.  0.
         24    2    3    3    0    0 -0.35273574186E+02 -0.39495682206E+02  0.17919011457E+03  0.20334122622E+03  0.80214856311E+02 0.  0.
         -6    2    1    2    0  502  0.21174036396E+03  0.12809680552E+03  0.60941269953E+03  0.67969372004E+03  0.17133867455E+03 0.  0.
        -24    2    5    5    0    0  0.44111665451E+02  0.13263709378E+02  0.26337430415E+03  0.27838251709E+03  0.77517976759E+02 0.  0.
          5    1    3    3  501    0 -0.17646678978E+03 -0.88601123314E+02  0.20010911805E+03  0.28116976380E+03  0.47000000000E+01 0. -1.
        -13    1    4    4    0    0 -0.56074387253E+02 -0.47410114645E+02  0.12894069101E+03  0.14838381878E+03  0.00000000000E+00 0.  1.
         14    1    4    4    0    0  0.20800813067E+02  0.79144324384E+01  0.50249423563E+02  0.54957407449E+02  0.00000000000E+00 0. -1.
         -5    1    5    5    0  502  0.16762869851E+03  0.11483309614E+03  0.34603839539E+03  0.40131120295E+03  0.47000000000E+01 0.  1.
         11    1    6    6    0    0  0.48906960709E+02 -0.16125725643E+02  0.21878614588E+03  0.22476500498E+03  0.00000000000E+00 0. -1.
        -12    1    6    6    0    0 -0.47952952576E+01  0.29389435021E+02  0.44588158264E+02  0.53617512109E+02  0.00000000000E+00 0.  1.
</event>
<event>
12    1  0.8053217E-002  0.2482207E+03  0.7818608E-02  0.1114536E+00
         21   -1    0    0  503  502  0.00000000000E+00  0.00000000000E+00  0.11682759312E+04  0.11682759312E+04  0.00000000000E+00 0. -1.
         21   -1    0    0  501  503 -0.00000000000E+00 -0.00000000000E+00 -0.53102354452E+02  0.53102354452E+02  0.00000000000E+00 0.  1.
          6    2    1    2  501    0  0.50772724131E+02 -0.17126787938E+03  0.49773649615E+03  0.55591450672E+03  0.17143151156E+03 0.  0.
         24    2    3    3    0    0  0.44264320091E+02 -0.19839041793E+03  0.44035341306E+03  0.49193873282E+03  0.82307353828E+02 0.  0.
         -6    2    1    2    0  502 -0.50772724131E+02  0.17126787938E+03  0.61743708061E+03  0.66546377895E+03  0.17234539900E+03 0.  0.
        -24    2    5    5    0    0 -0.60466431012E+01  0.17513322883E+03  0.56211922593E+03  0.59406687218E+03  0.78925374377E+02 0.  0.
          5    1    3    3  501    0  0.65084040401E+01  0.27122538555E+02  0.57383083085E+02  0.63975773893E+02  0.47000000000E+01 0. -1.
        -11    1    4    4    0    0  0.53900113547E+02 -0.10092619345E+03  0.29742778522E+03  0.31867633452E+03  0.00000000000E+00 0.  1.
         12    1    4    4    0    0 -0.96357934556E+01 -0.97464224488E+02  0.14292562784E+03  0.17326239830E+03  0.00000000000E+00 0. -1.
         -5    1    5    5    0  502 -0.44726081030E+02 -0.38653494467E+01  0.55317854681E+02  0.71396906776E+02  0.47000000000E+01 0.  1.
         11    1    6    6    0    0 -0.39651169581E+02  0.12350126563E+03  0.35371118122E+03  0.37674444599E+03  0.00000000000E+00 0. -1.
        -12    1    6    6    0    0  0.33604526480E+02  0.51631963192E+02  0.20840804472E+03  0.21732242619E+03  0.00000000000E+00 0.  1.
</event>
<event>
12    1  0.8053217E-002  0.2009823E+03  0.7818608E-02  0.1148949E+00
         21   -1    0    0  501  502  0.00000000000E+00  0.00000000000E+00  0.19250338917E+03  0.19250338917E+03  0.00000000000E+00 0. -1.
         21   -1    0    0  502  503 -0.00000000000E+00 -0.00000000000E+00 -0.21147981653E+03  0.21147981653E+03  0.00000000000E+00 0.  1.
         -6    2    1    2    0  503  0.24146594894E+02  0.10033924139E+03 -0.28260811058E+02  0.20278653486E+03  0.17225760903E+03 0.  0.
        -24    2    3    3    0    0 -0.40008032421E+01  0.28985516882E+02 -0.75365466903E+02  0.11265014584E+03  0.78447021230E+02 0.  0.
          6    2    1    2  501    0 -0.24146594894E+02 -0.10033924139E+03  0.92843836969E+01  0.20119667085E+03  0.17246123962E+03 0.  0.
         24    2    5    5    0    0 -0.33014842670E+02 -0.13303183110E+03 -0.15177715589E+02  0.15914984527E+03  0.79440935773E+02 0.  0.
          5    1    5    5  501    0  0.88682477763E+01  0.32692589704E+02  0.24462099286E+02  0.42046825584E+02  0.47000000000E+01 0. -1.
        -13    1    6    6    0    0  0.18844824425E+02 -0.61926715622E+02  0.14384793834E+02  0.66309635868E+02  0.00000000000E+00 0.  1.
         14    1    6    6    0    0 -0.51859667094E+02 -0.71105115474E+02 -0.29562509423E+02  0.92840209399E+02  0.00000000000E+00 0. -1.
         -5    1    3    3    0  503  0.28147398136E+02  0.71353724511E+02  0.47104655844E+02  0.90136389020E+02  0.47000000000E+01 0.  1.
         11    1    4    4    0    0  0.21839749027E+02  0.30318412425E+02 -0.50254040291E+01  0.37701929065E+02  0.00000000000E+00 0. -1.
        -12    1    4    4    0    0 -0.25840552269E+02 -0.13328955435E+01 -0.70340062873E+02  0.74948216771E+02  0.00000000000E+00 0.  1.
</event>
<event>
12    1  0.8053217E-002  0.2316351E+03  0.7818608E-02  0.1125520E+00
         21   -1    0    0  503  502  0.00000000000E+00  0.00000000000E+00  0.22161413260E+03  0.22161413260E+03  0.00000000000E+00 0.  1.
         21   -1    0    0  501  503 -0.00000000000E+00 -0.00000000000E+00 -0.26923321587E+03  0.26923321587E+03  0.00000000000E+00 0.  1.
          6    2    1    2  501    0 -0.12700444258E+03  0.88998912553E+02  0.54318273869E+02  0.23777410867E+03  0.17185783953E+03 0.  0.
         24    2    3    3    0    0 -0.76310789676E+02  0.38086297217E+01  0.77031347126E+02  0.13596446065E+03  0.81943052413E+02 0.  0.
         -6    2    1    2    0  502  0.12700444258E+03 -0.88998912553E+02 -0.10193735714E+03  0.25307323980E+03  0.17205785379E+03 0.  0.
        -24    2    5    5    0    0  0.11374172479E+03 -0.11106987037E+03 -0.12554538026E+03  0.21782475590E+03  0.80076748902E+02 0.  0.
          5    1    3    3  501    0 -0.50693652905E+02  0.85190282831E+02 -0.22713073257E+02  0.10180964802E+03  0.47000000000E+01 0. -1.
        -11    1    4    4    0    0 -0.52338062125E+02 -0.37416202394E+02  0.45248834346E+02  0.78655590763E+02  0.00000000000E+00 0.  1.
         12    1    4    4    0    0 -0.23972727551E+02  0.41224832116E+02  0.31782512780E+02  0.57308869888E+02  0.00000000000E+00 0. -1.
         -5    1    5    5    0  502  0.13262717787E+02  0.22070957812E+02  0.23608023121E+02  0.35248483904E+02  0.47000000000E+01 0.  1.
         11    1    6    6    0    0  0.34874110477E+02 -0.11142812972E+02  0.32240804458E+01  0.36752694557E+02  0.00000000000E+00 0. -1.
        -12    1    6    6    0    0  0.78867614317E+02 -0.99927057393E+02 -0.12876946071E+03  0.18107206134E+03  0.00000000000E+00 0.  1.
</event>
<event>
12    1  0.8053217E-002  0.1773128E+03  0.7818608E-02  0.1170474E+00
         21   -1    0    0  503  502  0.00000000000E+00  0.00000000000E+00  0.67045028251E+02  0.67045028251E+02  0.00000000000E+00 0.  1.
         21   -1    0    0  501  503 -0.00000000000E+00 -0.00000000000E+00 -0.48486398192E+03  0.48486398192E+03  0.00000000000E+00 0.  1.
          6    2    1    2  501    0 -0.16997044375E+02  0.41069301447E+02 -0.25977236620E+03  0.31451792698E+03  0.17165155727E+03 0.  0.
         24    2    3    3    0    0 -0.31816346407E+02  0.19423517805E+02 -0.27133474328E+03  0.28546744977E+03  0.80495770233E+02 0.  0.
         -6    2    1    2    0  502  0.16997044375E+02 -0.41069301447E+02 -0.15804658747E+03  0.23739108319E+03  0.17146491049E+03 0.  0.
        -24    2    5    5    0    0  0.76630766325E+01 -0.88925637255E+02 -0.75055162465E+02  0.14102190526E+03  0.79293181584E+02 0.  0.
          5    1    3    3  501    0  0.14819302032E+02  0.21645783641E+02  0.11562377082E+02  0.29050477207E+02  0.47000000000E+01 0. -1.
        -13    1    4    4    0    0 -0.46352350524E+02 -0.17093044442E+02 -0.15183152735E+03  0.15966691976E+03  0.00000000000E+00 0.  1.
         14    1    4    4    0    0  0.14536004118E+02  0.36516562248E+02 -0.11950321593E+03  0.12580053001E+03  0.00000000000E+00 0. -1.
         -5    1    5    5    0  502  0.93339677424E+01  0.47856335808E+02 -0.82991425005E+02  0.96369177931E+02  0.47000000000E+01 0.  1.
         13    1    6    6    0    0 -0.23509619712E+02 -0.28238253848E+02 -0.61231704510E+02  0.71410243219E+02  0.00000000000E+00 0. -1.
        -14    1    6    6    0    0  0.31172696345E+02 -0.60687383407E+02 -0.13823457955E+02  0.69611662040E+02  0.00000000000E+00 0.  1.
</event>
<event>
12    1  0.8053217E-002  0.2337170E+03  0.7818608E-02  0.1124189E+00
         21   -1    0    0  503  502  0.00000000000E+00  0.00000000000E+00  0.97554288844E+02  0.97554288844E+02  0.00000000000E+00 0. -1.
         21   -1    0    0  501  503 -0.00000000000E+00 -0.00000000000E+00 -0.58716227633E+03  0.58716227633E+03  0.00000000000E+00 0. -1.
          6    2    1    2  501    0 -0.89327997647E+02  0.12919275932E+03 -0.32068636954E+03  0.39634498039E+03  0.17198644031E+03 0.  0.
         24    2    3    3    0    0 -0.70346301720E+02 -0.15218649155E-01 -0.15740461592E+03  0.18720859567E+03  0.72953703008E+02 0.  0.
         -6    2    1    2    0  502  0.89327997647E+02 -0.12919275932E+03 -0.16892161794E+03  0.28837158478E+03  0.17307049914E+03 0.  0.
        -24    2    5    5    0    0  0.96299314921E+02 -0.14668523956E+03 -0.18106187198E+03  0.26547918653E+03  0.83100417783E+02 0.  0.
          5    1    3    3  501    0 -0.18981695927E+02  0.12920797797E+03 -0.16328175362E+03  0.20913638473E+03  0.47000000000E+01 0. -1.
        -11    1    4    4    0    0  0.81124795022E+01 -0.18671486937E+02 -0.38208952829E+02  0.43293888996E+02  0.00000000000E+00 0.  1.
         12    1    4    4    0    0 -0.78458781222E+02  0.18656268288E+02 -0.11919566309E+03  0.14391470667E+03  0.00000000000E+00 0. -1.
         -5    1    5    5    0  502 -0.69713172734E+01  0.17492480243E+02  0.12140254035E+02  0.22892398250E+02  0.47000000000E+01 0.  1.
         13    1    6    6    0    0  0.10139643990E+03 -0.85149987433E+02 -0.12376339734E+03  0.18124330858E+03  0.00000000000E+00 0. -1.
        -14    1    6    6    0    0 -0.50971249792E+01 -0.61535252128E+02 -0.57298474634E+02  0.84235877944E+02  0.00000000000E+00 0.  1.
</event>
<event>
12    1  0.8053217E-002  0.2040434E+03  0.7818608E-02  0.1146791E+00
         21   -1    0    0  503  502  0.00000000000E+00  0.00000000000E+00  0.12442813341E+03  0.12442813341E+03  0.00000000000E+00 0. -1.
         21   -1    0    0  501  503 -0.00000000000E+00 -0.00000000000E+00 -0.61764396541E+03  0.61764396541E+03  0.00000000000E+00 0. -1.
          6    2    1    2  501    0  0.41775624012E+01  0.10470709438E+03 -0.49858724469E+03  0.53795804295E+03  0.17270954741E+03 0.  0.
         24    2    3    3    0    0  0.73832843189E+01  0.74369288125E+02 -0.49521402101E+03  0.50690763588E+03  0.78314243931E+02 0.  0.
         -6    2    1    2    0  502 -0.41775624012E+01 -0.10470709438E+03  0.53714126895E+01  0.20411405588E+03  0.17507903384E+03 0.  0.
        -24    2    5    5    0    0  0.39157148337E+02 -0.12233856947E+03 -0.17604999574E+02  0.15178078167E+03  0.78914268853E+02 0.  0.
          5    1    3    3  501    0 -0.32057219177E+01  0.30337806255E+02 -0.33732236774E+01  0.31050407072E+02  0.47000000000E+01 0. -1.
        -11    1    4    4    0    0  0.36928526303E+02  0.11606824194E+02 -0.19133327968E+03  0.19520978033E+03  0.00000000000E+00 0.  1.
         12    1    4    4    0    0 -0.29545241984E+02  0.62762463931E+02 -0.30388074133E+03  0.31169785555E+03  0.00000000000E+00 0. -1.
         -5    1    5    5    0  502 -0.43334710739E+02  0.17631475091E+02  0.22976412264E+02  0.52333274207E+02  0.47000000000E+01 0.  1.
         11    1    6    6    0    0  0.86607365138E+01 -0.11957211605E+03 -0.17521776297E+02  0.12115903573E+03  0.00000000000E+00 0. -1.
        -12    1    6    6    0    0  0.30496411823E+02 -0.27664534217E+01 -0.83223277514E-01  0.30621745946E+02  0.00000000000E+00 0.  1.
</event>
<event>
12    1  0.8053217E-002  0.4501275E+03  0.7818608E-02  0.1027728E+00
         21   -1    0    0  501  502  0.00000000000E+00  0.00000000000E+00  0.98769532747E+03  0.98769532747E+03  0.00000000000E+00 0.  1.
         21   -1    0    0  502  503 -0.00000000000E+00 -0.00000000000E+00 -0.60328781354E+03  0.60328781354E+03  0.00000000000E+00 0. -1.
         -6    2    1    2    0  503 -0.18884302161E+02  0.41448645509E+03 -0.45429771047E+03  0.63912114665E+03  0.17301384926E+03 0.  0.
        -24    2    3    3    0    0  0.34223556211E+02  0.26509638051E+03 -0.35689503315E+03  0.45298353478E+03  0.79829038154E+02 0.  0.
          6    2    1    2  501    0  0.18884302161E+02 -0.41448645509E+03  0.83870522439E+03  0.95186199436E+03  0.17452554128E+03 0.  0.
         24    2    5    5    0    0  0.59229296604E+02 -0.37776749586E+03  0.68782275011E+03  0.79135152246E+03  0.83190780897E+02 0.  0.
          5    1    5    5  501    0 -0.40344994443E+02 -0.36718959233E+02  0.15088247429E+03  0.16051047190E+03  0.47000000000E+01 0. -1.
        -13    1    6    6    0    0  0.27951505054E+02 -0.54688467374E+02  0.67648519307E+02  0.91369783096E+02  0.00000000000E+00 0.  1.
         14    1    6    6    0    0  0.31277791550E+02 -0.32307902849E+03  0.62017423080E+03  0.69998173936E+03  0.00000000000E+00 0. -1.
         -5    1    3    3    0  503 -0.53107858372E+02  0.14939007458E+03 -0.97402677316E+02  0.18613761187E+03  0.47000000000E+01 0.  1.
         11    1    4    4    0    0 -0.13263053601E+02  0.12718975395E+03 -0.12360619343E+03  0.17785284129E+03  0.00000000000E+00 0. -1.
        -12    1    4    4    0    0  0.47486609812E+02  0.13790662656E+03 -0.23328883972E+03  0.27513069349E+03  0.00000000000E+00 0.  1.
</event>
<event>
12    1  0.8053217E-002  0.2235264E+03  0.7818608E-02  0.1131419E+00
         21   -1    0    0  503  502  0.00000000000E+00  0.00000000000E+00  0.18849213397E+03  0.18849213397E+03  0.00000000000E+00 0.  1.
         21   -1    0    0  501  503 -0.00000000000E+00 -0.00000000000E+00 -0.96029959794E+03  0.96029959794E+03  0.00000000000E+00 0.  1.
          6    2    1    2  501    0 -0.11096376677E+03 -0.89974599971E+02 -0.87477035839E+03  0.90269133930E+03  0.17093884269E+03 0.  0.
         24    2    3    3    0    0 -0.31879164033E+02 -0.10404235765E+03 -0.64714287910E+03  0.66126094451E+03  0.81431182491E+02 0.  0.
         -6    2    1    2    0  502  0.11096376677E+03  0.89974599971E+02  0.10296289443E+03  0.24610039261E+03  0.17191759490E+03 0.  0.
        -24    2    5    5    0    0  0.90719340679E+02  0.98843627181E+02  0.13465514040E+03  0.20717758585E+03  0.82404392082E+02 0.  0.
          5    1    3    3  501    0 -0.79084602737E+02  0.14067757677E+02 -0.22762747929E+03  0.24143039478E+03  0.47000000000E+01 0. -1.
        -11    1    4    4    0    0 -0.19827821895E+02 -0.72226102383E+02 -0.59016262991E+03  0.59489636251E+03  0.00000000000E+00 0.  1.
         12    1    4    4    0    0 -0.12051342137E+02 -0.31816255265E+02 -0.56980249195E+02  0.66364582005E+02  0.00000000000E+00 0. -1.
         -5    1    5    5    0  502  0.20244426091E+02 -0.88690272101E+01 -0.31692245970E+02  0.38922806760E+02  0.47000000000E+01 0.  1.
         13    1    6    6    0    0  0.18404595113E+02 -0.28549363890E+01 -0.55967245053E+01  0.19447444774E+02  0.00000000000E+00 0. -1.
        -14    1    6    6    0    0  0.72314745566E+02  0.10169856357E+03  0.14025186490E+03  0.18773014107E+03  0.00000000000E+00 0.  1.
</event>
<event>
12    1  0.8053217E-002  0.2531715E+03  0.7818608E-02  0.1111544E+00
         21   -1    0    0  503  502  0.00000000000E+00  0.00000000000E+00  0.22765073821E+04  0.22765073821E+04  0.00000000000E+00 0.  1.
         21   -1    0    0  501  503 -0.00000000000E+00 -0.00000000000E+00 -0.31538910455E+02  0.31538910455E+02  0.00000000000E+00 0. -1.
          6    2    1    2  501    0 -0.15647023336E+03 -0.98937983168E+02  0.73844766711E+03  0.78064126853E+03  0.17269677079E+03 0.  0.
         24    2    3    3    0    0 -0.52650058672E+02 -0.77943960941E+02  0.22994670273E+03  0.26120436340E+03  0.80653230796E+02 0.  0.
         -6    2    1    2    0  502  0.15647023336E+03  0.98937983168E+02  0.15065208046E+04  0.15274050240E+04  0.17055648466E+03 0.  0.
        -24    2    5    5    0    0  0.59402210463E+02 -0.10015975889E+02  0.49176078670E+03  0.50219619160E+03  0.82118214458E+02 0.  0.
          5    1    3    3  501    0 -0.10382017469E+03 -0.20994022227E+02  0.50850096438E+03  0.51943690513E+03  0.47000000000E+01 0. -1.
        -11    1    4    4    0    0 -0.23028204006E+02 -0.62525220914E+02  0.21412285796E+03  0.22425052894E+03  0.00000000000E+00 0.  1.
         12    1    4    4    0    0 -0.29621854666E+02 -0.15418740027E+02  0.15823844770E+02  0.36953834458E+02  0.00000000000E+00 0. -1.
         -5    1    5    5    0  502  0.97068022896E+02  0.10895395906E+03  0.10147600179E+04  0.10252088324E+04  0.47000000000E+01 0.  1.
         13    1    6    6    0    0  0.64390883499E+02  0.37148948748E+01  0.20156220702E+03  0.21163012455E+03  0.00000000000E+00 0. -1.
        -14    1    6    6    0    0 -0.49886730364E+01 -0.13730870764E+02  0.29019857968E+03  0.29056606705E+03  0.00000000000E+00 0.  1.
</event>
<event>
12    1  0.8053217E-002  0.1925762E+03  0.7818608E-02  0.1156325E+00
         21   -1    0    0  503  502  0.00000000000E+00  0.00000000000E+00  0.94923556909E+02  0.94923556909E+02  0.00000000000E+00 0.  1.
         21   -1    0    0  501  503 -0.00000000000E+00 -0.00000000000E+00 -0.45066324403E+03  0.45066324403E+03  0.00000000000E+00 0.  1.
          6    2    1    2  501    0 -0.65790743969E+02 -0.53537503181E+02 -0.27894087248E+03  0.33895956918E+03  0.17288982896E+03 0.  0.
         24    2    3    3    0    0 -0.82454019268E+02 -0.30366257965E+02 -0.84612216321E+02  0.14249000931E+03  0.73643741671E+02 0.  0.
         -6    2    1    2    0  502  0.65790743969E+02  0.53537503181E+02 -0.76798814641E+02  0.20662723176E+03  0.17205251738E+03 0.  0.
        -24    2    5    5    0    0  0.53035414442E+02  0.39317685607E+01 -0.10979931402E+03  0.14551626467E+03  0.79315067521E+02 0.  0.
          5    1    3    3  501    0  0.16663275299E+02 -0.23171245215E+02 -0.19432865616E+03  0.19646955986E+03  0.47000000000E+01 0. -1.
        -11    1    4    4    0    0 -0.81133181302E+02 -0.24593772699E+02 -0.96959167854E+02  0.12879645568E+03  0.00000000000E+00 0.  1.
         12    1    4    4    0    0 -0.13208379667E+01 -0.57724852667E+01  0.12346951533E+02  0.13693553638E+02  0.00000000000E+00 0. -1.
         -5    1    5    5    0  502  0.12755329527E+02  0.49605734620E+02  0.33000499383E+02  0.61110967085E+02  0.47000000000E+01 0.  1.
         13    1    6    6    0    0  0.17524433691E+02  0.85583728930E+00  0.10227574942E+02  0.20308656353E+02  0.00000000000E+00 0. -1.
        -14    1    6    6    0    0  0.35510980751E+02  0.30759312714E+01 -0.12002688897E+03  0.12520760832E+03  0.00000000000E+00 0.  1.
</event>
<event>
12    1  0.8053217E-002  0.2070300E+03  0.7818608E-02  0.1144725E+00
         21   -1    0    0  501  502  0.00000000000E+00  0.00000000000E+00  0.43309467969E+03  0.43309467969E+03  0.00000000000E+00 0. -1.
         21   -1    0    0  502  503 -0.00000000000E+00 -0.00000000000E+00 -0.22153573815E+03  0.22153573815E+03  0.00000000000E+00 0. -1.
         -6    2    1    2    0  503  0.49703504084E+02  0.10074309758E+03 -0.13906028543E+03  0.24939764598E+03  0.17390173320E+03 0.  0.
        -24    2    3    3    0    0  0.78606735682E+02  0.10892064628E+03 -0.14921847415E+03  0.21734225802E+03  0.83239281654E+02 0.  0.
          6    2    1    2  501    0 -0.49703504084E+02 -0.10074309758E+03  0.35061922697E+03  0.40523277185E+03  0.16929308029E+03 0.  0.
         24    2    5    5    0    0 -0.67431766162E+02 -0.78396122093E+02  0.13620904273E+03  0.18888237159E+03  0.80191345714E+02 0.  0.
          5    1    5    5  501    0  0.17728262078E+02 -0.22346975492E+02  0.21441018424E+03  0.21635040027E+03  0.47000000000E+01 0. -1.
        -11    1    6    6    0    0  0.17155989805E+02 -0.49470128599E+01  0.11464114436E+02  0.21218549484E+02  0.00000000000E+00 0.  1.
         12    1    6    6    0    0 -0.84587755967E+02 -0.73449109233E+02  0.12474492830E+03  0.16766382210E+03  0.00000000000E+00 0. -1.
         -5    1    3    3    0  503 -0.28903231598E+02 -0.81775486968E+01  0.10158188723E+02  0.32055387966E+02  0.47000000000E+01 0.  1.
         11    1    4    4    0    0  0.36487096815E+02  0.66870529773E+02 -0.13674574963E+03  0.15653234818E+03  0.00000000000E+00 0. -1.
        -12    1    4    4    0    0  0.42119638867E+02  0.42050116509E+02 -0.12472724521E+02  0.60809909831E+02  0.00000000000E+00 0.  1.
</event>
<event>
12    1  0.8053217E-002  0.2037755E+03  0.7818608E-02  0.1146786E+00
         21   -1    0    0  501  502  0.00000000000E+00  0.00000000000E+00  0.21285313097E+04  0.21285313097E+04  0.00000000000E+00 0. -1.
         21   -1    0    0  502  503 -0.00000000000E+00 -0.00000000000E+00 -0.19148791838E+03  0.19148791838E+03  0.00000000000E+00 0. -1.
         -6    2    1    2    0  503 -0.93208834321E+02 -0.58641422845E+02 -0.13087094383E+03  0.24218102188E+03  0.17145769201E+03 0.  0.
        -24    2    3    3    0    0 -0.70483849137E+02 -0.20103152062E+02 -0.15822603040E+03  0.18953110234E+03  0.74259358648E+02 0.  0.
          6    2    1    2  501    0  0.93208834321E+02  0.58641422845E+02  0.20679143352E+04  0.20778382062E+04  0.17033851702E+03 0.  0.
         24    2    5    5    0    0  0.49826261981E+02  0.23165334214E+02  0.50435386014E+03  0.51326668356E+03  0.77785494317E+02 0.  0.
          5    1    5    5  501    0  0.43382572339E+02  0.35476088631E+02  0.15635604751E+04  0.15645715227E+04  0.47000000000E+01 0. -1.
        -13    1    6    6    0    0  0.17065680303E+02  0.49982237021E+02  0.29059430010E+03  0.29535488605E+03  0.00000000000E+00 0.  1.
         14    1    6    6    0    0  0.32760581678E+02 -0.26816902807E+02  0.21375956004E+03  0.21791179751E+03  0.00000000000E+00 0. -1.
         -5    1    3    3    0  503 -0.22724985184E+02 -0.38538270783E+02  0.27355086563E+02  0.52649919539E+02  0.47000000000E+01 0.  1.
         13    1    4    4    0    0 -0.58378669119E+02 -0.44926813488E+02 -0.13343522852E+03  0.15241865958E+03  0.00000000000E+00 0. -1.
        -14    1    4    4    0    0 -0.12105180018E+02  0.24823661426E+02 -0.24790801880E+02  0.37112442762E+02  0.00000000000E+00 0.  1.
</event>
<event>
12    1  0.8053217E-002  0.1825368E+03  0.7818608E-02  0.1166231E+00
         21   -1    0    0  501  502  0.00000000000E+00  0.00000000000E+00  0.13811123339E+04  0.13811123339E+04  0.00000000000E+00 0.  1.
         21   -1    0    0  502  503 -0.00000000000E+00 -0.00000000000E+00 -0.24192485798E+02  0.24192485798E+02  0.00000000000E+00 0.  1.
         -6    2    1    2    0  503 -0.72155187797E+01  0.58014934915E+02  0.77671845722E+03  0.79706693315E+03  0.16913408218E+03 0.  0.
        -24    2    3    3    0    0 -0.10655086836E+02  0.95905993499E+02  0.70306450397E+03  0.71403345931E+03  0.78946778319E+02 0.  0.
          6    2    1    2  501    0  0.72155187797E+01 -0.58014934915E+02  0.58020139091E+03  0.60823788658E+03  0.17292158993E+03 0.  0.
         24    2    5    5    0    0 -0.53934118489E+02 -0.23120947379E+01  0.36778529336E+03  0.38023619131E+03  0.79995651480E+02 0.  0.
          5    1    5    5  501    0  0.61149637269E+02 -0.55702840177E+02  0.21241609756E+03  0.22800169526E+03  0.47000000000E+01 0. -1.
        -13    1    6    6    0    0 -0.69688337291E+02 -0.16936528930E+02  0.23426831989E+03  0.24499991035E+03  0.00000000000E+00 0.  1.
         14    1    6    6    0    0  0.15754218802E+02  0.14624434192E+02  0.13351697347E+03  0.13523628097E+03  0.00000000000E+00 0. -1.
         -5    1    3    3    0  503  0.34395680561E+01 -0.37891058584E+02  0.73653953245E+02  0.83033473838E+02  0.47000000000E+01 0.  1.
         13    1    4    4    0    0  0.28529726467E+01 -0.13572408871E+02  0.60491758771E+02  0.62061281124E+02  0.00000000000E+00 0. -1.
        -14    1    4    4    0    0 -0.13508059483E+02  0.10947840237E+03  0.64257274520E+03  0.65197217819E+03  0.00000000000E+00 0.  1.
</event>
<event>
12    1  0.8053217E-002  0.2129367E+03  0.7818608E-02  0.1141256E+00
         21   -1    0    0  503  502  0.00000000000E+00  0.00000000000E+00  0.60384604618E+03  0.60384604618E+03  0.00000000000E+00 0. -1.
         21   -1    0    0  501  503 -0.00000000000E+00 -0.00000000000E+00 -0.73156140701E+02  0.73156140701E+02  0.00000000000E+00 0.  1.
          6    2    1    2  501    0  0.94970299782E+02  0.57628950095E+02  0.20981809983E+03  0.29190382871E+03  0.16983449730E+03 0.  0.
         24    2    3    3    0    0  0.28990344996E+02  0.18530838398E+01  0.26662825173E+02  0.89339650429E+02  0.80167280544E+02 0.  0.
         -6    2    1    2    0  502 -0.94970299782E+02 -0.57628950095E+02  0.32087180565E+03  0.38509835816E+03  0.18166335919E+03 0.  0.
        -24    2    5    5    0    0  0.24067156998E+02 -0.73732294215E+01  0.11721764685E+03  0.14386680970E+03  0.79524145034E+02 0.  0.
          5    1    3    3  501    0  0.65979954786E+02  0.55775866255E+02  0.18315527466E+03  0.20256417829E+03  0.47000000000E+01 0. -1.
        -11    1    4    4    0    0 -0.66773710393E+01 -0.16937277093E+02  0.42336744336E+02  0.46085339972E+02  0.00000000000E+00 0.  1.
         12    1    4    4    0    0  0.35667716035E+02  0.18790360933E+02 -0.15673919163E+02  0.43254310457E+02  0.00000000000E+00 0. -1.
         -5    1    5    5    0  502 -0.11903745678E+03 -0.50255720674E+02  0.20365415880E+03  0.24123154846E+03  0.47000000000E+01 0.  1.
         13    1    6    6    0    0  0.23956243027E+02 -0.12223161923E+02  0.12865877849E+03  0.13143967647E+03  0.00000000000E+00 0. -1.
        -14    1    6    6    0    0  0.11091397127E+00  0.48499325010E+01 -0.11441131643E+02  0.12427133235E+02  0.00000000000E+00 0.  1.
</event>
<event>
12    1  0.8053217E-002  0.1801401E+03  0.7818608E-02  0.1167702E+00
         21   -1    0    0  501  502  0.00000000000E+00  0.00000000000E+00  0.52075988220E+03  0.52075988220E+03  0.00000000000E+00 0. -1.
         21   -1    0    0  502  503 -0.00000000000E+00 -0.00000000000E+00 -0.11096323453E+03  0.11096323453E+03  0.00000000000E+00 0. -1.
         -6    2    1    2    0  503  0.38590583301E+02  0.33140692626E+02 -0.43990813177E+01  0.18005004499E+03  0.17265899385E+03 0.  0.
        -24    2    3    3    0    0 -0.26689484263E+02  0.42487844255E+02 -0.40625588347E+02  0.10466233859E+03  0.82378523963E+02 0.  0.
          6    2    1    2  501    0 -0.38590583301E+02 -0.33140692626E+02  0.41419572899E+03  0.45167307174E+03  0.17280892104E+03 0.  0.
         24    2    5    5    0    0  0.20955551977E+02  0.39154753746E+02  0.19238516275E+03  0.21085282531E+03  0.73990764261E+02 0.  0.
          5    1    5    5  501    0 -0.59546135279E+02 -0.72295446372E+02  0.22181056624E+03  0.24082024643E+03  0.47000000000E+01 0. -1.
        -13    1    6    6    0    0  0.11246262540E+02  0.45433023921E+02  0.19364596228E+03  0.19922197869E+03  0.00000000000E+00 0.  1.
         14    1    6    6    0    0  0.97092894376E+01 -0.62782701746E+01 -0.12607995315E+01  0.11630846626E+02  0.00000000000E+00 0. -1.
         -5    1    3    3    0  503  0.65280067564E+02 -0.93471516290E+01  0.36226507030E+02  0.75387706401E+02  0.47000000000E+01 0.  1.
         13    1    4    4    0    0  0.25641250792E+02 -0.39980231083E+01 -0.15862635670E+02  0.30415146578E+02  0.00000000000E+00 0. -1.
        -14    1    4    4    0    0 -0.52330735055E+02  0.46485867363E+02 -0.24762952677E+02  0.74247192009E+02  0.00000000000E+00 0.  1.
</event>
<event>
12    1  0.8053217E-002  0.2186482E+03  0.7818608E-02  0.1135040E+00
         21   -1    0    0  503  502  0.00000000000E+00  0.00000000000E+00  0.53157204873E+03  0.53157204873E+03  0.00000000000E+00 0. -1.
         21   -1    0    0  501  503 -0.00000000000E+00 -0.00000000000E+00 -0.10120279087E+03  0.10120279087E+03  0.00000000000E+00 0. -1.
          6    2    1    2  501    0  0.12414758045E+03  0.50783431394E+02  0.10847506840E+03  0.24407759169E+03  0.17267151376E+03 0.  0.
         24    2    3    3    0    0  0.27478967716E+02  0.63956840545E+02  0.10060450662E+03  0.14608578010E+03  0.79838695350E+02 0.  0.
         -6    2    1    2    0  502 -0.12414758045E+03 -0.50783431394E+02  0.32189418946E+03  0.38869724791E+03  0.17169188301E+03 0.  0.
        -24    2    5    5    0    0 -0.11760153943E+03  0.19779773894E+02  0.18625854977E+03  0.23559227298E+03  0.81179493695E+02 0.  0.
          5    1    3    3  501    0  0.96668612733E+02 -0.13173409151E+02  0.78705617813E+01  0.97991811593E+02  0.47000000000E+01 0. -1.
        -13    1    4    4    0    0  0.31926167497E+02  0.26605540511E+02  0.10019109979E+03  0.10846838910E+03  0.00000000000E+00 0.  1.
         14    1    4    4    0    0 -0.44471997809E+01  0.37351300035E+02  0.41340682981E+00  0.37617390996E+02  0.00000000000E+00 0. -1.
         -5    1    5    5    0  502 -0.65460410242E+01 -0.70563205288E+02  0.13563563969E+03  0.15310497493E+03  0.47000000000E+01 0.  1.
         13    1    6    6    0    0 -0.97790367505E+02  0.17731279061E+02  0.19082861371E+03  0.21515788167E+03  0.00000000000E+00 0. -1.
        -14    1    6    6    0    0 -0.19811171920E+02  0.20484948325E+01 -0.45700639407E+01  0.20434391314E+02  0.00000000000E+00 0.  1.
</event>
<event>
12    1  0.8053217E-002  0.2268840E+03  0.7818608E-02  0.1130212E+00
         21   -1    0    0  503  502  0.00000000000E+00  0.00000000000E+00  0.21860457712E+03  0.21860457712E+03  0.00000000000E+00 0. -1.
         21   -1    0    0  501  503 -0.00000000000E+00 -0.00000000000E+00 -0.33875866380E+03  0.33875866380E+03  0.00000000000E+00 0. -1.
          6    2    1    2  501    0 -0.13706917966E+03  0.54396944680E+02 -0.22022818725E+03  0.31619111107E+03  0.17242208867E+03 0.  0.
         24    2    3    3    0    0 -0.35406148202E+01 -0.93391885181E+01 -0.55524501191E+02  0.94737805607E+02  0.76108640661E+02 0.  0.
         -6    2    1    2    0  502  0.13706917966E+03 -0.54396944680E+02  0.10007410057E+03  0.24117212985E+03  0.16248748569E+03 0.  0.
        -24    2    5    5    0    0  0.11702509832E+03 -0.94287784532E+02  0.10686001854E+03  0.19577187673E+03  0.65745754277E+02 0.  0.
          5    1    3    3  501    0 -0.13352856484E+03  0.63736133198E+02 -0.16470368606E+03  0.22145330547E+03  0.47000000000E+01 0. -1.
        -13    1    4    4    0    0  0.11593939792E+02 -0.36828372542E+01 -0.71196739981E+02  0.72228515934E+02  0.00000000000E+00 0.  1.
         14    1    4    4    0    0 -0.15134554612E+02 -0.56563512639E+01  0.15672238790E+02  0.22509289673E+02  0.00000000000E+00 0. -1.
         -5    1    5    5    0  502  0.20044081334E+02  0.39890839851E+02 -0.67859179710E+01  0.45400253119E+02  0.47000000000E+01 0.  1.
         13    1    6    6    0    0  0.83578987341E+02 -0.38427286450E+02  0.34030032792E+02  0.98082346020E+02  0.00000000000E+00 0. -1.
        -14    1    6    6    0    0  0.33446110980E+02 -0.55860498081E+02  0.72829985748E+02  0.97689530706E+02  0.00000000000E+00 0.  1.
</event>
<event>
12    1  0.8053217E-002  0.1932124E+03  0.7818608E-02  0.1156694E+00
         21   -1    0    0  501  502  0.00000000000E+00  0.00000000000E+00  0.21061675545E+03  0.21061675545E+03  0.00000000000E+00 0. -1.
         21   -1    0    0  502  503 -0.00000000000E+00 -0.00000000000E+00 -0.21712807786E+03  0.21712807786E+03  0.00000000000E+00 0. -1.
         -6    2    1    2    0  503  0.10846908635E+02  0.76959452485E+02 -0.99950859468E+02  0.21753438281E+03  0.17689155051E+03 0.  0.
        -24    2    3    3    0    0  0.72371099990E+02  0.22691483468E+02 -0.38879359881E+02  0.11515246720E+03  0.77433884967E+02 0.  0.
          6    2    1    2  501    0 -0.10846908635E+02 -0.76959452485E+02  0.93439537058E+02  0.21021045051E+03  0.17151406258E+03 0.  0.
         24    2    5    5    0    0 -0.13707903869E+01 -0.11458819172E+03  0.96985082764E+02  0.17096277888E+03  0.81791397683E+02 0.  0.
          5    1    5    5  501    0 -0.94761182482E+01  0.37628739240E+02 -0.35455457060E+01  0.39247671628E+02  0.47000000000E+01 0. -1.
        -13    1    6    6    0    0  0.47354401581E+01 -0.11424180810E+03  0.52078278693E+02  0.12564140330E+03  0.00000000000E+00 0.  1.
         14    1    6    6    0    0 -0.61062305450E+01 -0.34638362897E+00  0.44906804070E+02  0.45321375585E+02  0.00000000000E+00 0. -1.
         -5    1    3    3    0  503 -0.61524191355E+02  0.54267969017E+02 -0.61071499587E+02  0.10238191561E+03  0.47000000000E+01 0.  1.
         11    1    4    4    0    0  0.54135902194E+02  0.41357111006E+02 -0.52227708860E+02  0.85841948428E+02  0.00000000000E+00 0. -1.
        -12    1    4    4    0    0  0.18235197795E+02 -0.18665627538E+02  0.13348348979E+02  0.29310518769E+02  0.00000000000E+00 0.  1.
</event>
<event>
12    1  0.8053217E-002  0.1949415E+03  0.7818608E-02  0.1154094E+00
         21   -1    0    0  503  502  0.00000000000E+00  0.00000000000E+00  0.38897685880E+02  0.38897685880E+02  0.00000000000E+00 0.  1.
         21   -1    0    0  501  503 -0.00000000000E+00 -0.00000000000E+00 -0.11751126066E+04  0.11751126066E+04  0.00000000000E+00 0.  1.
          6    2    1    2  501    0 -0.29901409217E+02  0.87053348313E+02 -0.31871981938E+03  0.37361011360E+03  0.17184241035E+03 0.  0.
         24    2    3    3    0    0 -0.58821299647E+02  0.73223068269E+02 -0.12069866346E+03  0.17295592127E+03  0.80771407830E+02 0.  0.
         -6    2    1    2    0  502  0.29901409217E+02 -0.87053348313E+02 -0.81749510134E+03  0.84040017888E+03  0.17176099737E+03 0.  0.
        -24    2    5    5    0    0 -0.43939219790E+02 -0.83408998468E+02 -0.50182345643E+03  0.51615274684E+03  0.75492785052E+02 0.  0.
          5    1    3    3  501    0  0.28919890430E+02  0.13830280044E+02 -0.19802115591E+03  0.20065419233E+03  0.47000000000E+01 0. -1.
        -11    1    4    4    0    0 -0.16986009028E+01  0.47781684280E+02 -0.14936703099E+02  0.50090714680E+02  0.00000000000E+00 0.  1.
         12    1    4    4    0    0 -0.57122698744E+02  0.25441383989E+02 -0.10576196037E+03  0.12286520659E+03  0.00000000000E+00 0. -1.
         -5    1    5    5    0  502  0.73840629007E+02 -0.36443498455E+01 -0.31567164492E+03  0.32424743204E+03  0.47000000000E+01 0.  1.
         11    1    6    6    0    0  0.55977009919E+01 -0.68935688903E+02 -0.28492536804E+03  0.29319946933E+03  0.00000000000E+00 0. -1.
        -12    1    6    6    0    0 -0.49536920782E+02 -0.14473309564E+02 -0.21689808839E+03  0.22295327752E+03  0.00000000000E+00 0.  1.
</event>
<event>
12    1  0.8053217E-002  0.1900037E+03  0.7818608E-02  0.1158723E+00
         21   -1    0    0  501  502  0.00000000000E+00  0.00000000000E+00  0.15756984228E+03  0.15756984228E+03  0.00000000000E+00 0.  1.
         21   -1    0    0  502  503 -0.00000000000E+00 -0.00000000000E+00 -0.25314326859E+03  0.25314326859E+03  0.00000000000E+00 0.  1.
         -6    2    1    2    0  503  0.13394043654E+02  0.75591380809E+02 -0.11275228774E+03  0.21993438466E+03  0.17252419514E+03 0.  0.
        -24    2    3    3    0    0  0.43586600608E+02 -0.71016629911E+01 -0.12790797223E+02  0.86652279433E+02  0.73449218291E+02 0.  0.
          6    2    1    2  501    0 -0.13394043654E+02 -0.75591380809E+02  0.17178861425E+02  0.19077872621E+03  0.17380434931E+03 0.  0.
         24    2    5    5    0    0 -0.19912687444E+02 -0.41454915987E+02 -0.56515399440E+02  0.10916546117E+03  0.81290112296E+02 0.  0.
          5    1    5    5  501    0  0.65186437904E+01 -0.34136464822E+02  0.73694260865E+02  0.81613265048E+02  0.47000000000E+01 0. -1.
        -13    1    6    6    0    0  0.18434980040E+02 -0.35542717872E+02  0.68717462775E+00  0.40045043286E+02  0.00000000000E+00 0.  1.
         14    1    6    6    0    0 -0.38347667484E+02 -0.59121981152E+01 -0.57202574068E+02  0.69120417880E+02  0.00000000000E+00 0. -1.
         -5    1    3    3    0  503 -0.30192556954E+02  0.82693043800E+02 -0.99961490515E+02  0.13328210523E+03  0.47000000000E+01 0.  1.
         13    1    4    4    0    0  0.32877328868E+02  0.53610021398E+01  0.27463778346E+02  0.43173119166E+02  0.00000000000E+00 0. -1.
        -14    1    4    4    0    0  0.10709271740E+02 -0.12462665131E+02 -0.40254575569E+02  0.43479160268E+02  0.00000000000E+00 0.  1.
</event>
<event>
12    1  0.8053217E-002  0.4141691E+03  0.7818608E-02  0.1039125E+00
         21   -1    0    0  503  502  0.00000000000E+00  0.00000000000E+00  0.40147019714E+03  0.40147019714E+03  0.00000000000E+00 0. -1.
         21   -1    0    0  501  503 -0.00000000000E+00 -0.00000000000E+00 -0.56244737861E+03  0.56244737861E+03  0.00000000000E+00 0.  1.
          6    2    1    2  501    0  0.71794943964E+02 -0.36985805929E+03  0.15747915802E+03  0.44147097257E+03  0.16777197745E+03 0.  0.
         24    2    3    3    0    0  0.50417588566E+02 -0.34836029756E+03  0.17997838172E+03  0.40342560294E+03  0.80393837263E+02 0.  0.
         -6    2    1    2    0  502 -0.71794943964E+02  0.36985805929E+03 -0.31845633949E+03  0.52244660317E+03  0.17200731092E+03 0.  0.
        -24    2    5    5    0    0  0.74424342604E+00  0.16079284607E+03 -0.77952141504E+02  0.19559104435E+03  0.79526266226E+02 0.  0.
          5    1    3    3  501    0  0.21377355398E+02 -0.21497761725E+02 -0.22499223703E+02  0.38045369629E+02  0.47000000000E+01 0. -1.
        -11    1    4    4    0    0 -0.92637265223E+01 -0.59823799971E+01  0.15256909904E+02  0.18824951509E+02  0.00000000000E+00 0.  1.
         12    1    4    4    0    0  0.59681315088E+02 -0.34237791756E+03  0.16472147182E+03  0.38460065144E+03  0.00000000000E+00 0. -1.
         -5    1    5    5    0  502 -0.72539187390E+02  0.20906521321E+03 -0.24050419798E+03  0.32685555882E+03  0.47000000000E+01 0.  1.
         11    1    6    6    0    0 -0.38021828360E+02  0.60111480782E+02 -0.24842488130E+02  0.75340551963E+02  0.00000000000E+00 0. -1.
        -12    1    6    6    0    0  0.38766071786E+02  0.10068136529E+03 -0.53109653374E+02  0.12025049239E+03  0.00000000000E+00 0.  1.
</event>
<event>
12    1  0.8053217E-002  0.2397690E+03  0.7818608E-02  0.1120197E+00
         21   -1    0    0  501  502  0.00000000000E+00  0.00000000000E+00  0.80157470302E+03  0.80157470302E+03  0.00000000000E+00 0.  1.
         21   -1    0    0  502  503 -0.00000000000E+00 -0.00000000000E+00 -0.74671601649E+02  0.74671601649E+02  0.00000000000E+00 0.  1.
         -6    2    1    2    0  503  0.63964393117E+02 -0.15102059638E+03  0.26891720466E+03  0.35929342776E+03  0.17284860471E+03 0.  0.
        -24    2    3    3    0    0  0.43384889200E+02 -0.59435288647E+02  0.23853902433E+03  0.26051940074E+03  0.74529791932E+02 0.  0.
          6    2    1    2  501    0 -0.63964393117E+02  0.15102059638E+03  0.45798589670E+03  0.51695287691E+03  0.17490149011E+03 0.  0.
         24    2    5    5    0    0 -0.29198454359E+02  0.10616775404E+03  0.43283439091E+03  0.45470228488E+03  0.85348791354E+02 0.  0.
          5    1    5    5  501    0 -0.34765938758E+02  0.44852842341E+02  0.25151505792E+02  0.62250592024E+02  0.47000000000E+01 0. -1.
        -11    1    6    6    0    0 -0.16326392698E+02  0.77522372277E+02  0.14561338553E+03  0.16576950065E+03  0.00000000000E+00 0.  1.
         12    1    6    6    0    0 -0.12872061661E+02  0.28645381759E+02  0.28722100538E+03  0.28893278423E+03  0.00000000000E+00 0. -1.
         -5    1    3    3    0  503  0.20579503917E+02 -0.91585307729E+02  0.30378180330E+02  0.98774027019E+02  0.47000000000E+01 0.  1.
         11    1    4    4    0    0  0.50596674799E+02 -0.60186883097E+02  0.13135381479E+03  0.15308921928E+03  0.00000000000E+00 0. -1.
        -12    1    4    4    0    0 -0.72117855989E+01  0.75159444970E+00  0.10718520954E+03  0.10743018146E+03  0.00000000000E+00 0.  1.
</event>
<event>
12    1  0.8053217E-002  0.1943226E+03  0.7818608E-02  0.1154696E+00
         21   -1    0    0  503  502  0.00000000000E+00  0.00000000000E+00  0.38314825028E+03  0.38314825028E+03  0.00000000000E+00 0.  1.
         21   -1    0    0  501  503 -0.00000000000E+00 -0.00000000000E+00 -0.32823402759E+03  0.32823402759E+03  0.00000000000E+00 0.  1.
          6    2    1    2  501    0 -0.64164965978E+02 -0.63894452261E+02 -0.27020208467E+03  0.33261865471E+03  0.17154112921E+03 0.  0.
         24    2    3    3    0    0 -0.49064920130E+02 -0.44067454411E+02 -0.54891522005E+02  0.11581955503E+03  0.77793208012E+02 0.  0.
         -6    2    1    2    0  502  0.64164965978E+02  0.63894452261E+02  0.32511630736E+03  0.37876362316E+03  0.17193494419E+03 0.  0.
        -24    2    5    5    0    0  0.69737290688E+02  0.29193407885E+02  0.32597578614E+03  0.34329473557E+03  0.76651924584E+02 0.  0.
          5    1    3    3  501    0 -0.15100045848E+02 -0.19826997850E+02 -0.21531056266E+03  0.21679909968E+03  0.47000000000E+01 0. -1.
        -11    1    4    4    0    0 -0.16740740046E+02 -0.15422102155E+02 -0.67166697642E+02  0.70918677965E+02  0.00000000000E+00 0.  1.
         12    1    4    4    0    0 -0.32324180084E+02 -0.28645352256E+02  0.12275175636E+02  0.44900877062E+02  0.00000000000E+00 0. -1.
         -5    1    5    5    0  502 -0.55723247102E+01  0.34701044375E+02 -0.85947878541E+00  0.35468887594E+02  0.47000000000E+01 0.  1.
         11    1    6    6    0    0  0.18759026065E+02  0.12701713031E+01  0.86620480718E+01  0.20701339833E+02  0.00000000000E+00 0. -1.
        -12    1    6    6    0    0  0.50978264623E+02  0.27923236582E+02  0.31731373807E+03  0.32259339574E+03  0.00000000000E+00 0.  1.
</event>
<event>
12    1  0.8053217E-002  0.1786855E+03  0.7818608E-02  0.1169639E+00
         21   -1    0    0  503  502  0.00000000000E+00  0.00000000000E+00  0.91248311409E+02  0.91248311409E+02  0.00000000000E+00 0.  1.
         21   -1    0    0  501  503 -0.00000000000E+00 -0.00000000000E+00 -0.41204945315E+03  0.41204945315E+03  0.00000000000E+00 0.  1.
          6    2    1    2  501    0 -0.40965159282E+02  0.10018369198E+02 -0.26240684388E+03  0.31746791064E+03  0.17363758400E+03 0.  0.
         24    2    3    3    0    0  0.41535212075E+02  0.17711102296E+02 -0.17855091931E+03  0.19948742284E+03  0.76654706961E+02 0.  0.
         -6    2    1    2    0  502  0.40965159282E+02 -0.10018369198E+02 -0.58394297865E+02  0.18582985392E+03  0.17130186393E+03 0.  0.
        -24    2    5    5    0    0  0.34484479064E+02 -0.62352779575E+02 -0.74196309327E+02  0.13057876079E+03  0.80428055021E+02 0.  0.
          5    1    3    3  501    0 -0.82500371357E+02 -0.76927330981E+01 -0.83855924565E+02  0.11798048780E+03  0.47000000000E+01 0. -1.
        -11    1    4    4    0    0  0.39248381948E+02  0.94531266782E+01 -0.29038315741E+02  0.49729476878E+02  0.00000000000E+00 0.  1.
         12    1    4    4    0    0  0.22868301266E+01  0.82579756180E+01 -0.14951260357E+03  0.14975794596E+03  0.00000000000E+00 0. -1.
         -5    1    5    5    0  502  0.64806802180E+01  0.52334410377E+02  0.15802011462E+02  0.55251093128E+02  0.47000000000E+01 0.  1.
         13    1    6    6    0    0  0.57411099985E+02 -0.40698865486E+02 -0.69112566720E+02  0.98635586540E+02  0.00000000000E+00 0. -1.
        -14    1    6    6    0    0 -0.22926620921E+02 -0.21653914089E+02 -0.50837426064E+01  0.31943174249E+02  0.00000000000E+00 0.  1.
</event>
<event>
12    1  0.8053217E-002  0.2326234E+03  0.7818608E-02  0.1125364E+00
         21   -1    0    0  503  502  0.00000000000E+00  0.00000000000E+00  0.17563132958E+03  0.17563132958E+03  0.00000000000E+00 0.  1.
         21   -1    0    0  501  503 -0.00000000000E+00 -0.00000000000E+00 -0.37844666300E+03  0.37844666300E+03  0.00000000000E+00 0.  1.
          6    2    1    2  501    0 -0.15383381314E+03  0.29241263515E+02 -0.22380055091E+03  0.32050997406E+03  0.16769037936E+03 0.  0.
         24    2    3    3    0    0 -0.15894899341E+03 -0.15458305029E+02 -0.15149855467E+03  0.23522289909E+03  0.82911148150E+02 0.  0.
         -6    2    1    2    0  502  0.15383381314E+03 -0.29241263515E+02  0.20985217486E+02  0.23356801852E+03  0.17202833012E+03 0.  0.
        -24    2    5    5    0    0  0.51844122560E+02  0.31682129208E+02 -0.29696909917E+02  0.10432280660E+03  0.79434068026E+02 0.  0.
          5    1    3    3  501    0  0.51151802730E+01  0.44699568543E+02 -0.72301996239E+02  0.85287074972E+02  0.47000000000E+01 0. -1.
        -13    1    4    4    0    0 -0.12935126112E+03  0.22115396732E+02 -0.12097778982E+03  0.17848379522E+03  0.00000000000E+00 0.  1.
         14    1    4    4    0    0 -0.29597732289E+02 -0.37573701761E+02 -0.30520764851E+02  0.56739103868E+02  0.00000000000E+00 0. -1.
         -5    1    5    5    0  502  0.10198969058E+03 -0.60923392723E+02  0.50682127403E+02  0.12924521192E+03  0.47000000000E+01 0.  1.
         11    1    6    6    0    0 -0.30962064555E+01 -0.43097731389E+00 -0.39770565033E+02  0.39893233498E+02  0.00000000000E+00 0. -1.
        -12    1    6    6    0    0  0.54940329015E+02  0.32113106522E+02  0.10073655116E+02  0.64429573102E+02  0.00000000000E+00 0.  1.
</event>
<event>
12    1  0.8053217E-002  0.2647995E+03  0.7818608E-02  0.1104340E+00
         21   -1    0    0  501  502  0.00000000000E+00  0.00000000000E+00  0.23271141787E+03  0.23271141787E+03  0.00000000000E+00 0.  1.
         21   -1    0    0  502  503 -0.00000000000E+00 -0.00000000000E+00 -0.60883125036E+03  0.60883125036E+03  0.00000000000E+00 0.  1.
         -6    2    1    2    0  503 -0.15671832121E+03 -0.12594146758E+03 -0.48733311161E+03  0.55462809684E+03  0.17232782327E+03 0.  0.
        -24    2    3    3    0    0 -0.40110985711E+02 -0.31263336821E+02 -0.92909908213E+02  0.13254638376E+03  0.79686921138E+02 0.  0.
          6    2    1    2  501    0  0.15671832121E+03  0.12594146758E+03  0.11121327912E+03  0.28691457139E+03  0.17184205645E+03 0.  0.
         24    2    5    5    0    0  0.17731943215E+03  0.71171750391E+02  0.89858271522E+02  0.22444654723E+03  0.76119278320E+02 0.  0.
          5    1    5    5  501    0 -0.20601110943E+02  0.54769717186E+02  0.21355007602E+02  0.62468024159E+02  0.47000000000E+01 0. -1.
        -11    1    6    6    0    0  0.84853031896E+02  0.69916109239E+02  0.28879466517E+02  0.11367639570E+03  0.00000000000E+00 0.  1.
         12    1    6    6    0    0  0.92466400256E+02  0.12556411517E+01  0.60978805005E+02  0.11077015153E+03  0.00000000000E+00 0. -1.
         -5    1    3    3    0  503 -0.11660733550E+03 -0.94678130756E+02 -0.39442320340E+03  0.42208171308E+03  0.47000000000E+01 0.  1.
         13    1    4    4    0    0  0.92233528832E+01  0.96735065883E+01  0.60220280132E+01  0.14659870037E+02  0.00000000000E+00 0. -1.
        -14    1    4    4    0    0 -0.49334338594E+02 -0.40936843409E+02 -0.98931936226E+02  0.11788651372E+03  0.00000000000E+00 0.  1.
</event>
<event>
12    1  0.8053217E-002  0.2106362E+03  0.7818608E-02  0.1141126E+00
         21   -1    0    0  501  502  0.00000000000E+00  0.00000000000E+00  0.25502394135E+03  0.25502394135E+03  0.00000000000E+00 0.  1.
         21   -1    0    0  502  503 -0.00000000000E+00 -0.00000000000E+00 -0.17922475412E+03  0.17922475412E+03  0.00000000000E+00 0.  1.
         -6    2    1    2    0  503 -0.50892271468E+02 -0.11099575521E+03  0.75948838702E+02  0.22361239666E+03  0.17124309292E+03 0.  0.
        -24    2    3    3    0    0 -0.61221518532E+02 -0.87627796440E+01  0.13306891197E+02  0.10317827266E+03  0.81509643336E+02 0.  0.
          6    2    1    2  501    0  0.50892271468E+02  0.11099575521E+03 -0.14965147605E+00  0.21063629881E+03  0.17163201044E+03 0.  0.
         24    2    5    5    0    0 -0.35183379706E+01  0.13094698046E+03 -0.31907053248E+01  0.15241341828E+03  0.77847152013E+02 0.  0.
          5    1    5    5  501    0  0.54410609438E+02 -0.19951225252E+02  0.30410538487E+01  0.58222880528E+02  0.47000000000E+01 0. -1.
        -13    1    6    6    0    0 -0.13737474364E+02  0.13289417187E+03  0.11848644905E+02  0.13412669199E+03  0.00000000000E+00 0.  1.
         14    1    6    6    0    0  0.10219136394E+02 -0.19471914045E+01 -0.15039350230E+02  0.18286726288E+02  0.00000000000E+00 0. -1.
         -5    1    3    3    0  503  0.10329247064E+02 -0.10223297557E+03  0.62641947506E+02  0.12043412401E+03  0.47000000000E+01 0.  1.
         11    1    4    4    0    0 -0.42160304467E+02 -0.89950077890E+01  0.47428660018E+02  0.64092739285E+02  0.00000000000E+00 0. -1.
        -12    1    4    4    0    0 -0.19061214065E+02  0.23222814495E+00 -0.34121768821E+02  0.39085533373E+02  0.00000000000E+00 0.  1.
</event>
<event>
12    1  0.8053217E-002  0.2223494E+03  0.7818608E-02  0.1132464E+00
         21   -1    0    0  503  502  0.00000000000E+00  0.00000000000E+00  0.11435506450E+04  0.11435506450E+04  0.00000000000E+00 0.  1.
         21   -1    0    0  501  503 -0.00000000000E+00 -0.00000000000E+00 -0.97874280150E+02  0.97874280150E+02  0.00000000000E+00 0. -1.
          6    2    1    2  501    0  0.78708224284E+02 -0.11370545133E+03  0.58525748738E+02  0.22992287575E+03  0.17411304172E+03 0.  0.
         24    2    3    3    0    0  0.94412546488E+02 -0.88322974483E+02  0.97188693444E+02  0.18085344372E+03  0.80917545780E+02 0.  0.
         -6    2    1    2    0  502 -0.78708224284E+02  0.11370545133E+03  0.98715061610E+03  0.10115020494E+04  0.17188991481E+03 0.  0.
        -24    2    5    5    0    0 -0.54542310000E+02  0.32922057602E+02  0.28284255534E+03  0.30214890563E+03  0.85060711266E+02 0.  0.
          5    1    3    3  501    0 -0.15704322204E+02 -0.25382476847E+02 -0.38662944706E+02  0.49069432034E+02  0.47000000000E+01 0. -1.
        -11    1    4    4    0    0  0.13975199954E+02 -0.66729919333E+02  0.33238603423E+02  0.75848487826E+02  0.00000000000E+00 0.  1.
         12    1    4    4    0    0  0.80437346534E+02 -0.21593055151E+02  0.63950090021E+02  0.10500495589E+03  0.00000000000E+00 0. -1.
         -5    1    5    5    0  502 -0.24165914284E+02  0.80783393729E+02  0.70430806075E+03  0.70935314376E+03  0.47000000000E+01 0.  1.
         11    1    6    6    0    0 -0.36489108625E+02  0.49745063414E+02  0.98940616320E+02  0.11659876475E+03  0.00000000000E+00 0. -1.
        -12    1    6    6    0    0 -0.18053201376E+02 -0.16823005812E+02  0.18390193902E+03  0.18555014088E+03  0.00000000000E+00 0.  1.
</event>
<event>
12    1  0.8053217E-002  0.1980712E+03  0.7818608E-02  0.1152058E+00
         21   -1    0    0  503  502  0.00000000000E+00  0.00000000000E+00  0.26997958819E+03  0.26997958819E+03  0.00000000000E+00 0. -1.
         21   -1    0    0  501  503 -0.00000000000E+00 -0.00000000000E+00 -0.14444454342E+03  0.14444454342E+03  0.00000000000E+00 0. -1.
          6    2    1    2  501    0 -0.88423061415E+02  0.26408131107E+02  0.41572973717E+02  0.19929203751E+03  0.17167695504E+03 0.  0.
         24    2    3    3    0    0  0.19863074519E+01 -0.18710160244E+02 -0.19316269375E+02  0.81228054359E+02  0.76621557271E+02 0.  0.
         -6    2    1    2    0  502  0.88423061415E+02 -0.26408131107E+02  0.83962071051E+02  0.21513209411E+03  0.17526026749E+03 0.  0.
        -24    2    5    5    0    0  0.54821033617E+02 -0.51570341634E+02  0.11822504514E+03  0.16074207200E+03  0.78714716229E+02 0.  0.
          5    1    3    3  501    0 -0.90409368867E+02  0.45118291352E+02  0.60889243092E+02  0.11806398315E+03  0.47000000000E+01 0. -1.
        -13    1    4    4    0    0  0.10192891081E+02  0.66417537597E+00  0.27805382383E+02  0.29622212054E+02  0.00000000000E+00 0.  1.
         14    1    4    4    0    0 -0.82065836286E+01 -0.19374335620E+02 -0.47121651758E+02  0.51605842305E+02  0.00000000000E+00 0. -1.
         -5    1    5    5    0  502  0.33602027798E+02  0.25162210526E+02 -0.34262974089E+02  0.54390022101E+02  0.47000000000E+01 0.  1.
         13    1    6    6    0    0  0.27757911063E+02 -0.20706781499E+02 -0.10036677228E+01  0.34645054128E+02  0.00000000000E+00 0. -1.
        -14    1    6    6    0    0  0.27063122554E+02 -0.30863560134E+02  0.11922871286E+03  0.12609701788E+03  0.00000000000E+00 0.  1.
</event>
<event>
12    1  0.8053217E-002  0.2001869E+03  0.7818608E-02  0.1150052E+00
         21   -1    0    0  501  502  0.00000000000E+00  0.00000000000E+00  0.70671799254E+03  0.70671799254E+03  0.00000000000E+00 0.  1.
         21   -1    0    0  502  503 -0.00000000000E+00 -0.00000000000E+00 -0.11181730029E+03  0.11181730029E+03  0.00000000000E+00 0.  1.
         -6    2    1    2    0  503 -0.49290244971E+02  0.76350949385E+02  0.76623786827E+01  0.19811315996E+03  0.17587244350E+03 0.  0.
        -24    2    3    3    0    0 -0.37394818248E+02  0.79257380444E+01 -0.52573992516E+02  0.10605871336E+03  0.83804750669E+02 0.  0.
          6    2    1    2  501    0  0.49290244971E+02 -0.76350949385E+02  0.58723831357E+03  0.62042213287E+03  0.17836981334E+03 0.  0.
         24    2    5    5    0    0  0.28307168220E+02  0.21613444345E+02  0.17372160000E+03  0.19491599385E+03  0.80898786149E+02 0.  0.
          5    1    5    5  501    0  0.20983076751E+02 -0.97964393730E+02  0.41351671356E+03  0.42550613902E+03  0.47000000000E+01 0. -1.
        -13    1    6    6    0    0  0.33126045390E+02  0.49309790426E+02  0.13010167721E+03  0.14302180508E+03  0.00000000000E+00 0.  1.
         14    1    6    6    0    0 -0.48188771702E+01 -0.27696346081E+02  0.43619922795E+02  0.51894188769E+02  0.00000000000E+00 0. -1.
         -5    1    3    3    0  503 -0.11895426722E+02  0.68425211340E+02  0.60236371199E+02  0.92054446602E+02  0.47000000000E+01 0.  1.
         13    1    4    4    0    0  0.19316124955E+02  0.25503570057E+02 -0.12108041087E+02  0.34207446965E+02  0.00000000000E+00 0. -1.
        -14    1    4    4    0    0 -0.56710943203E+02 -0.17577832013E+02 -0.40465951429E+02  0.71851266393E+02  0.00000000000E+00 0.  1.
</event>
<event>
12    1  0.8053217E-002  0.1878996E+03  0.7818608E-02  0.1160544E+00
         21   -1    0    0  501  502  0.00000000000E+00  0.00000000000E+00  0.37710008988E+03  0.37710008988E+03  0.00000000000E+00 0.  1.
         21   -1    0    0  502  503 -0.00000000000E+00 -0.00000000000E+00 -0.11635026102E+03  0.11635026102E+03  0.00000000000E+00 0.  1.
         -6    2    1    2    0  503 -0.78071627923E+02  0.67647075076E+01  0.20220074162E+02  0.18822778584E+03  0.16994089446E+03 0.  0.
        -24    2    3    3    0    0 -0.18195295848E+02  0.61882852113E+02  0.27734455786E+02  0.10636362434E+03  0.79896585458E+02 0.  0.
          6    2    1    2  501    0  0.78071627923E+02 -0.67647075076E+01  0.24052975469E+03  0.30522256506E+03  0.17077854366E+03 0.  0.
         24    2    5    5    0    0  0.64929815040E+02 -0.36687446872E+02  0.65887231050E+02  0.12748630359E+03  0.79685511537E+02 0.  0.
          5    1    5    5  501    0  0.13141812882E+02  0.29922739364E+02  0.17464252364E+03  0.17773626147E+03  0.47000000000E+01 0. -1.
        -13    1    6    6    0    0  0.14108452397E+01  0.19836898609E+02 -0.51628049855E-01  0.19887073595E+02  0.00000000000E+00 0.  1.
         14    1    6    6    0    0  0.63518969801E+02 -0.56524345481E+02  0.65938859099E+02  0.10759923000E+03  0.00000000000E+00 0. -1.
         -5    1    3    3    0  503 -0.59876332075E+02 -0.55118144605E+02 -0.75143816243E+01  0.81864161503E+02  0.47000000000E+01 0.  1.
         13    1    4    4    0    0 -0.48814510947E+02  0.37122178979E+02  0.26926771743E+02  0.66977337119E+02  0.00000000000E+00 0. -1.
        -14    1    4    4    0    0  0.30619215099E+02  0.24760673134E+02  0.80768404342E+00  0.39386287218E+02  0.00000000000E+00 0.  1.
</event>
<event>
12    1  0.8053217E-002  0.2231221E+03  0.7818608E-02  0.1131683E+00
         21   -1    0    0  503  502  0.00000000000E+00  0.00000000000E+00  0.36362017067E+03  0.36362017067E+03  0.00000000000E+00 0.  1.
         21   -1    0    0  501  503 -0.00000000000E+00 -0.00000000000E+00 -0.13788745614E+03  0.13788745614E+03  0.00000000000E+00 0.  1.
          6    2    1    2  501    0 -0.12790211893E+03 -0.60106818880E+02  0.13766518526E+03  0.26217397676E+03  0.17266067634E+03 0.  0.
         24    2    3    3    0    0 -0.25139787432E+02  0.42159163444E+01  0.10882534218E+03  0.13746897449E+03  0.80031125099E+02 0.  0.
         -6    2    1    2    0  502  0.12790211893E+03  0.60106818880E+02  0.88067529265E+02  0.23933365005E+03  0.17190964089E+03 0.  0.
        -24    2    5    5    0    0  0.56186355730E+02  0.12963641432E+02  0.11327843534E+03  0.14976072078E+03  0.79191584190E+02 0.  0.
          5    1    3    3  501    0 -0.10276233150E+03 -0.64322735225E+02  0.28839843082E+02  0.12470500227E+03  0.47000000000E+01 0. -1.
        -11    1    4    4    0    0 -0.46593554161E+02 -0.83180164724E+01  0.10079903989E+03  0.11135795944E+03  0.00000000000E+00 0.  1.
         12    1    4    4    0    0  0.21453766728E+02  0.12533932817E+02  0.80263022883E+01  0.26111015053E+02  0.00000000000E+00 0. -1.
         -5    1    5    5    0  502  0.71715763204E+02  0.47143177448E+02 -0.25210906074E+02  0.89572929264E+02  0.47000000000E+01 0.  1.
         11    1    6    6    0    0  0.70591925101E+02  0.28212846944E+02  0.79492275633E+02  0.10999184746E+03  0.00000000000E+00 0. -1.
        -12    1    6    6    0    0 -0.14405569370E+02 -0.15249205511E+02  0.33786159707E+02  0.39768873323E+02  0.00000000000E+00 0.  1.
</event>
<event>
12    1  0.8053217E-002  0.2629050E+03  0.7818608E-02  0.1105522E+00
         21   -1    0    0  501  502  0.00000000000E+00  0.00000000000E+00  0.23496275216E+03  0.23496275216E+03  0.00000000000E+00 0. -1.
         21   -1    0    0  502  503 -0.00000000000E+00 -0.00000000000E+00 -0.33396769750E+03  0.33396769750E+03  0.00000000000E+00 0.  1.
         -6    2    1    2    0  503 -0.19526563758E+03  0.28010330369E+02 -0.14867482549E+03  0.30137456441E+03  0.17265334203E+03 0.  0.
        -24    2    3    3    0    0 -0.10694244471E+03 -0.31899164085E+00 -0.15950815927E+03  0.20787061795E+03  0.79564770444E+02 0.  0.
          6    2    1    2  501    0  0.19526563758E+03 -0.28010330369E+02  0.49669880143E+02  0.26755588525E+03  0.17379817868E+03 0.  0.
         24    2    5    5    0    0  0.15947801416E+03  0.94626417308E+01 -0.18657244587E+02  0.18167420151E+03  0.84466822670E+02 0.  0.
          5    1    5    5  501    0  0.35787623422E+02 -0.37472972100E+02  0.68327124730E+02  0.85881683740E+02  0.47000000000E+01 0. -1.
        -13    1    6    6    0    0  0.32999809894E+02 -0.25850143596E+02 -0.27381078514E+02  0.50069360267E+02  0.00000000000E+00 0.  1.
         14    1    6    6    0    0  0.12647820426E+03  0.35312785327E+02  0.87238339265E+01  0.13160484125E+03  0.00000000000E+00 0. -1.
         -5    1    3    3    0  503 -0.88323192868E+02  0.28329322010E+02  0.10833333781E+02  0.93503946466E+02  0.47000000000E+01 0.  1.
         13    1    4    4    0    0 -0.28565041453E+01  0.14498977325E+02  0.22499537586E+01  0.14947984858E+02  0.00000000000E+00 0. -1.
        -14    1    4    4    0    0 -0.10408594057E+03 -0.14817968966E+02 -0.16175811303E+03  0.19292263309E+03  0.00000000000E+00 0.  1.
</event>
<event>
12    1  0.8053217E-002  0.1880532E+03  0.7818608E-02  0.1160289E+00
         21   -1    0    0  503  502  0.00000000000E+00  0.00000000000E+00  0.15181455161E+03  0.15181455161E+03  0.00000000000E+00 0.  1.
         21   -1    0    0  501  503 -0.00000000000E+00 -0.00000000000E+00 -0.23820020339E+03  0.23820020339E+03  0.00000000000E+00 0.  1.
          6    2    1    2  501    0 -0.65019518786E+02  0.38206753490E+02 -0.13303455654E+02  0.18825988206E+03  0.17198112520E+03 0.  0.
         24    2    3    3    0    0 -0.56851024863E+02 -0.35659231020E+02  0.22116338738E+02  0.10580043872E+03  0.78746305370E+02 0.  0.
         -6    2    1    2    0  502  0.65019518786E+02 -0.38206753490E+02 -0.73082196125E+02  0.20175487294E+03  0.17226934588E+03 0.  0.
        -24    2    5    5    0    0  0.96656696627E+02 -0.47847839785E+02 -0.93258597709E+02  0.16272874390E+03  0.78431787375E+02 0.  0.
          5    1    3    3  501    0 -0.81684939231E+01  0.73865984510E+02 -0.35419794392E+02  0.82459443337E+02  0.47000000000E+01 0. -1.
        -13    1    4    4    0    0 -0.74430592185E+00  0.20397667146E+02  0.16578400421E+02  0.26295668404E+02  0.00000000000E+00 0.  1.
         14    1    4    4    0    0 -0.56106718941E+02 -0.56056898166E+02  0.55379383171E+01  0.79504770317E+02  0.00000000000E+00 0. -1.
         -5    1    5    5    0  502 -0.31637177840E+02  0.96410862954E+01  0.20176401584E+02  0.39026129036E+02  0.47000000000E+01 0.  1.
         13    1    6    6    0    0  0.49637866914E+02 -0.11363110513E+02  0.13709064590E+01  0.50940332712E+02  0.00000000000E+00 0. -1.
        -14    1    6    6    0    0  0.47018829712E+02 -0.36484729272E+02 -0.94629504168E+02  0.11178841119E+03  0.00000000000E+00 0.  1.
</event>
<event>
12    1  0.8053217E-002  0.1827458E+03  0.7818608E-02  0.1165245E+00
         21   -1    0    0  503  502  0.00000000000E+00  0.00000000000E+00  0.37749114141E+03  0.37749114141E+03  0.00000000000E+00 0. -1.
         21   -1    0    0  501  503 -0.00000000000E+00 -0.00000000000E+00 -0.34986644870E+03  0.34986644870E+03  0.00000000000E+00 0. -1.
          6    2    1    2  501    0  0.54550331195E+01  0.60696253632E+02 -0.30063366156E+03  0.35165883081E+03  0.17195796647E+03 0.  0.
         24    2    3    3    0    0  0.55460977607E+02  0.14196300275E+02 -0.10040584437E+03  0.14005517081E+03  0.79099066426E+02 0.  0.
         -6    2    1    2    0  502 -0.54550331195E+01 -0.60696253632E+02  0.32825835428E+03  0.37569875930E+03  0.17228528084E+03 0.  0.
        -24    2    5    5    0    0  0.98587892363E+00  0.76602906284E+01  0.28109826699E+03  0.29227054870E+03  0.79662952004E+02 0.  0.
          5    1    3    3  501    0 -0.50005944487E+02  0.46499953357E+02 -0.20022781720E+03  0.21160366000E+03  0.47000000000E+01 0. -1.
        -13    1    4    4    0    0  0.21714346961E+02  0.22302357353E+02  0.27198841324E+01  0.31245892164E+02  0.00000000000E+00 0.  1.
         14    1    4    4    0    0  0.33746630646E+02 -0.81060570787E+01 -0.10312572850E+03  0.10880927865E+03  0.00000000000E+00 0. -1.
         -5    1    5    5    0  502 -0.64409120432E+01 -0.68356544260E+02  0.47160087285E+02  0.83428210600E+02  0.47000000000E+01 0.  1.
         11    1    6    6    0    0 -0.84994600439E+00 -0.35847703024E+02  0.14539707503E+03  0.14975342951E+03  0.00000000000E+00 0. -1.
        -12    1    6    6    0    0  0.18358249280E+01  0.43507993652E+02  0.13570119196E+03  0.14251711919E+03  0.00000000000E+00 0.  1.
</event>
<event>
12    1  0.8053217E-002  0.2450607E+03  0.7818608E-02  0.1117150E+00
         21   -1    0    0  501  502  0.00000000000E+00  0.00000000000E+00  0.24286245449E+04  0.24286245449E+04  0.00000000000E+00 0. -1.
         21   -1    0    0  502  503 -0.00000000000E+00 -0.00000000000E+00 -0.24308445278E+02  0.24308445278E+02  0.00000000000E+00 0.  1.
         -6    2    1    2    0  503 -0.49067889464E+02  0.15885324884E+03  0.12143639690E+04  0.12388440639E+04  0.18003542138E+03 0.  0.
        -24    2    3    3    0    0 -0.76432512698E+02  0.12984431150E+03  0.11530719377E+04  0.11655696198E+04  0.79222288077E+02 0.  0.
          6    2    1    2  501    0  0.49067889464E+02 -0.15885324884E+03  0.11899521306E+04  0.12140889263E+04  0.17430959627E+03 0.  0.
         24    2    5    5    0    0 -0.14907497628E+02 -0.13465895486E+03  0.60508235192E+03  0.62521460860E+03  0.80083622471E+02 0.  0.
          5    1    5    5  501    0  0.63975387093E+02 -0.24194293986E+02  0.58486977868E+03  0.58887431768E+03  0.47000000000E+01 0. -1.
        -11    1    6    6    0    0  0.22735098643E+01  0.10361201901E+02  0.58835322441E+02  0.59783931944E+02  0.00000000000E+00 0.  1.
         12    1    6    6    0    0 -0.17181007493E+02 -0.14502015676E+03  0.54624702948E+03  0.56543067665E+03  0.00000000000E+00 0. -1.
         -5    1    3    3    0  503  0.27364623233E+02  0.29008937343E+02  0.61292031337E+02  0.73274444084E+02  0.47000000000E+01 0.  1.
         11    1    4    4    0    0 -0.36210483456E+02  0.20469215460E+02  0.53448937488E+03  0.53610547447E+03  0.00000000000E+00 0. -1.
        -12    1    4    4    0    0 -0.40222029241E+02  0.10937509604E+03  0.61858256282E+03  0.62946414536E+03  0.00000000000E+00 0.  1.
</event>
<event>
12    1  0.8053217E-002  0.1732074E+03  0.7818608E-02  0.1174993E+00
         21   -1    0    0  503  502  0.00000000000E+00  0.00000000000E+00  0.44219801621E+03  0.44219801621E+03  0.00000000000E+00 0. -1.
         21   -1    0    0  501  503 -0.00000000000E+00 -0.00000000000E+00 -0.11200395435E+03  0.11200395435E+03  0.00000000000E+00 0. -1.
          6    2    1    2  501    0 -0.10144129797E+02 -0.22780221585E+01 -0.10743997027E+02  0.17178915968E+03  0.17113734004E+03 0.  0.
         24    2    3    3    0    0  0.60113178076E+02  0.48676836104E+01 -0.13829985758E+02  0.10094592608E+03  0.79759155985E+02 0.  0.
         -6    2    1    2    0  502  0.10144129797E+02  0.22780221585E+01  0.34093805889E+03  0.38241281088E+03  0.17289506983E+03 0.  0.
        -24    2    5    5    0    0  0.48327488958E+02  0.54823066898E+02  0.21505835701E+03  0.24068511426E+03  0.79612263211E+02 0.  0.
          5    1    3    3  501    0 -0.70257307873E+02 -0.71457057689E+01  0.30859887315E+01  0.70843233601E+02  0.47000000000E+01 0. -1.
        -13    1    4    4    0    0  0.52834764401E+02  0.30100059716E+01  0.27014251668E+02  0.59416683335E+02  0.00000000000E+00 0.  1.
         14    1    4    4    0    0  0.72784136752E+01  0.18576776388E+01 -0.40844237426E+02  0.41529242743E+02  0.00000000000E+00 0. -1.
         -5    1    5    5    0  502 -0.38183359161E+02 -0.52545044740E+02  0.12587970188E+03  0.14172769662E+03  0.47000000000E+01 0.  1.
         13    1    6    6    0    0 -0.14525787648E+02  0.70443845093E+01  0.99065742967E+02  0.10037252258E+03  0.00000000000E+00 0. -1.
        -14    1    6    6    0    0  0.62853276605E+02  0.47778682389E+02  0.11599261404E+03  0.14031259168E+03  0.00000000000E+00 0.  1.
</event>
<event>
12    1  0.8053217E-002  0.1825028E+03  0.7818608E-02  0.1165453E+00
         21   -1    0    0  501  502  0.00000000000E+00  0.00000000000E+00  0.52433057261E+03  0.52433057261E+03  0.00000000000E+00 0. -1.
         21   -1    0    0  502  503 -0.00000000000E+00 -0.00000000000E+00 -0.12713423727E+03  0.12713423727E+03  0.00000000000E+00 0. -1.
         -6    2    1    2    0  503 -0.58508198609E+02 -0.50626782788E+01 -0.31884323763E+02  0.18526710361E+03  0.17279597669E+03 0.  0.
        -24    2    3    3    0    0  0.19203010552E+02 -0.13560461641E+02  0.32804993448E+01  0.99418986937E+02  0.96543935871E+02 0.  0.
          6    2    1    2  501    0  0.58508198609E+02  0.50626782788E+01  0.42908065910E+03  0.46619770628E+03  0.17257244655E+03 0.  0.
         24    2    5    5    0    0 -0.85736336306E+01  0.10725351951E+02  0.36286649794E+03  0.37165436580E+03  0.79160166279E+02 0.  0.
          5    1    5    5  501    0  0.67081832240E+02 -0.56626736721E+01  0.66214161159E+02  0.94543340473E+02  0.47000000000E+01 0. -1.
        -13    1    6    6    0    0  0.63090831302E+00 -0.50813054904E+01 -0.25915890176E+01  0.57388190791E+01  0.00000000000E+00 0.  1.
         14    1    6    6    0    0 -0.92045419436E+01  0.15806657441E+02  0.36545808696E+03  0.36591554672E+03  0.00000000000E+00 0. -1.
         -5    1    3    3    0  503 -0.77711209161E+02  0.84977833624E+01 -0.35164823107E+02  0.85848116668E+02  0.47000000000E+01 0.  1.
         11    1    4    4    0    0  0.21988355326E+02  0.76237208870E+01 -0.42748374274E+02  0.48672706861E+02  0.00000000000E+00 0. -1.
        -12    1    4    4    0    0 -0.27853447746E+01 -0.21184182528E+02  0.46028873619E+02  0.50746280076E+02  0.00000000000E+00 0.  1.
</event>
<event>
12    1  0.8053217E-002  0.2138880E+03  0.7818608E-02  0.1138844E+00
         21   -1    0    0  503  502  0.00000000000E+00  0.00000000000E+00  0.27008835675E+03  0.27008835675E+03  0.00000000000E+00 0.  1.
         21   -1    0    0  501  503 -0.00000000000E+00 -0.00000000000E+00 -0.42573815158E+03  0.42573815158E+03  0.00000000000E+00 0.  1.
          6    2    1    2  501    0  0.40535820810E+02 -0.11859112834E+03 -0.34860383250E+03  0.40898988801E+03  0.17332365092E+03 0.  0.
         24    2    3    3    0    0  0.28123366666E+02  0.60211681856E+01 -0.16555889381E+03  0.18715699360E+03  0.82406399705E+02 0.  0.
         -6    2    1    2    0  502 -0.40535820810E+02  0.11859112834E+03  0.19295403767E+03  0.28683662032E+03  0.17128040639E+03 0.  0.
        -24    2    5    5    0    0  0.13884486413E+02  0.43579845104E+02  0.16607944661E+03  0.19023125765E+03  0.80706672211E+02 0.  0.
          5    1    3    3  501    0  0.12412454144E+02 -0.12461229653E+03 -0.18304493869E+03  0.22183289441E+03  0.47000000000E+01 0. -1.
        -11    1    4    4    0    0 -0.86361454894E+01 -0.31039202696E+02 -0.41307568318E+02  0.52386356175E+02  0.00000000000E+00 0.  1.
         12    1    4    4    0    0  0.36759512155E+02  0.37060370881E+02 -0.12425132549E+03  0.13477063742E+03  0.00000000000E+00 0. -1.
         -5    1    5    5    0  502 -0.54420307223E+02  0.75011283239E+02  0.26874591062E+02  0.96605362668E+02  0.47000000000E+01 0.  1.
         11    1    6    6    0    0  0.25205088616E+02 -0.17473070315E+02  0.54165139718E+02  0.62245216997E+02  0.00000000000E+00 0. -1.
        -12    1    6    6    0    0 -0.11320602203E+02  0.61052915419E+02  0.11191430689E+03  0.12798604065E+03  0.00000000000E+00 0.  1.
</event>
<event>
12    1  0.8053217E-002  0.2187721E+03  0.7818608E-02  0.1134962E+00
         21   -1    0    0  501  502  0.00000000000E+00  0.00000000000E+00  0.11371354236E+03  0.11371354236E+03  0.00000000000E+00 0.  1.
         21   -1    0    0  502  503 -0.00000000000E+00 -0.00000000000E+00 -0.78017006604E+03  0.78017006604E+03  0.00000000000E+00 0.  1.
         -6    2    1    2    0  503 -0.21355856708E+02 -0.13390121147E+03 -0.29588943781E+02  0.22076402933E+03  0.17168472268E+03 0.  0.
        -24    2    3    3    0    0  0.17485528478E+02 -0.78003847038E+01 -0.32823791039E+02  0.88693495329E+02  0.80140783299E+02 0.  0.
          6    2    1    2  501    0  0.21355856708E+02  0.13390121147E+03 -0.63686757990E+03  0.67311957907E+03  0.17059908074E+03 0.  0.
         24    2    5    5    0    0 -0.89004862226E+01  0.15930936274E+03 -0.51181193332E+03  0.54188686523E+03  0.78938127136E+02 0.  0.
          5    1    5    5  501    0  0.30256342931E+02 -0.25408151266E+02 -0.12505564658E+03  0.13123271383E+03  0.47000000000E+01 0. -1.
        -13    1    6    6    0    0  0.11136083308E+02  0.20024874484E+02 -0.18023585889E+03  0.18168646834E+03  0.00000000000E+00 0.  1.
         14    1    6    6    0    0 -0.20036569530E+02  0.13928448825E+03 -0.33157607443E+03  0.36020039689E+03  0.00000000000E+00 0. -1.
         -5    1    3    3    0  503 -0.38841385186E+02 -0.12610082677E+03  0.32348472583E+01  0.13207053400E+03  0.47000000000E+01 0.  1.
         13    1    4    4    0    0  0.26794737525E+02  0.61642978755E+01  0.19523700258E+02  0.33721378963E+02  0.00000000000E+00 0. -1.
        -14    1    4    4    0    0 -0.93092090477E+01 -0.13964682579E+02 -0.52347491297E+02  0.54972116366E+02  0.00000000000E+00 0.  1.
</event>
<event>
12    1  0.8053217E-002  0.1978400E+03  0.7818608E-02  0.1154245E+00
         21   -1    0    0  503  502  0.00000000000E+00  0.00000000000E+00  0.15860203357E+04  0.15860203357E+04  0.00000000000E+00 0. -1.
         21   -1    0    0  501  503 -0.00000000000E+00 -0.00000000000E+00 -0.75984158627E+02  0.75984158627E+02  0.00000000000E+00 0. -1.
          6    2    1    2  501    0  0.91375244240E+02 -0.38379424249E+02  0.55225442248E+02  0.19380324106E+03  0.15712234503E+03 0.  0.
         24    2    3    3    0    0 -0.20375370058E+01 -0.25976938031E+02  0.51220332253E+02  0.99368606151E+02  0.81065680690E+02 0.  0.
         -6    2    1    2    0  502 -0.91375244240E+02  0.38379424249E+02  0.14548107348E+04  0.14682012533E+04  0.17122567116E+03 0.  0.
        -24    2    5    5    0    0 -0.92930751618E+02  0.48635565992E+02  0.14492747966E+04  0.14555385261E+04  0.84814044517E+02 0.  0.
          5    1    3    3  501    0  0.93412781246E+02 -0.12402486218E+02  0.40051099953E+01  0.94434634910E+02  0.47000000000E+01 0. -1.
        -13    1    4    4    0    0  0.46604840582E+01 -0.54116581246E+02  0.43058115874E+02  0.69313244189E+02  0.00000000000E+00 0.  1.
         14    1    4    4    0    0 -0.66980210641E+01  0.28139643215E+02  0.81622163784E+01  0.30055361961E+02  0.00000000000E+00 0. -1.
         -5    1    5    5    0  502  0.15555073782E+01 -0.10256141743E+02  0.55359382585E+01  0.12662727157E+02  0.47000000000E+01 0.  1.
         11    1    6    6    0    0 -0.71795408361E+02 -0.10029178390E+02  0.76133309699E+03  0.76477660114E+03  0.00000000000E+00 0. -1.
        -12    1    6    6    0    0 -0.21135343257E+02  0.58664744382E+02  0.68794169957E+03  0.69076192496E+03  0.00000000000E+00 0.  1.
</event>
<event>
12    1  0.8053217E-002  0.1954118E+03  0.7818608E-02  0.1153911E+00
         21   -1    0    0  503  502  0.00000000000E+00  0.00000000000E+00  0.65426422184E+03  0.65426422184E+03  0.00000000000E+00 0. -1.
         21   -1    0    0  501  503 -0.00000000000E+00 -0.00000000000E+00 -0.50653033206E+03  0.50653033206E+03  0.00000000000E+00 0. -1.
          6    2    1    2  501    0 -0.76231230258E+00  0.93196302015E+02 -0.47229533079E+03  0.51070070847E+03  0.17048812957E+03 0.  0.
         24    2    3    3    0    0 -0.15143200157E+01  0.63921745046E+02 -0.12236821441E+03  0.15951892936E+03  0.79900101837E+02 0.  0.
         -6    2    1    2    0  502  0.76231230258E+00 -0.93196302015E+02  0.62002922056E+03  0.65009384542E+03  0.17175459725E+03 0.  0.
        -24    2    5    5    0    0 -0.37316341036E+02 -0.11693307542E+03  0.48840752887E+03  0.51095442622E+03  0.86409825732E+02 0.  0.
          5    1    3    3  501    0  0.75200771313E+00  0.29274556968E+02 -0.34992711638E+03  0.35118177911E+03  0.47000000000E+01 0. -1.
        -13    1    4    4    0    0  0.36908012830E+02  0.48428671936E+02 -0.71417540057E+02  0.93850960061E+02  0.00000000000E+00 0.  1.
         14    1    4    4    0    0 -0.38422332846E+02  0.15493073111E+02 -0.50950674349E+02  0.65667969303E+02  0.00000000000E+00 0. -1.
         -5    1    5    5    0  502  0.38078653339E+02  0.23736773404E+02  0.13162169170E+03  0.13913941920E+03  0.47000000000E+01 0.  1.
         11    1    6    6    0    0 -0.18016830081E+01 -0.13386161986E+02  0.22896559372E+03  0.22936363814E+03  0.00000000000E+00 0. -1.
        -12    1    6    6    0    0 -0.35514658028E+02 -0.10354691343E+03  0.25944193515E+03  0.28159078808E+03  0.00000000000E+00 0.  1.
</event>
<event>
12    1  0.8053217E-002  0.2419423E+03  0.7818608E-02  0.1118578E+00
         21   -1    0    0  501  502  0.00000000000E+00  0.00000000000E+00  0.55565979897E+03  0.55565979897E+03  0.00000000000E+00 0. -1.
         21   -1    0    0  502  503 -0.00000000000E+00 -0.00000000000E+00 -0.27343377976E+03  0.27343377976E+03  0.00000000000E+00 0.  1.
         -6    2    1    2    0  503 -0.16514920154E+03  0.37749240751E+02 -0.18414608044E+03  0.30369940838E+03  0.17211707576E+03 0.  0.
        -24    2    3    3    0    0 -0.85809467027E+02 -0.44499669187E+02 -0.76761812382E+02  0.14681362928E+03  0.79488242614E+02 0.  0.
          6    2    1    2  501    0  0.16514920154E+03 -0.37749240751E+02  0.46637209964E+03  0.52539417034E+03  0.17273342165E+03 0.  0.
         24    2    5    5    0    0  0.62641622842E+02  0.42059302510E+02  0.25305734755E+03  0.27558928502E+03  0.78857308037E+02 0.  0.
          5    1    5    5  501    0  0.10250757870E+03 -0.79808543261E+02  0.21331475210E+03  0.24980488532E+03  0.47000000000E+01 0. -1.
        -13    1    6    6    0    0  0.19956703455E+02 -0.90779508440E+01  0.10990692674E+02  0.24524977671E+02  0.00000000000E+00 0.  1.
         14    1    6    6    0    0  0.42684919387E+02  0.51137253354E+02  0.24206665487E+03  0.25106430735E+03  0.00000000000E+00 0. -1.
         -5    1    3    3    0  503 -0.79339734511E+02  0.82248909938E+02 -0.10738426806E+03  0.15688577910E+03  0.47000000000E+01 0.  1.
         11    1    4    4    0    0 -0.26632538404E+01 -0.10886350558E+02  0.14854393756E+02  0.18608024166E+02  0.00000000000E+00 0. -1.
        -12    1    4    4    0    0 -0.83146213186E+02 -0.33613318629E+02 -0.91616206138E+02  0.12820560512E+03  0.00000000000E+00 0.  1.
</event>
<event>
12    1  0.8053217E-002  0.2598448E+03  0.7818608E-02  0.1108828E+00
         21   -1    0    0  501  502  0.00000000000E+00  0.00000000000E+00  0.57798467556E+03  0.57798467556E+03  0.00000000000E+00 0. -1.
         21   -1    0    0  502  503 -0.00000000000E+00 -0.00000000000E+00 -0.11481265202E+03  0.11481265202E+03  0.00000000000E+00 0. -1.
         -6    2    1    2    0  503  0.15074762943E+03  0.92893844106E+02  0.18400992520E+03  0.31840061287E+03  0.19017145857E+03 0.  0.
        -24    2    3    3    0    0  0.13881422499E+02 -0.10867633736E+02  0.93609273485E+02  0.12425332158E+03  0.79783409859E+02 0.  0.
          6    2    1    2  501    0 -0.15074762943E+03 -0.92893844106E+02  0.27916209834E+03  0.37439671472E+03  0.17574785573E+03 0.  0.
         24    2    5    5    0    0 -0.15460533861E+03 -0.12765828504E+03  0.25222296013E+03  0.32999789220E+03  0.71293329103E+02 0.  0.
          5    1    5    5  501    0  0.38577091825E+01  0.34764440934E+02  0.26939138219E+02  0.44398822525E+02  0.47000000000E+01 0. -1.
        -11    1    6    6    0    0 -0.86109602811E+02 -0.75527425577E+02  0.19653998754E+03  0.22748015828E+03  0.00000000000E+00 0.  1.
         12    1    6    6    0    0 -0.68495735797E+02 -0.52130859462E+02  0.55682972584E+02  0.10251773391E+03  0.00000000000E+00 0. -1.
         -5    1    3    3    0  503  0.13686620693E+03  0.10376147784E+03  0.90400651710E+02  0.19414729128E+03  0.47000000000E+01 0.  1.
         13    1    4    4    0    0  0.46686879958E+02 -0.11588836799E+02  0.63949353749E+02  0.80021782931E+02  0.00000000000E+00 0. -1.
        -14    1    4    4    0    0 -0.32805457459E+02  0.72120306299E+00  0.29659919737E+02  0.44231538654E+02  0.00000000000E+00 0.  1.
</event>
<event>
12    1  0.8053217E-002  0.2266897E+03  0.7818608E-02  0.1130589E+00
         21   -1    0    0  501  502  0.00000000000E+00  0.00000000000E+00  0.18887445100E+03  0.18887445100E+03  0.00000000000E+00 0. -1.
         21   -1    0    0  502  503 -0.00000000000E+00 -0.00000000000E+00 -0.32173246468E+03  0.32173246468E+03  0.00000000000E+00 0. -1.
         -6    2    1    2    0  503 -0.92729931851E+02 -0.97966979495E+02 -0.17562876618E+03  0.27991761438E+03  0.17120758744E+03 0.  0.
        -24    2    3    3    0    0 -0.13277458714E+03 -0.68731147947E+02 -0.15443018873E+03  0.22579019111E+03  0.69133678648E+02 0.  0.
          6    2    1    2  501    0  0.92729931851E+02  0.97966979495E+02  0.42770752500E+02  0.23068930129E+03  0.18218629786E+03 0.  0.
         24    2    5    5    0    0 -0.20586091878E+02  0.47452494170E+02  0.46947691435E+02  0.10646462065E+03  0.80343657732E+02 0.  0.
          5    1    5    5  501    0  0.11331602373E+03  0.50514485325E+02 -0.41769389344E+01  0.12422468064E+03  0.47000000000E+01 0. -1.
        -11    1    6    6    0    0  0.42574835589E+01  0.89124653044E+01 -0.21739724709E+02  0.23878313058E+02  0.00000000000E+00 0.  1.
         12    1    6    6    0    0 -0.24843575437E+02  0.38540028866E+02  0.68687416144E+02  0.82586307594E+02  0.00000000000E+00 0. -1.
         -5    1    3    3    0  503  0.40044655291E+02 -0.29235831547E+02 -0.21198577457E+02  0.54127423270E+02  0.47000000000E+01 0.  1.
         11    1    4    4    0    0 -0.85533301858E+02 -0.21044473302E+02 -0.48974406120E+02  0.10078347106E+03  0.00000000000E+00 0. -1.
        -12    1    4    4    0    0 -0.47241285284E+02 -0.47686674645E+02 -0.10545578261E+03  0.12500672006E+03  0.00000000000E+00 0.  1.
</event>
<event>
12    1  0.8053217E-002  0.1997756E+03  0.7818608E-02  0.1150072E+00
         21   -1    0    0  501  502  0.00000000000E+00  0.00000000000E+00  0.41886536973E+03  0.41886536973E+03  0.00000000000E+00 0. -1.
         21   -1    0    0  502  503 -0.00000000000E+00 -0.00000000000E+00 -0.18441892311E+03  0.18441892311E+03  0.00000000000E+00 0. -1.
         -6    2    1    2    0  503 -0.98003509100E+02 -0.30568168899E+02 -0.92762754534E+02  0.22026166734E+03  0.17138019934E+03 0.  0.
        -24    2    3    3    0    0 -0.12944668071E+03 -0.52559159517E+02 -0.85303335963E+02  0.18089150561E+03  0.76981616502E+02 0.  0.
          6    2    1    2  501    0  0.98003509100E+02  0.30568168899E+02  0.32720920115E+03  0.38302262550E+03  0.17059123536E+03 0.  0.
         24    2    5    5    0    0  0.75905868743E+02  0.78506126955E+02  0.18413377216E+03  0.23044798176E+03  0.85300136970E+02 0.  0.
          5    1    5    5  501    0  0.22097640356E+02 -0.47937958056E+02  0.14307542899E+03  0.15257464374E+03  0.47000000000E+01 0. -1.
        -13    1    6    6    0    0 -0.71987077657E+01 -0.93629436013E+01  0.42950032147E+02  0.44544263018E+02  0.00000000000E+00 0.  1.
         14    1    6    6    0    0  0.83104576509E+02  0.87869070556E+02  0.14118374001E+03  0.18590371874E+03  0.00000000000E+00 0. -1.
         -5    1    3    3    0  503  0.31443171611E+02  0.21990990618E+02 -0.74594185712E+01  0.39370161731E+02  0.47000000000E+01 0.  1.
         13    1    4    4    0    0 -0.63500209639E+02 -0.65331304446E+02 -0.60113858683E+02  0.10915187571E+03  0.00000000000E+00 0. -1.
        -14    1    4    4    0    0 -0.65946471071E+02  0.12772144929E+02 -0.25189477280E+02  0.71739629902E+02  0.00000000000E+00 0.  1.
</event>
<event>
12    1  0.8053217E-002  0.1961701E+03  0.7818608E-02  0.1154267E+00
         21   -1    0    0  503  502  0.00000000000E+00  0.00000000000E+00  0.38921398124E+02  0.38921398124E+02  0.00000000000E+00 0.  1.
         21   -1    0    0  501  503 -0.00000000000E+00 -0.00000000000E+00 -0.97782744156E+03  0.97782744156E+03  0.00000000000E+00 0.  1.
          6    2    1    2  501    0  0.15186109910E+02 -0.82057902028E+02 -0.54463227873E+03  0.57888429626E+03  0.17753476334E+03 0.  0.
         24    2    3    3    0    0 -0.60999174996E+00  0.17291621759E+01 -0.11555726345E+03  0.14139458472E+03  0.81459102387E+02 0.  0.
         -6    2    1    2    0  502 -0.15186109910E+02  0.82057902028E+02 -0.39427376470E+03  0.43786454342E+03  0.17119999894E+03 0.  0.
        -24    2    5    5    0    0 -0.74687791224E+02  0.43684428323E+02 -0.20061415550E+03  0.23161443361E+03  0.76893504492E+02 0.  0.
          5    1    3    3  501    0  0.15796101660E+02 -0.83787064204E+02 -0.42907501529E+03  0.43748971154E+03  0.47000000000E+01 0. -1.
        -13    1    4    4    0    0  0.20919959917E+02 -0.20346054239E+02 -0.10471940679E+03  0.10870952490E+03  0.00000000000E+00 0.  1.
         14    1    4    4    0    0 -0.21529951667E+02  0.22075216415E+02 -0.10837856657E+02  0.32685059820E+02  0.00000000000E+00 0. -1.
         -5    1    5    5    0  502  0.59501681314E+02  0.38373473706E+02 -0.19365960920E+03  0.20625010981E+03  0.47000000000E+01 0.  1.
         13    1    6    6    0    0 -0.32912261252E+02 -0.14226403540E+02 -0.11319793309E+03  0.11874080829E+03  0.00000000000E+00 0. -1.
        -14    1    6    6    0    0 -0.41775529971E+02  0.57910831862E+02 -0.87416222416E+02  0.11287362532E+03  0.00000000000E+00 0.  1.
</event>
<event>
12    1  0.8053217E-002  0.1985827E+03  0.7818608E-02  0.1151013E+00
         21   -1    0    0  501  502  0.00000000000E+00  0.00000000000E+00  0.33830981252E+02  0.33830981252E+02  0.00000000000E+00 0. -1.
         21   -1    0    0  502  503 -0.00000000000E+00 -0.00000000000E+00 -0.12243503573E+04  0.12243503573E+04  0.00000000000E+00 0. -1.
         -6    2    1    2    0  503  0.75517280312E+02 -0.62984991928E+02 -0.45566888393E+03  0.49706057025E+03  0.17252567892E+03 0.  0.
        -24    2    3    3    0    0  0.41770831928E+02 -0.36094649386E+02 -0.44001544872E+03  0.45091912105E+03  0.81650673633E+02 0.  0.
          6    2    1    2  501    0 -0.75517280312E+02  0.62984991928E+02 -0.73485049216E+03  0.76112076833E+03  0.17213253420E+03 0.  0.
         24    2    5    5    0    0 -0.10433505495E+03  0.51016220359E+02 -0.38151813545E+03  0.40638204769E+03  0.78114163736E+02 0.  0.
          5    1    5    5  501    0  0.28817774636E+02  0.11968771569E+02 -0.35333235670E+03  0.35473872064E+03  0.47000000000E+01 0. -1.
        -13    1    6    6    0    0 -0.33401169497E+02 -0.20382248052E+02 -0.11658132277E+03  0.12297267574E+03  0.00000000000E+00 0.  1.
         14    1    6    6    0    0 -0.70933885451E+02  0.71398468411E+02 -0.26493681268E+03  0.28340937195E+03  0.00000000000E+00 0. -1.
         -5    1    3    3    0  503  0.33746448384E+02 -0.26890342542E+02 -0.15653435206E+02  0.46141449200E+02  0.47000000000E+01 0.  1.
         11    1    4    4    0    0  0.50423474644E+02 -0.47740243187E+02 -0.22634441421E+03  0.23675610121E+03  0.00000000000E+00 0. -1.
        -12    1    4    4    0    0 -0.86526427164E+01  0.11645593801E+02 -0.21367103451E+03  0.21416301984E+03  0.00000000000E+00 0.  1.
</event>
<event>
12    1  0.8053217E-002  0.1780973E+03  0.7818608E-02  0.1169692E+00
         21   -1    0    0  501  502  0.00000000000E+00  0.00000000000E+00  0.97618755624E+02  0.97618755624E+02  0.00000000000E+00 0.  1.
         21   -1    0    0  502  503 -0.00000000000E+00 -0.00000000000E+00 -0.60254736656E+03  0.60254736656E+03  0.00000000000E+00 0. -1.
         -6    2    1    2    0  503 -0.10966736848E+02  0.45859640726E+02 -0.49015168161E+03  0.52145688497E+03  0.17159614194E+03 0.  0.
        -24    2    3    3    0    0  0.53539442478E+02  0.56138074731E+02 -0.33494118064E+03  0.35299596075E+03  0.80016238858E+02 0.  0.
          6    2    1    2  501    0  0.10966736848E+02 -0.45859640726E+02 -0.14776929321E+02  0.17870923721E+03  0.17174183492E+03 0.  0.
         24    2    5    5    0    0  0.10828185631E+02 -0.43937007133E+02  0.55082083356E+02  0.10866576950E+03  0.82015262941E+02 0.  0.
          5    1    5    5  501    0  0.13855121708E+00 -0.19226335933E+01 -0.69859012677E+02  0.70043467709E+02  0.47000000000E+01 0. -1.
        -13    1    6    6    0    0 -0.24804621741E+02  0.59356355293E+01 -0.10864383078E+01  0.25528050789E+02  0.00000000000E+00 0.  1.
         14    1    6    6    0    0  0.35632807373E+02 -0.49872642662E+02  0.56168521664E+02  0.83137718716E+02  0.00000000000E+00 0. -1.
         -5    1    3    3    0  503 -0.64506179326E+02 -0.10278434005E+02 -0.15521050097E+03  0.16846092422E+03  0.47000000000E+01 0.  1.
         13    1    4    4    0    0 -0.60888358466E+01  0.10596876111E+02 -0.18428906577E+03  0.18469387502E+03  0.00000000000E+00 0. -1.
        -14    1    4    4    0    0  0.59628278324E+02  0.45541198621E+02 -0.15065211486E+03  0.16830208573E+03  0.00000000000E+00 0.  1.
</event>
<event>
12    1  0.8053217E-002  0.1729507E+03  0.7818608E-02  0.1175255E+00
         21   -1    0    0  503  502  0.00000000000E+00  0.00000000000E+00  0.66390129443E+03  0.66390129443E+03  0.00000000000E+00 0.  1.
         21   -1    0    0  501  503 -0.00000000000E+00 -0.00000000000E+00 -0.11165877449E+03  0.11165877449E+03  0.00000000000E+00 0.  1.
          6    2    1    2  501    0 -0.87317334560E+01  0.95876503749E+01 -0.23832998282E+02  0.17458513446E+03  0.17246388364E+03 0.  0.
         24    2    3    3    0    0  0.16117468908E+02  0.61061793539E+02  0.18888596532E+02  0.10307083564E+03  0.79237003012E+02 0.  0.
         -6    2    1    2    0  502  0.87317334560E+01 -0.95876503749E+01  0.57607551823E+03  0.60097493446E+03  0.17070355280E+03 0.  0.
        -24    2    5    5    0    0 -0.10582195595E+02 -0.69106176709E+02  0.40621254830E+03  0.41989207667E+03  0.80081677868E+02 0.  0.
          5    1    3    3  501    0 -0.24849202364E+02 -0.51474143164E+02 -0.42721594814E+02  0.71514298822E+02  0.47000000000E+01 0. -1.
        -13    1    4    4    0    0 -0.10654923117E+02  0.69022058925E+02  0.89396047155E+00  0.69845337498E+02  0.00000000000E+00 0.  1.
         14    1    4    4    0    0  0.26772392025E+02 -0.79602653868E+01  0.17994636060E+02  0.33225498141E+02  0.00000000000E+00 0. -1.
         -5    1    5    5    0  502  0.19313929051E+02  0.59518526335E+02  0.16986296992E+03  0.18108285779E+03  0.47000000000E+01 0.  1.
         11    1    6    6    0    0  0.38411319938E+01 -0.47517146887E+02  0.83605771320E+02  0.96242186910E+02  0.00000000000E+00 0. -1.
        -12    1    6    6    0    0 -0.14423327589E+02 -0.21589029823E+02  0.32260677698E+03  0.32364988976E+03  0.00000000000E+00 0.  1.
</event>
<event>
12    1  0.8053217E-002  0.2687162E+03  0.7818608E-02  0.1102515E+00
         21   -1    0    0  503  502  0.00000000000E+00  0.00000000000E+00  0.12768249111E+04  0.12768249111E+04  0.00000000000E+00 0. -1.
         21   -1    0    0  501  503 -0.00000000000E+00 -0.00000000000E+00 -0.10837709136E+03  0.10837709136E+03  0.00000000000E+00 0.  1.
          6    2    1    2  501    0 -0.15338944697E+03 -0.13305632253E+03  0.10003496629E+03  0.28351492718E+03  0.17070855880E+03 0.  0.
         24    2    3    3    0    0 -0.46590286187E+02 -0.13034730929E+03  0.45031672532E+02  0.16326164523E+03  0.73928597080E+02 0.  0.
         -6    2    1    2    0  502  0.15338944697E+03  0.13305632253E+03  0.10684128534E+04  0.11016870752E+04  0.17600022452E+03 0.  0.
        -24    2    5    5    0    0  0.12414765094E+03  0.27913878627E+02  0.46687027046E+03  0.49030700913E+03  0.79001834842E+02 0.  0.
          5    1    3    3  501    0 -0.10679916078E+03 -0.27090132460E+01  0.55003293759E+02  0.12025328195E+03  0.47000000000E+01 0. -1.
        -11    1    4    4    0    0 -0.38308245504E+02 -0.10413987373E+03  0.53828336332E+00  0.11096361892E+03  0.00000000000E+00 0.  1.
         12    1    4    4    0    0 -0.82820406828E+01 -0.26207435557E+02  0.44493389168E+02  0.52298026311E+02  0.00000000000E+00 0. -1.
         -5    1    5    5    0  502  0.29241796023E+02  0.10514244391E+03  0.60154258294E+03  0.61138006610E+03  0.47000000000E+01 0.  1.
         11    1    6    6    0    0  0.71006271832E+02 -0.97001772260E+01  0.34259335558E+03  0.35000884470E+03  0.00000000000E+00 0. -1.
        -12    1    6    6    0    0  0.53141379111E+02  0.37614055853E+02  0.12427691488E+03  0.14029816443E+03  0.00000000000E+00 0.  1.
</event>
<event>
12    1  0.8053217E-002  0.1814762E+03  0.7818608E-02  0.1166440E+00
         21   -1    0    0  501  502  0.00000000000E+00  0.00000000000E+00  0.77360861511E+03  0.77360861511E+03  0.00000000000E+00 0. -1.
         21   -1    0    0  502  503 -0.00000000000E+00 -0.00000000000E+00 -0.54757189036E+02  0.54757189036E+02  0.00000000000E+00 0. -1.
         -6    2    1    2    0  503  0.16996589551E+02  0.56354313295E+02  0.16339135589E+03  0.24401189195E+03  0.17140704638E+03 0.  0.
        -24    2    3    3    0    0 -0.47174487429E+02  0.36765279330E+02  0.48894943999E+02  0.11122192355E+03  0.80015515374E+02 0.  0.
          6    2    1    2  501    0 -0.16996589551E+02 -0.56354313295E+02  0.55546007019E+03  0.58435391220E+03  0.17166511715E+03 0.  0.
         24    2    5    5    0    0  0.22818869038E+02 -0.13816447754E+02  0.48749422807E+03  0.49470913298E+03  0.79843026206E+02 0.  0.
          5    1    5    5  501    0 -0.39815458589E+02 -0.42537865541E+02  0.67965842112E+02  0.89644779220E+02  0.47000000000E+01 0. -1.
        -11    1    6    6    0    0  0.24949916268E+02 -0.35714784537E+02  0.14242832103E+03  0.14894250833E+03  0.00000000000E+00 0.  1.
         12    1    6    6    0    0 -0.21310472304E+01  0.21898336783E+02  0.34506590705E+03  0.34576662465E+03  0.00000000000E+00 0. -1.
         -5    1    3    3    0  503  0.64171076980E+02  0.19589033965E+02  0.11449641189E+03  0.13278996840E+03  0.47000000000E+01 0.  1.
         11    1    4    4    0    0  0.18096563191E+02  0.27120119073E+02  0.24862439214E+02  0.41001552916E+02  0.00000000000E+00 0. -1.
        -12    1    4    4    0    0 -0.65271050620E+02  0.96451602565E+01  0.24032504785E+02  0.70220370631E+02  0.00000000000E+00 0.  1.
</event>
<event>
12    1  0.8053217E-002  0.2921306E+03  0.7818608E-02  0.1089334E+00
         21   -1    0    0  503  502  0.00000000000E+00  0.00000000000E+00  0.11286978653E+04  0.11286978653E+04  0.00000000000E+00 0.  1.
         21   -1    0    0  501  503 -0.00000000000E+00 -0.00000000000E+00 -0.14770611279E+03  0.14770611279E+03  0.00000000000E+00 0.  1.
          6    2    1    2  501    0  0.16115325394E+03 -0.17135878830E+03  0.44356020496E+02  0.29547881002E+03  0.17322258812E+03 0.  0.
         24    2    3    3    0    0  0.12036265682E+03 -0.80482600792E+02 -0.33545163400E+02  0.16893617404E+03  0.80308995282E+02 0.  0.
         -6    2    1    2    0  502 -0.16115325394E+03  0.17135878830E+03  0.93663573206E+03  0.98092516811E+03  0.17202757129E+03 0.  0.
        -24    2    5    5    0    0 -0.67057073759E+02  0.16471863314E+02  0.27678851929E+03  0.29662663322E+03  0.81286540723E+02 0.  0.
          5    1    3    3  501    0  0.40790597113E+02 -0.90876187511E+02  0.77901183896E+02  0.12654263598E+03  0.47000000000E+01 0. -1.
        -13    1    4    4    0    0  0.54828239864E+02 -0.12207244805E+02 -0.47135871456E+02  0.73327642061E+02  0.00000000000E+00 0.  1.
         14    1    4    4    0    0  0.65534416959E+02 -0.68275355987E+02  0.13590708056E+02  0.95608531977E+02  0.00000000000E+00 0. -1.
         -5    1    5    5    0  502 -0.94096180177E+02  0.15488692499E+03  0.65984721277E+03  0.68429853489E+03  0.47000000000E+01 0.  1.
         11    1    6    6    0    0 -0.54113444294E+02  0.12363656900E+02  0.69741465462E+02  0.89134711926E+02  0.00000000000E+00 0. -1.
        -12    1    6    6    0    0 -0.12943629465E+02  0.41082064139E+01  0.20704705383E+03  0.20749192130E+03  0.00000000000E+00 0.  1.
</event>
<event>
12    1  0.8053217E-002  0.4140840E+03  0.7818608E-02  0.1039124E+00
         21   -1    0    0  501  502  0.00000000000E+00  0.00000000000E+00  0.44902096742E+03  0.44902096742E+03  0.00000000000E+00 0.  1.
         21   -1    0    0  502  503 -0.00000000000E+00 -0.00000000000E+00 -0.38296137526E+03  0.38296137526E+03  0.00000000000E+00 0. -1.
         -6    2    1    2    0  503 -0.36794086967E+03 -0.78148195870E+02  0.23663598821E+00  0.41269938832E+03  0.16980313612E+03 0.  0.
        -24    2    3    3    0    0 -0.19978399219E+03 -0.10042380842E+03 -0.33774818986E+02  0.23963348346E+03  0.79277255008E+02 0.  0.
          6    2    1    2  501    0  0.36794086967E+03  0.78148195870E+02  0.65822956181E+02  0.41928295436E+03  0.17314130114E+03 0.  0.
         24    2    5    5    0    0  0.18378443958E+03 -0.25606836957E+02  0.45618939611E+02  0.20689418378E+03  0.79320144356E+02 0.  0.
          5    1    5    5  501    0  0.18415643009E+03  0.10375503283E+03  0.20204016570E+02  0.21238877057E+03  0.47000000000E+01 0. -1.
        -13    1    6    6    0    0  0.14399484221E+03 -0.18981550408E+02 -0.10033538301E+01  0.14524400352E+03  0.00000000000E+00 0.  1.
         14    1    6    6    0    0  0.39789597367E+02 -0.66252865488E+01  0.46622293441E+02  0.61650180261E+02  0.00000000000E+00 0. -1.
         -5    1    3    3    0  503 -0.16815687748E+03  0.22275612555E+02  0.34011454974E+02  0.17306590487E+03  0.47000000000E+01 0.  1.
         11    1    4    4    0    0 -0.10012174927E+03 -0.67777938963E+02 -0.54682876888E+02  0.13269676225E+03  0.00000000000E+00 0. -1.
        -12    1    4    4    0    0 -0.99662242925E+02 -0.32645869462E+02  0.20908057902E+02  0.10693672121E+03  0.00000000000E+00 0.  1.
</event>
<event>
12    1  0.8053217E-002  0.2165805E+03  0.7818608E-02  0.1136661E+00
         21   -1    0    0  503  502  0.00000000000E+00  0.00000000000E+00  0.19953786419E+03  0.19953786419E+03  0.00000000000E+00 0. -1.
         21   -1    0    0  501  503 -0.00000000000E+00 -0.00000000000E+00 -0.23526545520E+03  0.23526545520E+03  0.00000000000E+00 0.  1.
          6    2    1    2  501    0 -0.57886957815E+01  0.12981578139E+03 -0.14144972992E+01  0.21552155476E+03  0.17193572540E+03 0.  0.
         24    2    3    3    0    0 -0.21253425027E+02 -0.14483320607E+01 -0.10531331242E+02  0.82952206905E+02  0.79475492773E+02 0.  0.
         -6    2    1    2    0  502  0.57886957815E+01 -0.12981578139E+03 -0.34313093718E+02  0.21928176463E+03  0.17326701303E+03 0.  0.
        -24    2    5    5    0    0 -0.15643154573E+02 -0.11894532676E+03  0.34788335597E+02  0.14597017942E+03  0.75527252970E+02 0.  0.
          5    1    3    3  501    0  0.15464729245E+02  0.13126411345E+03  0.91168339427E+01  0.13256934786E+03  0.47000000000E+01 0. -1.
        -11    1    4    4    0    0  0.15370711957E+02 -0.21194514620E+02 -0.27542663384E+02  0.38000849232E+02  0.00000000000E+00 0.  1.
         12    1    4    4    0    0 -0.36624136983E+02  0.19746182560E+02  0.17011332142E+02  0.44951357674E+02  0.00000000000E+00 0. -1.
         -5    1    5    5    0  502  0.21431850354E+02 -0.10870454623E+02 -0.69101429314E+02  0.73311585214E+02  0.47000000000E+01 0.  1.
         13    1    6    6    0    0  0.20250110298E+02 -0.83566695686E+02  0.23155556008E+01  0.86016401881E+02  0.00000000000E+00 0. -1.
        -14    1    6    6    0    0 -0.35893264870E+02 -0.35378631078E+02  0.32472779996E+02  0.59953777535E+02  0.00000000000E+00 0.  1.
</event>
<event>
12    1  0.8053217E-002  0.1756394E+03  0.7818608E-02  0.1172144E+00
         21   -1    0    0  501  502  0.00000000000E+00  0.00000000000E+00  0.84556767954E+02  0.84556767954E+02  0.00000000000E+00 0.  1.
         21   -1    0    0  502  503 -0.00000000000E+00 -0.00000000000E+00 -0.38899979777E+03  0.38899979777E+03  0.00000000000E+00 0.  1.
         -6    2    1    2    0  503  0.21529590387E+02  0.32406484335E+02 -0.21185517858E+03  0.27519413012E+03  0.17127606100E+03 0.  0.
        -24    2    3    3    0    0  0.68906701058E+02  0.20330482066E+02 -0.92272489967E+02  0.14591717988E+03  0.87270550756E+02 0.  0.
          6    2    1    2  501    0 -0.21529590387E+02 -0.32406484335E+02 -0.92587851238E+02  0.19836243560E+03  0.17105976199E+03 0.  0.
         24    2    5    5    0    0 -0.50501852669E+02  0.55940123409E+01 -0.11197267604E+03  0.14658125020E+03  0.79790053478E+02 0.  0.
          5    1    5    5  501    0  0.28972262281E+02 -0.38000496675E+02  0.19384824800E+02  0.51781185404E+02  0.47000000000E+01 0. -1.
        -11    1    6    6    0    0 -0.39663721528E+02 -0.21027851743E+02 -0.18096371161E+02  0.48403099111E+02  0.00000000000E+00 0.  1.
         12    1    6    6    0    0 -0.10838131141E+02  0.26621864084E+02 -0.93876304877E+02  0.98178151089E+02  0.00000000000E+00 0. -1.
         -5    1    3    3    0  503 -0.47377110671E+02  0.12076002269E+02 -0.11958268861E+03  0.12927695023E+03  0.47000000000E+01 0.  1.
         11    1    4    4    0    0  0.77798617196E+01  0.12705807204E+02  0.15677761512E+02  0.21627667260E+02  0.00000000000E+00 0. -1.
        -12    1    4    4    0    0  0.61126839338E+02  0.76246748621E+01 -0.10795025148E+03  0.12428951263E+03  0.00000000000E+00 0.  1.
</event>
<event>
12    1  0.8053217E-002  0.2437929E+03  0.7818608E-02  0.1117799E+00
         21   -1    0    0  501  502  0.00000000000E+00  0.00000000000E+00  0.29192567872E+03  0.29192567872E+03  0.00000000000E+00 0.  1.
         21   -1    0    0  502  503 -0.00000000000E+00 -0.00000000000E+00 -0.21344048589E+03  0.21344048589E+03  0.00000000000E+00 0.  1.
         -6    2    1    2    0  503  0.11911444554E+03 -0.11944480100E+03  0.10041647785E+03  0.26366353934E+03  0.17601045802E+03 0.  0.
        -24    2    3    3    0    0  0.39701365488E+02 -0.53775366615E+02  0.12110205903E+03  0.15845472240E+03  0.77292961338E+02 0.  0.
          6    2    1    2  501    0 -0.11911444554E+03  0.11944480100E+03 -0.21931285018E+02  0.24170262527E+03  0.17170866658E+03 0.  0.
         24    2    5    5    0    0 -0.89811429999E+02  0.41907541243E+01 -0.24236925718E+02  0.12266663063E+03  0.79849973843E+02 0.  0.
          5    1    5    5  501    0 -0.29303015536E+02  0.11525404688E+03  0.23056406996E+01  0.11903599464E+03  0.47000000000E+01 0. -1.
        -11    1    6    6    0    0 -0.10077826234E+03  0.40076887578E+01 -0.35521028732E+02  0.10693017914E+03  0.00000000000E+00 0.  1.
         12    1    6    6    0    0  0.10966832341E+02  0.18306536647E+00  0.11284103014E+02  0.15736451485E+02  0.00000000000E+00 0. -1.
         -5    1    3    3    0  503  0.79413080047E+02 -0.65669434384E+02 -0.20685581177E+02  0.10520881695E+03  0.47000000000E+01 0.  1.
         11    1    4    4    0    0  0.35223452032E+02 -0.23703909494E+02  0.12080687902E+03  0.12805025934E+03  0.00000000000E+00 0. -1.
        -12    1    4    4    0    0  0.44779134569E+01 -0.30071457121E+02  0.29518000525E+00  0.30404463053E+02  0.00000000000E+00 0.  1.
</event>
<event>
12    1  0.8053217E-002  0.2132385E+03  0.7818608E-02  0.1139078E+00
         21   -1    0    0  503  502  0.00000000000E+00  0.00000000000E+00  0.48568535401E+02  0.48568535401E+02  0.00000000000E+00 0. -1.
         21   -1    0    0  501  503 -0.00000000000E+00 -0.00000000000E+00 -0.99846346034E+03  0.99846346034E+03  0.00000000000E+00 0. -1.
          6    2    1    2  501    0  0.12091642835E+03 -0.37470419808E+02 -0.60714023426E+03  0.64349819710E+03  0.17159793299E+03 0.  0.
         24    2    3    3    0    0  0.46603204417E+02 -0.62634765556E+02 -0.20266389704E+03  0.23145584865E+03  0.80026134426E+02 0.  0.
         -6    2    1    2    0  502 -0.12091642835E+03  0.37470419808E+02 -0.34275469067E+03  0.40353379864E+03  0.17127152027E+03 0.  0.
        -24    2    5    5    0    0 -0.97973152183E+02  0.70387709530E+02 -0.33139558916E+03  0.36156880047E+03  0.79723225953E+02 0.  0.
          5    1    3    3  501    0  0.74313223936E+02  0.25164345748E+02 -0.40447633722E+03  0.41204234845E+03  0.47000000000E+01 0. -1.
        -13    1    4    4    0    0 -0.74533536538E+01  0.10001163506E+02 -0.39455750973E+01  0.13082175469E+02  0.00000000000E+00 0.  1.
         14    1    4    4    0    0  0.54056558071E+02 -0.72635929062E+02 -0.19871832195E+03  0.21837367318E+03  0.00000000000E+00 0. -1.
         -5    1    5    5    0  502 -0.22943276170E+02 -0.32917289722E+02 -0.11359101515E+02  0.41964998168E+02  0.47000000000E+01 0.  1.
         13    1    6    6    0    0 -0.35732365460E+02  0.16173024089E+02 -0.30867920257E+02  0.49911893878E+02  0.00000000000E+00 0. -1.
        -14    1    6    6    0    0 -0.62240786723E+02  0.54214685441E+02 -0.30052766890E+03  0.31165690659E+03  0.00000000000E+00 0.  1.
</event>
<event>
12    1  0.8053217E-002  0.2141754E+03  0.7818608E-02  0.1138617E+00
         21   -1    0    0  503  502  0.00000000000E+00  0.00000000000E+00  0.75496494263E+03  0.75496494263E+03  0.00000000000E+00 0. -1.
         21   -1    0    0  501  503 -0.00000000000E+00 -0.00000000000E+00 -0.64888536426E+02  0.64888536426E+02  0.00000000000E+00 0. -1.
          6    2    1    2  501    0  0.11638248692E+02 -0.12446999124E+03  0.23723914382E+03  0.31961465849E+03  0.17390483321E+03 0.  0.
         24    2    3    3    0    0 -0.23591220447E+02 -0.53972078198E+02  0.21699206413E+03  0.23810941035E+03  0.78364561463E+02 0.  0.
         -6    2    1    2    0  502 -0.11638248692E+02  0.12446999124E+03  0.45283726239E+03  0.50023882056E+03  0.17189841139E+03 0.  0.
        -24    2    5    5    0    0 -0.50016915514E+02  0.16268223395E+02  0.23933031463E+03  0.25777675884E+03  0.80021940547E+02 0.  0.
          5    1    3    3  501    0  0.35229469140E+02 -0.70497913043E+02  0.20247079683E+02  0.81505248144E+02  0.47000000000E+01 0. -1.
        -13    1    4    4    0    0 -0.23335527296E+01  0.20245204060E+02  0.55209546428E+02  0.58850724486E+02  0.00000000000E+00 0.  1.
         14    1    4    4    0    0 -0.21257667718E+02 -0.74217282258E+02  0.16178251770E+03  0.17925868586E+03  0.00000000000E+00 0. -1.
         -5    1    5    5    0  502  0.38378666822E+02  0.10820176785E+03  0.21350694776E+03  0.24246206172E+03  0.47000000000E+01 0.  1.
         13    1    6    6    0    0 -0.66781061484E+02  0.29283342623E+02  0.20302808674E+03  0.21572581749E+03  0.00000000000E+00 0. -1.
        -14    1    6    6    0    0  0.16764145970E+02 -0.13015119228E+02  0.36302227889E+02  0.42050941349E+02  0.00000000000E+00 0.  1.
</event>
<event>
12    1  0.8053217E-002  0.1804179E+03  0.7818608E-02  0.1168865E+00
         21   -1    0    0  501  502  0.00000000000E+00  0.00000000000E+00  0.61067624656E+03  0.61067624656E+03  0.00000000000E+00 0.  1.
         21   -1    0    0  502  503 -0.00000000000E+00 -0.00000000000E+00 -0.66837340996E+02  0.66837340996E+02  0.00000000000E+00 0. -1.
         -6    2    1    2    0  503 -0.43251618452E+02  0.27840165249E+02  0.10642421626E+03  0.20435165161E+03  0.16669644990E+03 0.  0.
        -24    2    3    3    0    0  0.36741746753E+02  0.70561215464E+01  0.37437216789E+02  0.96591682026E+02  0.80800142512E+02 0.  0.
          6    2    1    2  501    0  0.43251618452E+02 -0.27840165249E+02  0.43741468930E+03  0.47316193594E+03  0.17293013013E+03 0.  0.
         24    2    5    5    0    0  0.86971691217E+02  0.14199395866E+02  0.26294196268E+03  0.28838750103E+03  0.79140236903E+02 0.  0.
          5    1    5    5  501    0 -0.43720072765E+02 -0.42039561115E+02  0.17447272662E+03  0.18477443491E+03  0.47000000000E+01 0. -1.
        -13    1    6    6    0    0  0.69415384419E+02  0.39022344575E+02  0.23076532080E+03  0.24411856188E+03  0.00000000000E+00 0.  1.
         14    1    6    6    0    0  0.17556306797E+02 -0.24822948709E+02  0.32176641882E+02  0.44268939153E+02  0.00000000000E+00 0. -1.
         -5    1    3    3    0  503 -0.79993365204E+02  0.20784043703E+02  0.68986999469E+02  0.10775996959E+03  0.47000000000E+01 0.  1.
         13    1    4    4    0    0  0.19843737618E+02  0.35476691674E+02 -0.69537241112E+01  0.41239833338E+02  0.00000000000E+00 0. -1.
        -14    1    4    4    0    0  0.16898009135E+02 -0.28420570127E+02  0.44390940900E+02  0.55351848687E+02  0.00000000000E+00 0.  1.
</event>
<event>
12    1  0.8053217E-002  0.1901217E+03  0.7818608E-02  0.1158628E+00
         21   -1    0    0  503  502  0.00000000000E+00  0.00000000000E+00  0.22967487850E+04  0.22967487850E+04  0.00000000000E+00 0.  1.
         21   -1    0    0  501  503 -0.00000000000E+00 -0.00000000000E+00 -0.18613433092E+02  0.18613433092E+02  0.00000000000E+00 0.  1.
          6    2    1    2  501    0  0.72503889821E+02  0.32380642380E+02  0.67921672041E+03  0.70532376391E+03  0.17274529980E+03 0.  0.
         24    2    3    3    0    0  0.23569571477E+02  0.26954325454E+02  0.62822371744E+03  0.63428582489E+03  0.79821100879E+02 0.  0.
         -6    2    1    2    0  502 -0.72503889821E+02 -0.32380642380E+02  0.15989186315E+04  0.16100384542E+04  0.17139928170E+03 0.  0.
        -24    2    5    5    0    0  0.69488112499E+01  0.28968639238E+02  0.87468228706E+03  0.87886348288E+03  0.80277333059E+02 0.  0.
          5    1    3    3  501    0  0.48934318344E+02  0.54263169258E+01  0.50993002969E+02  0.71037939012E+02  0.47000000000E+01 0. -1.
        -13    1    4    4    0    0  0.21956579252E+02 -0.24212206196E+02  0.33848979658E+03  0.34006420672E+03  0.00000000000E+00 0.  1.
         14    1    4    4    0    0  0.16129922251E+01  0.51166531650E+02  0.28973392086E+03  0.29422161817E+03  0.00000000000E+00 0. -1.
         -5    1    5    5    0  502 -0.79452701071E+02 -0.61349281619E+02  0.72423634443E+03  0.73117497130E+03  0.47000000000E+01 0.  1.
         11    1    6    6    0    0  0.12194841635E+02  0.11758335160E+02  0.33978932881E+02  0.37967624207E+02  0.00000000000E+00 0. -1.
        -12    1    6    6    0    0 -0.52460303848E+01  0.17210304078E+02  0.84070335418E+03  0.84089585867E+03  0.00000000000E+00 0.  1.
</event>
<event>
12    1  0.8053217E-002  0.2493223E+03  0.7818608E-02  0.1114589E+00
         21   -1    0    0  503  502  0.00000000000E+00  0.00000000000E+00  0.63217558520E+03  0.63217558520E+03  0.00000000000E+00 0. -1.
         21   -1    0    0  501  503 -0.00000000000E+00 -0.00000000000E+00 -0.15056237592E+03  0.15056237592E+03  0.00000000000E+00 0.  1.
          6    2    1    2  501    0  0.13750383845E+02  0.17289166373E+03  0.40651162397E+01  0.24402299798E+03  0.17161030834E+03 0.  0.
         24    2    3    3    0    0 -0.57409515397E+02  0.10881162036E+03  0.14414628868E+02  0.14759071278E+03  0.80245970541E+02 0.  0.
         -6    2    1    2    0  502 -0.13750383845E+02 -0.17289166373E+03  0.47754809304E+03  0.53871496314E+03  0.17911178048E+03 0.  0.
        -24    2    5    5    0    0  0.42800029598E+02 -0.16712164631E+03  0.38165482105E+03  0.42714053966E+03  0.83828103862E+02 0.  0.
          5    1    3    3  501    0  0.71159899242E+02  0.64080043363E+02 -0.10349512628E+02  0.96432285201E+02  0.47000000000E+01 0. -1.
        -11    1    4    4    0    0 -0.32882659097E+02  0.40914914580E+02 -0.32272718082E+02  0.61618405016E+02  0.00000000000E+00 0.  1.
         12    1    4    4    0    0 -0.24526856300E+02  0.67896705783E+02  0.46687346950E+02  0.85972307759E+02  0.00000000000E+00 0. -1.
         -5    1    5    5    0  502 -0.56550413443E+02 -0.57700174170E+01  0.95893271991E+02  0.11157442348E+03  0.47000000000E+01 0.  1.
         13    1    6    6    0    0 -0.10583563875E+02 -0.61737272856E+02  0.20712153703E+03  0.21638584470E+03  0.00000000000E+00 0. -1.
        -14    1    6    6    0    0  0.53383593473E+02 -0.10538437345E+03  0.17453328401E+03  0.21075469496E+03  0.00000000000E+00 0.  1.
</event>
<event>
12    1  0.8053217E-002  0.1968369E+03  0.7818608E-02  0.1153124E+00
         21   -1    0    0  503  502  0.00000000000E+00  0.00000000000E+00  0.52764147715E+03  0.52764147715E+03  0.00000000000E+00 0. -1.
         21   -1    0    0  501  503 -0.00000000000E+00 -0.00000000000E+00 -0.92116268878E+02  0.92116268878E+02  0.00000000000E+00 0. -1.
          6    2    1    2  501    0  0.41954818451E+02  0.85660912499E+02  0.72480515074E+02  0.20678531941E+03  0.16854893810E+03 0.  0.
         24    2    3    3    0    0 -0.15821920024E+02  0.44204372127E+02  0.94433406788E+02  0.13221444236E+03  0.79741023213E+02 0.  0.
         -6    2    1    2    0  502 -0.41954818451E+02 -0.85660912499E+02  0.36304469320E+03  0.41297242663E+03  0.17218239507E+03 0.  0.
        -24    2    5    5    0    0  0.50364212771E+01 -0.22717667122E+02  0.64788131824E+02  0.10450995702E+03  0.78634414557E+02 0.  0.
          5    1    3    3  501    0  0.57776738475E+02  0.41456540372E+02 -0.21952891714E+02  0.74570877044E+02  0.47000000000E+01 0. -1.
        -13    1    4    4    0    0 -0.46029541408E+02  0.41570043208E+02  0.67353702828E+02  0.91560408797E+02  0.00000000000E+00 0.  1.
         14    1    4    4    0    0  0.30207621383E+02  0.26343289186E+01  0.27079703960E+02  0.40654033564E+02  0.00000000000E+00 0. -1.
         -5    1    5    5    0  502 -0.46991239728E+02 -0.62943245377E+02  0.29825656138E+03  0.30846246960E+03  0.47000000000E+01 0.  1.
         13    1    6    6    0    0  0.18520826810E+02 -0.39880857739E+02  0.69441620567E+02  0.82192715655E+02  0.00000000000E+00 0. -1.
        -14    1    6    6    0    0 -0.13484405533E+02  0.17163190617E+02 -0.46534887435E+01  0.22317241367E+02  0.00000000000E+00 0.  1.
</event>
<event>
12    1  0.8053217E-002  0.1774313E+03  0.7818608E-02  0.1170968E+00
         21   -1    0    0  501  502  0.00000000000E+00  0.00000000000E+00  0.73308905973E+03  0.73308905973E+03  0.00000000000E+00 0.  1.
         21   -1    0    0  502  503 -0.00000000000E+00 -0.00000000000E+00 -0.43954761590E+02  0.43954761590E+02  0.00000000000E+00 0.  1.
         -6    2    1    2    0  503  0.35169853513E+00 -0.35493601607E+02  0.27185318556E+03  0.32463211481E+03  0.17384457432E+03 0.  0.
        -24    2    3    3    0    0  0.66048330572E+02 -0.82304532782E+01  0.13446377296E+03  0.16985076124E+03  0.79615655013E+02 0.  0.
          6    2    1    2  501    0 -0.35169853513E+00  0.35493601607E+02  0.41728111258E+03  0.45241170651E+03  0.17115170413E+03 0.  0.
         24    2    5    5    0    0  0.24728367015E+02  0.76814563521E+02  0.19707273987E+03  0.22691170875E+03  0.78353618049E+02 0.  0.
          5    1    5    5  501    0 -0.25080065550E+02 -0.41320961914E+02  0.22020837271E+03  0.22549999777E+03  0.47000000000E+01 0. -1.
        -11    1    6    6    0    0  0.53160899946E+02  0.51503915375E+02  0.13890245597E+03  0.15739322367E+03  0.00000000000E+00 0.  1.
         12    1    6    6    0    0 -0.28432532930E+02  0.25310648146E+02  0.58170283905E+02  0.69518485082E+02  0.00000000000E+00 0. -1.
         -5    1    3    3    0  503 -0.65696632037E+02 -0.27263148329E+02  0.13738941260E+03  0.15478135357E+03  0.47000000000E+01 0.  1.
         13    1    4    4    0    0 -0.31373100895E+00 -0.47527775327E+01  0.89473665758E+02  0.89600358178E+02  0.00000000000E+00 0. -1.
        -14    1    4    4    0    0  0.66362061581E+02 -0.34776757455E+01  0.44990107202E+02  0.80250403064E+02  0.00000000000E+00 0.  1.
</event>
<event>
12    1  0.8053217E-002  0.2159029E+03  0.7818608E-02  0.1137267E+00
         21   -1    0    0  503  502  0.00000000000E+00  0.00000000000E+00  0.87123146771E+03  0.87123146771E+03  0.00000000000E+00 0.  1.
         21   -1    0    0  501  503 -0.00000000000E+00 -0.00000000000E+00 -0.60534341045E+02  0.60534341045E+02  0.00000000000E+00 0.  1.
          6    2    1    2  501    0 -0.59806183044E+02  0.11270845750E+03  0.24363939132E+03  0.32553682838E+03  0.17416686742E+03 0.  0.
         24    2    3    3    0    0  0.34775019008E+02  0.61276103780E+02  0.13804694460E+03  0.17466355177E+03  0.80537783441E+02 0.  0.
         -6    2    1    2    0  502  0.59806183044E+02 -0.11270845750E+03  0.56705773534E+03  0.60622898037E+03  0.17227630571E+03 0.  0.
        -24    2    5    5    0    0  0.91477824808E+02 -0.31164528812E+02  0.35977430659E+03  0.38119339422E+03  0.80817274316E+02 0.  0.
          5    1    3    3  501    0 -0.94581202052E+02  0.51432353723E+02  0.10559244672E+03  0.15087327661E+03  0.47000000000E+01 0. -1.
        -11    1    4    4    0    0 -0.25355075616E+02  0.22473334547E+02  0.58988070377E+02  0.68025900009E+02  0.00000000000E+00 0.  1.
         12    1    4    4    0    0  0.60130094624E+02  0.38802769233E+02  0.79058874228E+02  0.10663765176E+03  0.00000000000E+00 0. -1.
         -5    1    5    5    0  502 -0.31671641764E+02 -0.81543928692E+02  0.20728342875E+03  0.22503558615E+03  0.47000000000E+01 0.  1.
         11    1    6    6    0    0  0.55075410225E+02  0.75958014579E+01  0.27901528607E+03  0.28450048660E+03  0.00000000000E+00 0. -1.
        -12    1    6    6    0    0  0.36402414583E+02 -0.38760330270E+02  0.80759020519E+02  0.96692907626E+02  0.00000000000E+00 0.  1.
</event>
<event>
12    1  0.8053217E-002  0.2424154E+03  0.7818608E-02  0.1118255E+00
         21   -1    0    0  501  502  0.00000000000E+00  0.00000000000E+00  0.38294503381E+03  0.38294503381E+03  0.00000000000E+00 0. -1.
         21   -1    0    0  502  503 -0.00000000000E+00 -0.00000000000E+00 -0.15322283701E+03  0.15322283701E+03  0.00000000000E+00 0. -1.
         -6    2    1    2    0  503  0.95578442859E+02 -0.14012444678E+03  0.11551363533E+03  0.26819622316E+03  0.17267227585E+03 0.  0.
        -24    2    3    3    0    0  0.83789352562E+02 -0.16031035074E+03  0.12840477278E+03  0.24109041579E+03  0.94428484867E+02 0.  0.
          6    2    1    2  501    0 -0.95578442859E+02  0.14012444678E+03  0.11420856147E+03  0.26797164765E+03  0.17319096139E+03 0.  0.
         24    2    5    5    0    0 -0.12485437890E+03  0.64409310592E+02  0.76776498537E+02  0.17845566240E+03  0.78832845276E+02 0.  0.
          5    1    5    5  501    0  0.29275936042E+02  0.75715136191E+02  0.37432062938E+02  0.89515985250E+02  0.47000000000E+01 0. -1.
        -13    1    6    6    0    0 -0.55779413135E+02  0.63539204049E+02  0.15178860765E+02  0.85900938266E+02  0.00000000000E+00 0.  1.
         14    1    6    6    0    0 -0.69074965766E+02  0.87010654346E+00  0.61597637772E+02  0.92554724137E+02  0.00000000000E+00 0. -1.
         -5    1    3    3    0  503  0.11789090296E+02  0.20185903960E+02 -0.12891137451E+02  0.27105807375E+02  0.47000000000E+01 0.  1.
         13    1    4    4    0    0 -0.56359098272E+01 -0.84196950792E+02  0.36363811703E+02  0.91886978423E+02  0.00000000000E+00 0. -1.
        -14    1    4    4    0    0  0.89425262390E+02 -0.76113399951E+02  0.92040961076E+02  0.14920343736E+03  0.00000000000E+00 0.  1.
</event>
<event>
12    1  0.8053217E-002  0.1858634E+03  0.7818608E-02  0.1164754E+00
         21   -1    0    0  503  502  0.00000000000E+00  0.00000000000E+00  0.12703170527E+03  0.12703170527E+03  0.00000000000E+00 0. -1.
         21   -1    0    0  501  503 -0.00000000000E+00 -0.00000000000E+00 -0.31745547717E+03  0.31745547717E+03  0.00000000000E+00 0. -1.
          6    2    1    2  501    0 -0.39129120119E+00 -0.73709746759E+02 -0.19006736342E+03  0.25862347285E+03  0.15914527387E+03 0.  0.
         24    2    3    3    0    0  0.41490737841E+02 -0.60719609302E+02 -0.64831856655E+02  0.12584971723E+03  0.78908994474E+02 0.  0.
         -6    2    1    2    0  502  0.39129120119E+00  0.73709746759E+02 -0.35640848677E+00  0.18586370959E+03  0.17062213116E+03 0.  0.
        -24    2    5    5    0    0  0.42712948103E+02  0.17256372694E+02 -0.43793837312E+02  0.10287572065E+03  0.80890885628E+02 0.  0.
          5    1    3    3  501    0 -0.41882029042E+02 -0.12990137457E+02 -0.12523550676E+03  0.13277375562E+03  0.47000000000E+01 0. -1.
        -13    1    4    4    0    0  0.16126349239E+02 -0.71637345315E+02 -0.65250342955E+02  0.98232253559E+02  0.00000000000E+00 0.  1.
         14    1    4    4    0    0  0.25364388602E+02  0.10917736012E+02  0.41848630043E+00  0.27617463670E+02  0.00000000000E+00 0. -1.
         -5    1    5    5    0  502 -0.42321656902E+02  0.56453374065E+02  0.43437428825E+02  0.82987988945E+02  0.47000000000E+01 0.  1.
         11    1    6    6    0    0  0.24960074411E+02 -0.14750631072E+02  0.15740733249E+02  0.32990257878E+02  0.00000000000E+00 0. -1.
        -12    1    6    6    0    0  0.17752873692E+02  0.32007003767E+02 -0.59534570561E+02  0.69885462768E+02  0.00000000000E+00 0.  1.
</event>
<event>
12    1  0.8053217E-002  0.1904594E+03  0.7818608E-02  0.1158158E+00
         21   -1    0    0  503  502  0.00000000000E+00  0.00000000000E+00  0.10473256353E+04  0.10473256353E+04  0.00000000000E+00 0.  1.
         21   -1    0    0  501  503 -0.00000000000E+00 -0.00000000000E+00 -0.34616882157E+02  0.34616882157E+02  0.00000000000E+00 0.  1.
          6    2    1    2  501    0 -0.81014650242E+02  0.94027717058E+01  0.53134483158E+03  0.56444849561E+03  0.17211330129E+03 0.  0.
         24    2    3    3    0    0 -0.20489922710E+01  0.56854626386E+02  0.28122647090E+03  0.29786166548E+03  0.79978727889E+02 0.  0.
         -6    2    1    2    0  502  0.81014650242E+02 -0.94027717058E+01  0.48136392161E+03  0.51749402189E+03  0.17157229379E+03 0.  0.
        -24    2    5    5    0    0  0.44771749755E+02 -0.50146818370E+02  0.42946987965E+03  0.44207050590E+03  0.80391179174E+02 0.  0.
          5    1    3    3  501    0 -0.78965657971E+02 -0.47451854681E+02  0.25011836068E+03  0.26658683013E+03  0.47000000000E+01 0. -1.
        -11    1    4    4    0    0 -0.59407458554E+01  0.44317441891E+02  0.28120153150E+03  0.28473431377E+03  0.00000000000E+00 0.  1.
         12    1    4    4    0    0  0.38917535844E+01  0.12537184495E+02  0.24939401703E-01  0.13127351713E+02  0.00000000000E+00 0. -1.
         -5    1    5    5    0  502  0.36242900487E+02  0.40744046664E+02  0.51894041960E+02  0.75423515996E+02  0.47000000000E+01 0.  1.
         11    1    6    6    0    0  0.18722765671E+02  0.13226403208E+02  0.23042835144E+03  0.23156576786E+03  0.00000000000E+00 0. -1.
        -12    1    6    6    0    0  0.26048984084E+02 -0.63373221577E+02  0.19904152821E+03  0.21050473804E+03  0.00000000000E+00 0.  1.
</event>
<event>
12    1  0.8053217E-002  0.1790143E+03  0.7818608E-02  0.1169767E+00
         21   -1    0    0  503  502  0.00000000000E+00  0.00000000000E+00  0.14688658136E+03  0.14688658136E+03  0.00000000000E+00 0. -1.
         21   -1    0    0  501  503 -0.00000000000E+00 -0.00000000000E+00 -0.21371686262E+03  0.21371686262E+03  0.00000000000E+00 0. -1.
          6    2    1    2  501    0 -0.36152666406E+02 -0.18306367212E+01 -0.41669947683E+02  0.17982964501E+03  0.17114891226E+03 0.  0.
         24    2    3    3    0    0 -0.54002961857E+02 -0.51392318231E+02 -0.60905704072E+02  0.12355267241E+03  0.77448484866E+02 0.  0.
         -6    2    1    2    0  502  0.36152666406E+02  0.18306367212E+01 -0.25160333579E+02  0.18077379897E+03  0.17531616437E+03 0.  0.
        -24    2    5    5    0    0  0.87041863997E+01 -0.49143575374E+02  0.32673531058E+02  0.98806517377E+02  0.78767470335E+02 0.  0.
          5    1    3    3  501    0  0.17850295452E+02  0.49561681510E+02  0.19235756389E+02  0.56276972606E+02  0.47000000000E+01 0. -1.
        -11    1    4    4    0    0 -0.95510175038E+01  0.36639034690E+01  0.16035019877E+02  0.19020199432E+02  0.00000000000E+00 0.  1.
         12    1    4    4    0    0 -0.44451944354E+02 -0.55056221700E+02 -0.76940723949E+02  0.10453247298E+03  0.00000000000E+00 0. -1.
         -5    1    5    5    0  502  0.27448480006E+02  0.50974212095E+02 -0.57833864637E+02  0.81967281596E+02  0.47000000000E+01 0.  1.
         11    1    6    6    0    0  0.27142043019E+02 -0.61187563476E+02  0.10866503619E+02  0.67813636713E+02  0.00000000000E+00 0. -1.
        -12    1    6    6    0    0 -0.18437856620E+02  0.12043988102E+02  0.21807027439E+02  0.30992880664E+02  0.00000000000E+00 0.  1.
</event>
<event>
12    1  0.8053217E-002  0.1741910E+03  0.7818608E-02  0.1174242E+00
         21   -1    0    0  501  502  0.00000000000E+00  0.00000000000E+00  0.30882868608E+03  0.30882868608E+03  0.00000000000E+00 0.  1.
         21   -1    0    0  502  503 -0.00000000000E+00 -0.00000000000E+00 -0.15490312782E+03  0.15490312782E+03  0.00000000000E+00 0.  1.
         -6    2    1    2    0  503  0.49103854849E+01  0.39291891584E+02 -0.65521404667E+02  0.18355426694E+03  0.16682670593E+03 0.  0.
        -24    2    3    3    0    0  0.36709196775E+02 -0.29742169315E+02 -0.52382416494E+02  0.10627821001E+03  0.79492003388E+02 0.  0.
          6    2    1    2  501    0 -0.49103854849E+01 -0.39291891584E+02  0.21944696292E+03  0.28017754697E+03  0.16963055048E+03 0.  0.
         24    2    5    5    0    0 -0.25970326527E+02  0.40361707745E+02  0.11920742335E+03  0.15033813732E+03  0.78023204495E+02 0.  0.
          5    1    5    5  501    0  0.21059941042E+02 -0.79653599330E+02  0.10023953957E+03  0.12983940964E+03  0.47000000000E+01 0. -1.
        -11    1    6    6    0    0 -0.20053298635E+02  0.39265709883E+02  0.13038815687E+03  0.13764084500E+03  0.00000000000E+00 0.  1.
         12    1    6    6    0    0 -0.59170278921E+01  0.10959978619E+01 -0.11180733520E+02  0.12697292327E+02  0.00000000000E+00 0. -1.
         -5    1    3    3    0  503 -0.31798811290E+02  0.69034060899E+02 -0.13138988173E+02  0.77276056925E+02  0.47000000000E+01 0.  1.
         13    1    4    4    0    0 -0.16472720404E+02 -0.21577601162E+02  0.50140928859E+01  0.27605878303E+02  0.00000000000E+00 0. -1.
        -14    1    4    4    0    0  0.53181917178E+02 -0.81645681527E+01 -0.57396509380E+02  0.78672331711E+02  0.00000000000E+00 0.  1.
</event>
<event>
12    1  0.8053217E-002  0.1805693E+03  0.7818608E-02  0.1167368E+00
         21   -1    0    0  503  502  0.00000000000E+00  0.00000000000E+00  0.15603684013E+04  0.15603684013E+04  0.00000000000E+00 0.  1.
         21   -1    0    0  501  503 -0.00000000000E+00 -0.00000000000E+00 -0.20930497952E+02  0.20930497952E+02  0.00000000000E+00 0.  1.
          6    2    1    2  501    0  0.45130444572E+02 -0.30001248601E+02  0.71900511585E+03  0.74133233570E+03  0.17224530008E+03 0.  0.
         24    2    3    3    0    0 -0.15950357621E+02 -0.72871050912E+02  0.41524914783E+03  0.42850896309E+03  0.74989817351E+02 0.  0.
         -6    2    1    2    0  502 -0.45130444572E+02  0.30001248601E+02  0.82043278745E+03  0.83996656350E+03  0.17174701490E+03 0.  0.
        -24    2    5    5    0    0  0.24187783669E+02 -0.21702239064E+02  0.28968790971E+03  0.30220222603E+03  0.79693565153E+02 0.  0.
          5    1    3    3  501    0  0.61080802193E+02  0.42869802311E+02  0.30375596801E+03  0.31282337261E+03  0.47000000000E+01 0. -1.
        -13    1    4    4    0    0  0.20897006753E+02 -0.34204574881E+02  0.85100472929E+02  0.94067679501E+02  0.00000000000E+00 0.  1.
         14    1    4    4    0    0 -0.36847364374E+02 -0.38666476031E+02  0.33014867490E+03  0.33444128359E+03  0.00000000000E+00 0. -1.
         -5    1    5    5    0  502 -0.69318228241E+02  0.51703487666E+02  0.53074487774E+03  0.53776433747E+03  0.47000000000E+01 0.  1.
         13    1    6    6    0    0 -0.23111570668E+02 -0.15908082736E+02  0.18580080057E+03  0.18790728908E+03  0.00000000000E+00 0. -1.
        -14    1    6    6    0    0  0.47299354337E+02 -0.57941563280E+01  0.10388710914E+03  0.11429493695E+03  0.00000000000E+00 0.  1.
</event>
<event>
12    1  0.8053217E-002  0.1743746E+03  0.7818608E-02  0.1173750E+00
         21   -1    0    0  501  502  0.00000000000E+00  0.00000000000E+00  0.16790273322E+03  0.16790273322E+03  0.00000000000E+00 0.  1.
         21   -1    0    0  502  503 -0.00000000000E+00 -0.00000000000E+00 -0.20002010214E+03  0.20002010214E+03  0.00000000000E+00 0.  1.
         -6    2    1    2    0  503 -0.16288840985E+01  0.11520830062E+02 -0.75033508297E+02  0.18983292747E+03  0.17398600575E+03 0.  0.
        -24    2    3    3    0    0  0.31288969115E+02  0.50979846695E+02 -0.13217454100E+01  0.99854524275E+02  0.79945197792E+02 0.  0.
          6    2    1    2  501    0  0.16288840985E+01 -0.11520830062E+02  0.42916139377E+02  0.17808990788E+03  0.17244952154E+03 0.  0.
         24    2    5    5    0    0 -0.19800359143E+02 -0.55299452234E+02 -0.22033952546E+02  0.96748745693E+02  0.73652841689E+02 0.  0.
          5    1    5    5  501    0  0.21429243241E+02  0.43778622171E+02  0.64950091923E+02  0.81341162187E+02  0.47000000000E+01 0. -1.
        -11    1    6    6    0    0  0.88766455350E+01 -0.40745873245E+02 -0.41764808301E+02  0.59019659732E+02  0.00000000000E+00 0.  1.
         12    1    6    6    0    0 -0.28677004677E+02 -0.14553578988E+02  0.19730855755E+02  0.37729085961E+02  0.00000000000E+00 0. -1.
         -5    1    3    3    0  503 -0.32917853214E+02 -0.39459016632E+02 -0.73711762887E+02  0.89978403196E+02  0.47000000000E+01 0.  1.
         11    1    4    4    0    0  0.20533891603E+02 -0.10616734399E+02  0.23143223282E+02  0.32710312404E+02  0.00000000000E+00 0. -1.
        -12    1    4    4    0    0  0.10755077512E+02  0.61596581094E+02 -0.24464968692E+02  0.67144211871E+02  0.00000000000E+00 0.  1.
</event>
<event>
12    1  0.8053217E-002  0.2020995E+03  0.7818608E-02  0.1148288E+00
         21   -1    0    0  503  502  0.00000000000E+00  0.00000000000E+00  0.64319670910E+03  0.64319670910E+03  0.00000000000E+00 0. -1.
         21   -1    0    0  501  503 -0.00000000000E+00 -0.00000000000E+00 -0.16949050668E+03  0.16949050668E+03  0.00000000000E+00 0.  1.
          6    2    1    2  501    0  0.68414843531E+02 -0.76858835864E+02 -0.84853404671E+02  0.21919007733E+03  0.17394343406E+03 0.  0.
         24    2    3    3    0    0  0.61692456065E+02 -0.49713536617E+01 -0.10365846336E+03  0.14443232976E+03  0.79277659909E+02 0.  0.
         -6    2    1    2    0  502 -0.68414843531E+02  0.76858835864E+02  0.55855960709E+03  0.59349713845E+03  0.17222702229E+03 0.  0.
        -24    2    5    5    0    0  0.90428914562E+01  0.88930249763E+02  0.31522263741E+03  0.33780124376E+03  0.82182759422E+02 0.  0.
          5    1    3    3  501    0  0.67223874665E+01 -0.71887482202E+02  0.18805058687E+02  0.74757747577E+02  0.47000000000E+01 0. -1.
        -11    1    4    4    0    0  0.55224949348E+02  0.21513939857E+02 -0.31123063418E+02  0.66942435832E+02  0.00000000000E+00 0.  1.
         12    1    4    4    0    0  0.64675067169E+01 -0.26485293519E+02 -0.72535399940E+02  0.77489893925E+02  0.00000000000E+00 0. -1.
         -5    1    5    5    0  502 -0.77457734987E+02 -0.12071413899E+02  0.24333696969E+03  0.25569589469E+03  0.47000000000E+01 0.  1.
         11    1    6    6    0    0 -0.14208509707E+02  0.70462034545E+02  0.29020243730E+03  0.29897196302E+03  0.00000000000E+00 0. -1.
        -12    1    6    6    0    0  0.23251401164E+02  0.18468215217E+02  0.25020200109E+02  0.38829280741E+02  0.00000000000E+00 0.  1.
</event>
<event>
12    1  0.8053217E-002  0.1903494E+03  0.7818608E-02  0.1158898E+00
         21   -1    0    0  501  502  0.00000000000E+00  0.00000000000E+00  0.42688207570E+03  0.42688207570E+03  0.00000000000E+00 0. -1.
         21   -1    0    0  502  503 -0.00000000000E+00 -0.00000000000E+00 -0.18642808657E+03  0.18642808657E+03  0.00000000000E+00 0. -1.
         -6    2    1    2    0  503  0.43599303677E+02  0.58885424673E+02 -0.10819779836E+03  0.21608107876E+03  0.17209263932E+03 0.  0.
        -24    2    3    3    0    0  0.25460858334E+02  0.42458994718E+02 -0.14473811777E+03  0.17185308148E+03  0.78315626414E+02 0.  0.
          6    2    1    2  501    0 -0.43599303677E+02 -0.58885424673E+02  0.34865178749E+03  0.39722908351E+03  0.17568290568E+03 0.  0.
         24    2    5    5    0    0  0.43662965999E+02 -0.42677678426E+02  0.17043864453E+03  0.19808238112E+03  0.80370761652E+02 0.  0.
          5    1    5    5  501    0 -0.87262269676E+02 -0.16207746248E+02  0.17821314296E+03  0.19914670239E+03  0.47000000000E+01 0. -1.
        -11    1    6    6    0    0  0.45574128483E+02  0.11091316771E+02  0.72815977710E+02  0.86615155167E+02  0.00000000000E+00 0.  1.
         12    1    6    6    0    0 -0.19111624842E+01 -0.53768995196E+02  0.97622666815E+02  0.11146722596E+03  0.00000000000E+00 0. -1.
         -5    1    3    3    0  503  0.18138445343E+02  0.16426429955E+02  0.36540319409E+02  0.44227997276E+02  0.47000000000E+01 0.  1.
         11    1    4    4    0    0 -0.13626080205E+02  0.20941470510E+02 -0.11627551353E+03  0.11892943410E+03  0.00000000000E+00 0. -1.
        -12    1    4    4    0    0  0.39086938539E+02  0.21517524208E+02 -0.28462604242E+02  0.52923647386E+02  0.00000000000E+00 0.  1.
</event>
<event>
12    1  0.8053217E-002  0.2176450E+03  0.7818608E-02  0.1136090E+00
         21   -1    0    0  503  502  0.00000000000E+00  0.00000000000E+00  0.12516177397E+03  0.12516177397E+03  0.00000000000E+00 0.  1.
         21   -1    0    0  501  503 -0.00000000000E+00 -0.00000000000E+00 -0.65358740539E+03  0.65358740539E+03  0.00000000000E+00 0.  1.
          6    2    1    2  501    0  0.73339467929E+02 -0.10952300317E+03 -0.51947826261E+03  0.56322908842E+03  0.17319172883E+03 0.  0.
         24    2    3    3    0    0  0.45103041878E+02 -0.65043690607E+02 -0.48982921102E+03  0.50259196067E+03  0.80006605258E+02 0.  0.
         -6    2    1    2    0  502 -0.73339467929E+02  0.10952300317E+03 -0.89473687982E+01  0.21552009094E+03  0.17027885486E+03 0.  0.
        -24    2    5    5    0    0 -0.11600026401E+03  0.97507460913E+02 -0.80261018212E+01  0.17094144683E+03  0.78694305692E+02 0.  0.
          5    1    3    3  501    0  0.28236426051E+02 -0.44479312558E+02 -0.29649051596E+02  0.60637127755E+02  0.47000000000E+01 0. -1.
        -11    1    4    4    0    0  0.21707865420E+02 -0.79713248290E+02 -0.40637205829E+03  0.41468504088E+03  0.00000000000E+00 0.  1.
         12    1    4    4    0    0  0.23395176458E+02  0.14669557683E+02 -0.83457152732E+02  0.87906919786E+02  0.00000000000E+00 0. -1.
         -5    1    5    5    0  502  0.42660796083E+02  0.12015542252E+02 -0.92126697706E+00  0.44578644113E+02  0.47000000000E+01 0.  1.
         13    1    6    6    0    0 -0.66621399115E+02  0.35047347134E+02 -0.39875119829E+02  0.85186574897E+02  0.00000000000E+00 0. -1.
        -14    1    6    6    0    0 -0.49378864897E+02  0.62460113779E+02  0.31849018008E+02  0.85754871931E+02  0.00000000000E+00 0.  1.
</event>
<event>
12    1  0.8053217E-002  0.2020266E+03  0.7818608E-02  0.1148109E+00
         21   -1    0    0  501  502  0.00000000000E+00  0.00000000000E+00  0.18228263087E+03  0.18228263087E+03  0.00000000000E+00 0.  1.
         21   -1    0    0  502  503 -0.00000000000E+00 -0.00000000000E+00 -0.42513783448E+03  0.42513783448E+03  0.00000000000E+00 0. -1.
         -6    2    1    2    0  503 -0.75483364466E+02 -0.72060066293E+02 -0.33051408316E+03  0.38719598562E+03  0.17260005983E+03 0.  0.
        -24    2    3    3    0    0 -0.75888159826E+02 -0.35648262524E+02 -0.89390696360E+02  0.14329321611E+03  0.74245792918E+02 0.  0.
          6    2    1    2  501    0  0.75483364466E+02  0.72060066293E+02  0.87658879540E+02  0.22022447973E+03  0.17298656261E+03 0.  0.
         24    2    5    5    0    0  0.47390234273E+02 -0.12351766504E+02 -0.13698577308E+01  0.94276921037E+02  0.80547258735E+02 0.  0.
          5    1    5    5  501    0  0.28093130193E+02  0.84411832796E+02  0.89028737271E+02  0.12594755869E+03  0.47000000000E+01 0. -1.
        -13    1    6    6    0    0  0.10176949525E+02 -0.34089501738E+02  0.25245909196E+02  0.43623621600E+02  0.00000000000E+00 0.  1.
         14    1    6    6    0    0  0.37213284747E+02  0.21737735234E+02 -0.26615766926E+02  0.50653299437E+02  0.00000000000E+00 0. -1.
         -5    1    3    3    0  503  0.40479536058E+00 -0.36411803768E+02 -0.24112338680E+03  0.24390276951E+03  0.47000000000E+01 0.  1.
         11    1    4    4    0    0 -0.88907867144E+01 -0.17548338884E+01 -0.63089684750E+02  0.63737225012E+02  0.00000000000E+00 0. -1.
        -12    1    4    4    0    0 -0.66997373112E+02 -0.33893428636E+02 -0.26301011610E+02  0.79555991102E+02  0.00000000000E+00 0.  1.
</event>
<event>
12    1  0.8053217E-002  0.1797717E+03  0.7818608E-02  0.1168244E+00
         21   -1    0    0  503  502  0.00000000000E+00  0.00000000000E+00  0.53143794942E+03  0.53143794942E+03  0.00000000000E+00 0.  1.
         21   -1    0    0  501  503 -0.00000000000E+00 -0.00000000000E+00 -0.71064340006E+02  0.71064340006E+02  0.00000000000E+00 0.  1.
          6    2    1    2  501    0  0.24238147229E+02  0.44963404094E+02  0.11357805196E+03  0.21188096998E+03  0.17141871561E+03 0.  0.
         24    2    3    3    0    0  0.40659476218E+02  0.24395950827E+02  0.16166692059E+01  0.96771798286E+02  0.84343416466E+02 0.  0.
         -6    2    1    2    0  502 -0.24238147229E+02 -0.44963404094E+02  0.34679555745E+03  0.39062131944E+03  0.17236200581E+03 0.  0.
        -24    2    5    5    0    0 -0.66004324821E+02 -0.45349976735E+02  0.32326510569E+03  0.34245146176E+03  0.79746371839E+02 0.  0.
          5    1    3    3  501    0 -0.16421328989E+02  0.20567453267E+02  0.11196138275E+03  0.11510917169E+03  0.47000000000E+01 0. -1.
        -11    1    4    4    0    0 -0.25707315812E+02  0.10988909098E+02 -0.61329389294E+01  0.28622284139E+02  0.00000000000E+00 0.  1.
         12    1    4    4    0    0  0.66366792030E+02  0.13407041729E+02  0.77496081354E+01  0.68149514147E+02  0.00000000000E+00 0. -1.
         -5    1    5    5    0  502  0.41766177592E+02  0.38657264029E+00  0.23530451762E+02  0.48169857682E+02  0.47000000000E+01 0.  1.
         11    1    6    6    0    0  0.71855025204E+01 -0.18063191563E+02  0.15310720352E+02  0.24745272147E+02  0.00000000000E+00 0. -1.
        -12    1    6    6    0    0 -0.73189827341E+02 -0.27286785171E+02  0.30795438534E+03  0.31770618962E+03  0.00000000000E+00 0.  1.
</event>
<event>
12    1  0.8053217E-002  0.1868537E+03  0.7818608E-02  0.1161732E+00
         21   -1    0    0  503  502  0.00000000000E+00  0.00000000000E+00  0.21336581258E+02  0.21336581258E+02  0.00000000000E+00 0. -1.
         21   -1    0    0  501  503 -0.00000000000E+00 -0.00000000000E+00 -0.16835787156E+04  0.16835787156E+04  0.00000000000E+00 0. -1.
          6    2    1    2  501    0  0.62034022773E+02 -0.30897128131E+02 -0.66327719113E+03  0.68862535387E+03  0.17165486652E+03 0.  0.
         24    2    3    3    0    0  0.93774505222E+02 -0.39923042414E+02 -0.34410378158E+03  0.36771620672E+03  0.80126706181E+02 0.  0.
         -6    2    1    2    0  502 -0.62034022773E+02  0.30897128131E+02 -0.99896494324E+03  0.10162899430E+04  0.17352647625E+03 0.  0.
        -24    2    5    5    0    0  0.30975310761E+02  0.22857485584E+02 -0.61684638340E+03  0.62290456487E+03  0.77644714492E+02 0.  0.
          5    1    3    3  501    0 -0.31740482448E+02  0.90259142832E+01 -0.31917340956E+03  0.32090914715E+03  0.47000000000E+01 0. -1.
        -11    1    4    4    0    0  0.45720915158E+01 -0.39290355409E+02 -0.86803711191E+02  0.95391405931E+02  0.00000000000E+00 0.  1.
         12    1    4    4    0    0  0.89202413706E+02 -0.63268700553E+00 -0.25730007038E+03  0.27232480079E+03  0.00000000000E+00 0. -1.
         -5    1    5    5    0  502 -0.93009333534E+02  0.80396425469E+01 -0.38211855984E+03  0.39338537816E+03  0.47000000000E+01 0.  1.
         11    1    6    6    0    0 -0.20884691207E+01 -0.24775413725E+02 -0.11126971176E+03  0.11401373418E+03  0.00000000000E+00 0. -1.
        -12    1    6    6    0    0  0.33063779882E+02  0.47632899310E+02 -0.50557667165E+03  0.50889083068E+03  0.00000000000E+00 0.  1.
</event>
<event>
12    1  0.8053217E-002  0.2424569E+03  0.7818608E-02  0.1120453E+00
         21   -1    0    0  503  502  0.00000000000E+00  0.00000000000E+00  0.46149858492E+03  0.46149858492E+03  0.00000000000E+00 0.  1.
         21   -1    0    0  501  503 -0.00000000000E+00 -0.00000000000E+00 -0.23778156910E+03  0.23778156910E+03  0.00000000000E+00 0. -1.
          6    2    1    2  501    0 -0.11553640378E+03  0.99686726122E+02 -0.13537942940E+03  0.26599546042E+03  0.17070410392E+03 0.  0.
         24    2    3    3    0    0 -0.51495759241E+02  0.47649307787E+02  0.11182461124E+01  0.10642477865E+03  0.80016956233E+02 0.  0.
         -6    2    1    2    0  502  0.11553640378E+03 -0.99686726122E+02  0.35909644522E+03  0.43328469360E+03  0.18841248571E+03 0.  0.
        -24    2    5    5    0    0 -0.19793902527E+02 -0.25214299295E+02  0.15234407315E+03  0.17515862455E+03  0.80276196130E+02 0.  0.
          5    1    3    3  501    0 -0.64040644544E+02  0.52037418334E+02 -0.13649767551E+03  0.15957068177E+03  0.47000000000E+01 0. -1.
        -13    1    4    4    0    0 -0.52161238888E+02  0.98792869601E+01  0.28038732936E+02  0.60038035426E+02  0.00000000000E+00 0.  1.
         14    1    4    4    0    0  0.66547964717E+00  0.37770020827E+02 -0.26920486824E+02  0.46386743228E+02  0.00000000000E+00 0. -1.
         -5    1    5    5    0  502  0.13533030631E+03 -0.74472426827E+02  0.20675237207E+03  0.25812606905E+03  0.47000000000E+01 0.  1.
         13    1    6    6    0    0  0.11541449386E+02 -0.38753677649E+02  0.36788525312E+02  0.54666700832E+02  0.00000000000E+00 0. -1.
        -14    1    6    6    0    0 -0.31335351914E+02  0.13539378354E+02  0.11555554784E+03  0.12049192372E+03  0.00000000000E+00 0.  1.
</event>
<event>
12    1  0.8053217E-002  0.1900351E+03  0.7818608E-02  0.1158862E+00
         21   -1    0    0  501  502  0.00000000000E+00  0.00000000000E+00  0.38561755868E+03  0.38561755868E+03  0.00000000000E+00 0. -1.
         21   -1    0    0  502  503 -0.00000000000E+00 -0.00000000000E+00 -0.18889302563E+03  0.18889302563E+03  0.00000000000E+00 0. -1.
         -6    2    1    2    0  503  0.53534714768E+02 -0.61158057564E+02 -0.10685692420E+03  0.21635555033E+03  0.16966156965E+03 0.  0.
        -24    2    3    3    0    0  0.91706667088E+02  0.31668927538E+01 -0.48054363641E+02  0.12109470682E+03  0.62726104269E+02 0.  0.
          6    2    1    2  501    0 -0.53534714768E+02  0.61158057564E+02  0.30358145726E+03  0.35815503398E+03  0.17177617263E+03 0.  0.
         24    2    5    5    0    0 -0.37587477482E+02  0.10001122902E+03  0.14539814813E+03  0.19442375231E+03  0.72421748041E+02 0.  0.
          5    1    5    5  501    0 -0.15947237286E+02 -0.38853171459E+02  0.15818330913E+03  0.16373128167E+03  0.47000000000E+01 0. -1.
        -13    1    6    6    0    0 -0.59260144095E+02  0.68236747160E+02  0.10724875560E+03  0.14025089632E+03  0.00000000000E+00 0.  1.
         14    1    6    6    0    0  0.21672666613E+02  0.31774481863E+02  0.38149392523E+02  0.54172855986E+02  0.00000000000E+00 0. -1.
         -5    1    3    3    0  503 -0.38171952320E+02 -0.64324950318E+02 -0.58802560564E+02  0.95260843509E+02  0.47000000000E+01 0.  1.
         11    1    4    4    0    0  0.63581694368E+02 -0.16055764069E+02 -0.44053433187E+01  0.65725386787E+02  0.00000000000E+00 0. -1.
        -12    1    4    4    0    0  0.28124972720E+02  0.19222656823E+02 -0.43649020322E+02  0.55369320033E+02  0.00000000000E+00 0.  1.
</event>
<event>
12    1  0.8053217E-002  0.1970841E+03  0.7818608E-02  0.1152598E+00
         21   -1    0    0  503  502  0.00000000000E+00  0.00000000000E+00  0.25236189082E+03  0.25236189082E+03  0.00000000000E+00 0.  1.
         21   -1    0    0  501  503 -0.00000000000E+00 -0.00000000000E+00 -0.15517131784E+03  0.15517131784E+03  0.00000000000E+00 0.  1.
          6    2    1    2  501    0  0.79534261671E+02 -0.49794079826E+02  0.22373285602E+02  0.19835000224E+03  0.17331188741E+03 0.  0.
         24    2    3    3    0    0  0.43220284667E+02 -0.93295969619E+02  0.44681180016E+02  0.13726930567E+03  0.79210627297E+02 0.  0.
         -6    2    1    2    0  502 -0.79534261671E+02  0.49794079826E+02  0.74817287384E+02  0.20918320642E+03  0.17133253687E+03 0.  0.
        -24    2    5    5    0    0 -0.53446821381E+02  0.55897867496E+02  0.11526333390E+03  0.16044119740E+03  0.80464945006E+02 0.  0.
          5    1    3    3  501    0  0.36313977004E+02  0.43501889792E+02 -0.22307894413E+02  0.61080696578E+02  0.47000000000E+01 0. -1.
        -13    1    4    4    0    0  0.49374060988E+02 -0.30049875283E+02 -0.29191798234E+01  0.57873262512E+02  0.00000000000E+00 0.  1.
         14    1    4    4    0    0 -0.61537763206E+01 -0.63246094336E+02  0.47600359839E+02  0.79396043154E+02  0.00000000000E+00 0. -1.
         -5    1    5    5    0  502 -0.26087440290E+02 -0.61037876695E+01 -0.40446046512E+02  0.48742009019E+02  0.47000000000E+01 0.  1.
         11    1    6    6    0    0  0.16868024310E+01 -0.14517858236E+02  0.43146096345E+02  0.45554353689E+02  0.00000000000E+00 0. -1.
        -12    1    6    6    0    0 -0.55133623812E+02  0.70415725732E+02  0.72117237551E+02  0.11488684371E+03  0.00000000000E+00 0.  1.
</event>
<event>
12    1  0.8053217E-002  0.2145468E+03  0.7818608E-02  0.1139169E+00
         21   -1    0    0  503  502  0.00000000000E+00  0.00000000000E+00  0.16203148817E+03  0.16203148817E+03  0.00000000000E+00 0.  1.
         21   -1    0    0  501  503 -0.00000000000E+00 -0.00000000000E+00 -0.27631846441E+03  0.27631846441E+03  0.00000000000E+00 0.  1.
          6    2    1    2  501    0 -0.36258285915E+01  0.12315147218E+03 -0.57717080740E+02  0.22217466129E+03  0.17564420565E+03 0.  0.
         24    2    3    3    0    0 -0.35405534988E+02 -0.30171951915E+01 -0.55095678414E+02  0.91953909821E+02  0.64477378799E+02 0.  0.
         -6    2    1    2    0  502  0.36258285915E+01 -0.12315147218E+03 -0.56569895494E+02  0.21617529128E+03  0.16838103145E+03 0.  0.
        -24    2    5    5    0    0  0.21625116977E+02  0.79209626858E+00 -0.27549841628E+02  0.87527570481E+02  0.80211026174E+02 0.  0.
          5    1    3    3  501    0  0.31779706397E+02  0.12616866737E+03 -0.26214023262E+01  0.13022075147E+03  0.47000000000E+01 0. -1.
        -11    1    4    4    0    0 -0.12223545695E+00 -0.77833155678E+01  0.12976952883E+02  0.15132622009E+02  0.00000000000E+00 0.  1.
         12    1    4    4    0    0 -0.35283299531E+02  0.47661203763E+01 -0.68072631298E+02  0.76821287812E+02  0.00000000000E+00 0. -1.
         -5    1    5    5    0  502 -0.17999288386E+02 -0.12394356845E+03 -0.29020053865E+02  0.12864772080E+03  0.47000000000E+01 0.  1.
         13    1    6    6    0    0  0.53844689014E+01 -0.38928849004E+02 -0.68838980344E+01  0.39897817513E+02  0.00000000000E+00 0. -1.
        -14    1    6    6    0    0  0.16240648076E+02  0.39720945272E+02 -0.20665943594E+02  0.47629752969E+02  0.00000000000E+00 0.  1.
</event>
<event>
12    1  0.8053217E-002  0.3650069E+03  0.7818608E-02  0.1056622E+00
         21   -1    0    0  503  502  0.00000000000E+00  0.00000000000E+00  0.16325673059E+04  0.16325673059E+04  0.00000000000E+00 0.  1.
         21   -1    0    0  501  503 -0.00000000000E+00 -0.00000000000E+00 -0.59309479847E+03  0.59309479847E+03  0.00000000000E+00 0.  1.
          6    2    1    2  501    0  0.21105501726E+03  0.24270483893E+03 -0.51371193938E+03  0.63016470983E+03  0.17250433531E+03 0.  0.
         24    2    3    3    0    0  0.10607513931E+03  0.14001853205E+03 -0.40085682685E+03  0.44489836421E+03  0.79945195892E+02 0.  0.
         -6    2    1    2    0  502 -0.21105501726E+03 -0.24270483893E+03  0.15531844468E+04  0.15954973945E+04  0.17256926433E+03 0.  0.
        -24    2    5    5    0    0 -0.15564168303E+03 -0.21106771525E+03  0.14358716893E+04  0.14618713556E+04  0.81033562663E+02 0.  0.
          5    1    3    3  501    0  0.10497987795E+03  0.10268630687E+03 -0.11285511253E+03  0.18526634562E+03  0.47000000000E+01 0. -1.
        -11    1    4    4    0    0  0.58148501729E+01  0.69939494333E+02 -0.16172082671E+03  0.17629228894E+03  0.00000000000E+00 0.  1.
         12    1    4    4    0    0  0.10026028914E+03  0.70079037720E+02 -0.23913600015E+03  0.26860607527E+03  0.00000000000E+00 0. -1.
         -5    1    5    5    0  502 -0.55413334232E+02 -0.31637123682E+02  0.11731275751E+03  0.13362603893E+03  0.47000000000E+01 0.  1.
         13    1    6    6    0    0 -0.17967654577E+02 -0.53083382714E+01  0.39439530300E+02  0.43663389888E+02  0.00000000000E+00 0. -1.
        -14    1    6    6    0    0 -0.13767402845E+03 -0.20575937697E+03  0.13964321590E+04  0.14182079657E+04  0.00000000000E+00 0.  1.
</event>
<event>
12    1  0.8053217E-002  0.2127423E+03  0.7818608E-02  0.1139621E+00
         21   -1    0    0  503  502  0.00000000000E+00  0.00000000000E+00  0.49959297472E+02  0.49959297472E+02  0.00000000000E+00 0.  1.
         21   -1    0    0  501  503 -0.00000000000E+00 -0.00000000000E+00 -0.13031966414E+04  0.13031966414E+04  0.00000000000E+00 0.  1.
          6    2    1    2  501    0  0.12457262573E+03  0.54069341114E+01 -0.10012134485E+04  0.10233448931E+04  0.17105211679E+03 0.  0.
         24    2    3    3    0    0  0.81953944830E+02  0.25616847886E+02 -0.93244123645E+03  0.93981944947E+03  0.80257499325E+02 0.  0.
         -6    2    1    2    0  502 -0.12457262573E+03 -0.54069341114E+01 -0.25202389540E+03  0.32981104579E+03  0.17237084456E+03 0.  0.
        -24    2    5    5    0    0 -0.34620646086E+01 -0.32208427650E+02 -0.88390260236E+02  0.12442325495E+03  0.81356865500E+02 0.  0.
          5    1    3    3  501    0  0.42618680903E+02 -0.20209913775E+02 -0.68772212098E+02  0.83525443630E+02  0.47000000000E+01 0. -1.
        -13    1    4    4    0    0  0.25487982539E+02  0.46192480075E+02 -0.30727786246E+03  0.31177406439E+03  0.00000000000E+00 0.  1.
         14    1    4    4    0    0  0.56465962291E+02 -0.20575632189E+02 -0.62516337399E+03  0.62804538508E+03  0.00000000000E+00 0. -1.
         -5    1    5    5    0  502 -0.12111056112E+03  0.26801493538E+02 -0.16363363516E+03  0.20538779084E+03  0.47000000000E+01 0.  1.
         11    1    6    6    0    0 -0.16455874680E+02 -0.56739905910E+02 -0.52380050026E+02  0.78954938889E+02  0.00000000000E+00 0. -1.
        -12    1    6    6    0    0  0.12993810071E+02  0.24531478260E+02 -0.36010210209E+02  0.45468316058E+02  0.00000000000E+00 0.  1.
</event>
<event>
12    1  0.8053217E-002  0.1794883E+03  0.7818608E-02  0.1168652E+00
         21   -1    0    0  503  502  0.00000000000E+00  0.00000000000E+00  0.44483012616E+03  0.44483012616E+03  0.00000000000E+00 0. -1.
         21   -1    0    0  501  503 -0.00000000000E+00 -0.00000000000E+00 -0.96119539900E+02  0.96119539900E+02  0.00000000000E+00 0. -1.
          6    2    1    2  501    0 -0.21342363620E+02 -0.44505236213E+02  0.38948271534E+02  0.18366553761E+03  0.17256839026E+03 0.  0.
         24    2    3    3    0    0  0.19599520327E+02 -0.10953154212E+02 -0.37009095833E+02  0.90963910200E+02  0.80004043650E+02 0.  0.
         -6    2    1    2    0  502  0.21342363620E+02  0.44505236213E+02  0.30976231473E+03  0.35728412845E+03  0.17106444482E+03 0.  0.
        -24    2    5    5    0    0  0.18910244782E+02  0.80293276556E+01  0.30956992820E+03  0.32042583061E+03  0.80106835013E+02 0.  0.
          5    1    3    3  501    0 -0.40941883947E+02 -0.33552082001E+02  0.75957367367E+02  0.92701627413E+02  0.47000000000E+01 0. -1.
        -13    1    4    4    0    0  0.39168733422E+02 -0.31627410919E+02 -0.92183059983E+01  0.51180660066E+02  0.00000000000E+00 0.  1.
         14    1    4    4    0    0 -0.19569213095E+02  0.20674256708E+02 -0.27790789835E+02  0.39783250134E+02  0.00000000000E+00 0. -1.
         -5    1    5    5    0  502  0.24321188381E+01  0.36475908557E+02  0.19238652986E+00  0.36858297841E+02  0.47000000000E+01 0.  1.
         13    1    6    6    0    0  0.44077344535E+02 -0.15818052049E+02  0.20409413606E+03  0.20939780191E+03  0.00000000000E+00 0. -1.
        -14    1    6    6    0    0 -0.25167099753E+02  0.23847379705E+02  0.10547579214E+03  0.11102802870E+03  0.00000000000E+00 0.  1.
</event>
<event>
12    1  0.8053217E-002  0.1915880E+03  0.7818608E-02  0.1157041E+00
         21   -1    0    0  501  502  0.00000000000E+00  0.00000000000E+00  0.22790866617E+03  0.22790866617E+03  0.00000000000E+00 0.  1.
         21   -1    0    0  502  503 -0.00000000000E+00 -0.00000000000E+00 -0.19392036238E+03  0.19392036238E+03  0.00000000000E+00 0.  1.
         -6    2    1    2    0  503  0.23987703477E+02  0.81174950961E+02 -0.69853671045E+02  0.20390904960E+03  0.17185628464E+03 0.  0.
        -24    2    3    3    0    0  0.70941895615E+02  0.75248744957E+02 -0.83540393613E+02  0.15441932894E+03  0.78557021411E+02 0.  0.
          6    2    1    2  501    0 -0.23987703477E+02 -0.81174950961E+02  0.10384197483E+03  0.21791997895E+03  0.17187547500E+03 0.  0.
         24    2    5    5    0    0  0.18451324632E+02  0.17518821747E+02  0.39630025526E+02  0.92673037623E+02  0.79814738508E+02 0.  0.
          5    1    5    5  501    0 -0.42439028109E+02 -0.98693772708E+02  0.64211949305E+02  0.12524694133E+03  0.47000000000E+01 0. -1.
        -11    1    6    6    0    0  0.31970301663E+02  0.21073252773E+02  0.58055137483E+02  0.69545532991E+02  0.00000000000E+00 0.  1.
         12    1    6    6    0    0 -0.13518977031E+02 -0.35544310260E+01 -0.18425111957E+02  0.23127504632E+02  0.00000000000E+00 0. -1.
         -5    1    3    3    0  503 -0.46954192138E+02  0.59262060037E+01  0.13686722568E+02  0.49489720666E+02  0.47000000000E+01 0.  1.
         11    1    4    4    0    0  0.23047938101E+01  0.27698074472E+02  0.95302105045E+01  0.29382312983E+02  0.00000000000E+00 0. -1.
        -12    1    4    4    0    0  0.68637101805E+02  0.47550670486E+02 -0.93070604117E+02  0.12503701595E+03  0.00000000000E+00 0.  1.
</event>
<event>
12    1  0.8053217E-002  0.2062020E+03  0.7818608E-02  0.1144975E+00
         21   -1    0    0  503  502  0.00000000000E+00  0.00000000000E+00  0.17834388582E+02  0.17834388582E+02  0.00000000000E+00 0.  1.
         21   -1    0    0  501  503 -0.00000000000E+00 -0.00000000000E+00 -0.23675081242E+04  0.23675081242E+04  0.00000000000E+00 0.  1.
          6    2    1    2  501    0 -0.61588265067E+02  0.94257225849E+02 -0.12193272649E+04  0.12363419071E+04  0.17060127022E+03 0.  0.
         24    2    3    3    0    0 -0.10892979661E+03  0.82028805593E+02 -0.92651088457E+03  0.93943404692E+03  0.74293228151E+02 0.  0.
         -6    2    1    2    0  502  0.61588265067E+02 -0.94257225849E+02 -0.11303464707E+04  0.11490006056E+04  0.17274752932E+03 0.  0.
        -24    2    5    5    0    0  0.34935151323E+01 -0.11764281085E+03 -0.75793067073E+03  0.77132679978E+03  0.81449952916E+02 0.  0.
          5    1    3    3  501    0  0.47341531539E+02  0.12228420255E+02 -0.29281638032E+03  0.29690786020E+03  0.47000000000E+01 0. -1.
        -13    1    4    4    0    0 -0.43188152953E+02  0.66273585681E+02 -0.34212207999E+03  0.35114800630E+03  0.00000000000E+00 0.  1.
         14    1    4    4    0    0 -0.65741643653E+02  0.15755219912E+02 -0.58438880458E+03  0.58828604061E+03  0.00000000000E+00 0. -1.
         -5    1    5    5    0  502  0.58094749935E+02  0.23385585004E+02 -0.37241579996E+03  0.37767380584E+03  0.47000000000E+01 0.  1.
         13    1    6    6    0    0 -0.97965367902E+01  0.95839071321E+01 -0.11337046533E+03  0.11419582224E+03  0.00000000000E+00 0. -1.
        -14    1    6    6    0    0  0.13290051923E+02 -0.12722671798E+03 -0.64456020540E+03  0.65713097754E+03  0.00000000000E+00 0.  1.
</event>
<event>
12    1  0.8053217E-002  0.2162548E+03  0.7818608E-02  0.1136870E+00
         21   -1    0    0  503  502  0.00000000000E+00  0.00000000000E+00  0.59212523249E+03  0.59212523249E+03  0.00000000000E+00 0. -1.
         21   -1    0    0  501  503 -0.00000000000E+00 -0.00000000000E+00 -0.18307357526E+03  0.18307357526E+03  0.00000000000E+00 0.  1.
          6    2    1    2  501    0 -0.12884901653E+03  0.18467068336E+02 -0.88006948567E+02  0.23347667876E+03  0.17269347079E+03 0.  0.
         24    2    3    3    0    0 -0.10957027134E+03  0.30268573182E+02 -0.12699778869E+03  0.18816309198E+03  0.79718755422E+02 0.  0.
         -6    2    1    2    0  502  0.12884901653E+03 -0.18467068336E+02  0.49705860580E+03  0.54172212900E+03  0.17161732366E+03 0.  0.
        -24    2    5    5    0    0  0.15084141975E+03  0.17520084034E+02  0.42395772849E+03  0.45719657548E+03  0.78920629949E+02 0.  0.
          5    1    3    3  501    0 -0.19278745192E+02 -0.11801504846E+02  0.38990840126E+02  0.45313586776E+02  0.47000000000E+01 0. -1.
        -11    1    4    4    0    0 -0.38782347599E+02 -0.27440876906E+02 -0.43922309423E+02  0.64701170590E+02  0.00000000000E+00 0.  1.
         12    1    4    4    0    0 -0.70787923742E+02  0.57709450088E+02 -0.83075479270E+02  0.12346192139E+03  0.00000000000E+00 0. -1.
         -5    1    5    5    0  502 -0.21992403211E+02 -0.35987152370E+02  0.73100877307E+02  0.84525553520E+02  0.47000000000E+01 0.  1.
         11    1    6    6    0    0  0.59910601952E+02  0.34325746247E+00  0.27794764529E+03  0.28433130601E+03  0.00000000000E+00 0. -1.
        -12    1    6    6    0    0  0.90930817794E+02  0.17176826571E+02  0.14601008320E+03  0.17286526947E+03  0.00000000000E+00 0.  1.
</event>
<event>
12    1  0.8053217E-002  0.3062160E+03  0.7818608E-02  0.1082246E+00
         21   -1    0    0  501  502  0.00000000000E+00  0.00000000000E+00  0.62553804740E+03  0.62553804740E+03  0.00000000000E+00 0.  1.
         21   -1    0    0  502  503 -0.00000000000E+00 -0.00000000000E+00 -0.20574642135E+03  0.20574642135E+03  0.00000000000E+00 0. -1.
         -6    2    1    2    0  503  0.23819290018E+03  0.82196487735E+02 -0.73582818323E+01  0.30571310356E+03  0.17295732736E+03 0.  0.
        -24    2    3    3    0    0  0.39158130866E+02  0.51705821794E+02 -0.26293079906E+02  0.10341348250E+03  0.76132588887E+02 0.  0.
          6    2    1    2  501    0 -0.23819290018E+03 -0.82196487735E+02  0.42714990789E+03  0.52557136518E+03  0.17400027528E+03 0.  0.
         24    2    5    5    0    0 -0.12832717182E+03 -0.11560517936E+03  0.29595599561E+03  0.35115648175E+03  0.76736580694E+02 0.  0.
          5    1    5    5  501    0 -0.10986572836E+03  0.33408691623E+02  0.13119391228E+03  0.17441488343E+03  0.47000000000E+01 0. -1.
        -11    1    6    6    0    0 -0.11593220952E+02  0.97625525033E+01  0.11195560045E+02  0.18842790880E+02  0.00000000000E+00 0.  1.
         12    1    6    6    0    0 -0.11673395087E+03 -0.12536773186E+03  0.28476043556E+03  0.33231369087E+03  0.00000000000E+00 0. -1.
         -5    1    3    3    0  503  0.19903476932E+03  0.30490665941E+02  0.18934798074E+02  0.20229962107E+03  0.47000000000E+01 0.  1.
         13    1    4    4    0    0  0.43143342693E+02  0.68851707180E+02 -0.15358779362E+02  0.82690977161E+02  0.00000000000E+00 0. -1.
        -14    1    4    4    0    0 -0.39852118268E+01 -0.17145885386E+02 -0.10934300544E+02  0.20722505335E+02  0.00000000000E+00 0.  1.
</event>
<event>
12    1  0.8053217E-002  0.1834047E+03  0.7818608E-02  0.1164633E+00
         21   -1    0    0  501  502  0.00000000000E+00  0.00000000000E+00  0.62446005503E+02  0.62446005503E+02  0.00000000000E+00 0. -1.
         21   -1    0    0  502  503 -0.00000000000E+00 -0.00000000000E+00 -0.56543736530E+03  0.56543736530E+03  0.00000000000E+00 0. -1.
         -6    2    1    2    0  503 -0.55218297907E+02 -0.31243115839E+02 -0.32091662265E+03  0.36944864075E+03  0.17169632129E+03 0.  0.
        -24    2    3    3    0    0  0.11315539609E+02 -0.62471385639E+02 -0.23045383392E+03  0.25279718334E+03  0.82260141485E+02 0.  0.
          6    2    1    2  501    0  0.55218297907E+02  0.31243115839E+02 -0.18207473715E+03  0.25843473006E+03  0.17208168724E+03 0.  0.
         24    2    5    5    0    0  0.26602081020E+01  0.70447511697E+02 -0.15791900578E+03  0.18839954736E+03  0.74739871863E+02 0.  0.
          5    1    5    5  501    0  0.52558089805E+02 -0.39204395857E+02 -0.24155731371E+02  0.70035182705E+02  0.47000000000E+01 0. -1.
        -13    1    6    6    0    0 -0.22343530889E+02  0.30665372771E+02 -0.12601865014E+03  0.13160660562E+03  0.00000000000E+00 0.  1.
         14    1    6    6    0    0  0.25003738991E+02  0.39782138926E+02 -0.31900355639E+02  0.56792941735E+02  0.00000000000E+00 0. -1.
         -5    1    3    3    0  503 -0.66533837516E+02  0.31228269799E+02 -0.90462788727E+02  0.11665145740E+03  0.47000000000E+01 0.  1.
         11    1    4    4    0    0 -0.34024542597E+02 -0.12034419868E+02 -0.79797708678E+02  0.87579512848E+02  0.00000000000E+00 0. -1.
        -12    1    4    4    0    0  0.45340082206E+02 -0.50436965771E+02 -0.15065612524E+03  0.16521767050E+03  0.00000000000E+00 0.  1.
</event>
<event>
12    1  0.8053217E-002  0.1966946E+03  0.7818608E-02  0.1152931E+00
         21   -1    0    0  503  502  0.00000000000E+00  0.00000000000E+00  0.16385945667E+03  0.16385945667E+03  0.00000000000E+00 0.  1.
         21   -1    0    0  501  503 -0.00000000000E+00 -0.00000000000E+00 -0.36653759130E+03  0.36653759130E+03  0.00000000000E+00 0. -1.
          6    2    1    2  501    0 -0.89987462640E+02  0.20526620727E+02  0.58388740636E+02  0.20352598367E+03  0.17173961513E+03 0.  0.
         24    2    3    3    0    0  0.49084497765E+01 -0.17510578823E+02 -0.71946430265E+01  0.81972156273E+02  0.79605014075E+02 0.  0.
         -6    2    1    2    0  502  0.89987462640E+02 -0.20526620727E+02 -0.26106687527E+03  0.32687106430E+03  0.17369425357E+03 0.  0.
        -24    2    5    5    0    0  0.50997983406E+02 -0.69465806116E+02 -0.22700619350E+03  0.25547468203E+03  0.79430527785E+02 0.  0.
          5    1    3    3  501    0 -0.94895912417E+02  0.38037199550E+02  0.65583383662E+02  0.12155382740E+03  0.47000000000E+01 0. -1.
        -11    1    4    4    0    0 -0.17476386290E+02 -0.34713229771E+02  0.19178331068E+02  0.43338675354E+02  0.00000000000E+00 0.  1.
         12    1    4    4    0    0  0.22384836067E+02  0.17202650948E+02 -0.26372974094E+02  0.38633480919E+02  0.00000000000E+00 0. -1.
         -5    1    5    5    0  502  0.38989479234E+02  0.48939185389E+02 -0.34060681774E+02  0.71396382264E+02  0.47000000000E+01 0.  1.
         13    1    6    6    0    0  0.38916724445E+02 -0.76115141892E+02 -0.11861969362E+03  0.14621442467E+03  0.00000000000E+00 0. -1.
        -14    1    6    6    0    0  0.12081258961E+02  0.66493357759E+01 -0.10838649987E+03  0.10926025736E+03  0.00000000000E+00 0.  1.
</event>
<event>
12    1  0.8053217E-002  0.3045414E+03  0.7818608E-02  0.1083061E+00
         21   -1    0    0  503  502  0.00000000000E+00  0.00000000000E+00  0.48616292691E+03  0.48616292691E+03  0.00000000000E+00 0.  1.
         21   -1    0    0  501  503 -0.00000000000E+00 -0.00000000000E+00 -0.27445125576E+03  0.27445125576E+03  0.00000000000E+00 0. -1.
          6    2    1    2  501    0 -0.23948988875E+03  0.73281211307E+02 -0.10451450580E+03  0.32197632881E+03  0.17326260891E+03 0.  0.
         24    2    3    3    0    0 -0.12868119072E+03 -0.34812252421E+01 -0.56443135119E+00  0.15168614353E+03  0.80233408137E+02 0.  0.
         -6    2    1    2    0  502  0.23948988875E+03 -0.73281211307E+02  0.31622617695E+03  0.43863785387E+03  0.17227486500E+03 0.  0.
        -24    2    5    5    0    0  0.62894635039E+02 -0.78592108772E+02  0.13290533671E+03  0.18399553662E+03  0.77833632143E+02 0.  0.
          5    1    3    3  501    0 -0.11080869803E+03  0.76762436549E+02 -0.10395007445E+03  0.17029018528E+03  0.47000000000E+01 0. -1.
        -11    1    4    4    0    0 -0.92867238830E+02 -0.39467581106E+02 -0.11331049104E+01  0.10091232795E+03  0.00000000000E+00 0.  1.
         12    1    4    4    0    0 -0.35813951892E+02  0.35986355864E+02  0.56867355917E+00  0.50773815575E+02  0.00000000000E+00 0. -1.
         -5    1    5    5    0  502  0.17659525371E+03  0.53108974643E+01  0.18332084024E+03  0.25464231725E+03  0.47000000000E+01 0.  1.
         13    1    6    6    0    0 -0.64006950054E+01 -0.31267890182E+02  0.69767328584E+01  0.32669935022E+02  0.00000000000E+00 0. -1.
        -14    1    6    6    0    0  0.69295330044E+02 -0.47324218590E+02  0.12592860386E+03  0.15132560160E+03  0.00000000000E+00 0.  1.
</event>
<event>
12    1  0.8053217E-002  0.1898951E+03  0.7818608E-02  0.1161498E+00
         21   -1    0    0  503  502  0.00000000000E+00  0.00000000000E+00  0.13139800285E+04  0.13139800285E+04  0.00000000000E+00 0. -1.
         21   -1    0    0  501  503 -0.00000000000E+00 -0.00000000000E+00 -0.71875407173E+02  0.71875407173E+02  0.00000000000E+00 0.  1.
          6    2    1    2  501    0 -0.30954273274E+02  0.73123734602E+02  0.73101399354E+02  0.20347959597E+03  0.17249603994E+03 0.  0.
         24    2    3    3    0    0 -0.44988060351E+02  0.35690086457E+02 -0.23243318803E+02  0.99063984547E+02  0.77302738113E+02 0.  0.
         -6    2    1    2    0  502  0.30954273274E+02 -0.73123734602E+02  0.11690032220E+04  0.11823758397E+04  0.15855234379E+03 0.  0.
        -24    2    5    5    0    0  0.12711757762E+02 -0.24133202301E+01  0.31304169782E+03  0.32329204117E+03  0.79719673894E+02 0.  0.
          5    1    3    3  501    0  0.14033787077E+02  0.37433648144E+02  0.96344718157E+02  0.10441561143E+03  0.47000000000E+01 0. -1.
        -11    1    4    4    0    0 -0.47234162875E+02  0.46482410036E+02 -0.41171570423E+02  0.78017810764E+02  0.00000000000E+00 0.  1.
         12    1    4    4    0    0  0.22461025245E+01 -0.10792323578E+02  0.17928251620E+02  0.21046173783E+02  0.00000000000E+00 0. -1.
         -5    1    5    5    0  502  0.18242515511E+02 -0.70710414371E+02  0.85596152414E+03  0.85908379852E+03  0.47000000000E+01 0.  1.
         13    1    6    6    0    0  0.32628606626E+02 -0.31366454480E+02  0.16090344195E+03  0.16714783297E+03  0.00000000000E+00 0. -1.
        -14    1    6    6    0    0 -0.19916848863E+02  0.28953134250E+02  0.15213825587E+03  0.15614420819E+03  0.00000000000E+00 0.  1.
</event>
<event>
12    1  0.8053217E-002  0.1733147E+03  0.7818608E-02  0.1174474E+00
         21   -1    0    0  501  502  0.00000000000E+00  0.00000000000E+00  0.10339149983E+03  0.10339149983E+03  0.00000000000E+00 0.  1.
         21   -1    0    0  502  503 -0.00000000000E+00 -0.00000000000E+00 -0.34045547590E+03  0.34045547590E+03  0.00000000000E+00 0.  1.
         -6    2    1    2    0  503 -0.10040875538E+02 -0.18443629461E+02 -0.33278696085E+02  0.17632792963E+03  0.17188100682E+03 0.  0.
        -24    2    3    3    0    0 -0.11239447007E+02  0.50942740057E+02  0.73498409532E+00  0.98901026758E+02  0.84020146147E+02 0.  0.
          6    2    1    2  501    0  0.10040875538E+02  0.18443629461E+02 -0.20378527998E+03  0.26751904610E+03  0.17203782445E+03 0.  0.
         24    2    5    5    0    0 -0.44297470413E+02  0.40484945163E+02 -0.17591305353E+03  0.20242352824E+03  0.80178461639E+02 0.  0.
          5    1    5    5  501    0  0.54338345950E+02 -0.22041315702E+02 -0.27872226446E+02  0.65095517861E+02  0.47000000000E+01 0. -1.
        -13    1    6    6    0    0 -0.22198639155E+02  0.61133762172E+02 -0.14625256006E+03  0.16006226221E+03  0.00000000000E+00 0.  1.
         14    1    6    6    0    0 -0.22098831258E+02 -0.20648817009E+02 -0.29660493470E+02  0.42361266031E+02  0.00000000000E+00 0. -1.
         -5    1    3    3    0  503  0.11985714693E+01 -0.69386369517E+02 -0.34013680181E+02  0.77426902868E+02  0.47000000000E+01 0.  1.
         13    1    4    4    0    0 -0.40672802414E+02  0.55789789081E+02 -0.54075963296E+00  0.69043970359E+02  0.00000000000E+00 0. -1.
        -14    1    4    4    0    0  0.29433355407E+02 -0.48470490245E+01  0.12757437283E+01  0.29857056399E+02  0.00000000000E+00 0.  1.
</event>
<event>
12    1  0.8053217E-002  0.3325421E+03  0.7818608E-02  0.1070321E+00
         21   -1    0    0  501  502  0.00000000000E+00  0.00000000000E+00  0.15933027649E+04  0.15933027649E+04  0.00000000000E+00 0. -1.
         21   -1    0    0  502  503 -0.00000000000E+00 -0.00000000000E+00 -0.20672705786E+03  0.20672705786E+03  0.00000000000E+00 0.  1.
         -6    2    1    2    0  503  0.26102491762E+03 -0.10445016314E+03 -0.40815171033E+02  0.33503753027E+03  0.17759623956E+03 0.  0.
        -24    2    3    3    0    0  0.12507273172E+03  0.17339093672E+02 -0.58762994126E+01  0.14913853975E+03  0.79145061476E+02 0.  0.
          6    2    1    2  501    0 -0.26102491762E+03  0.10445016314E+03  0.14273908781E+04  0.14649922925E+04  0.17237706940E+03 0.  0.
         24    2    5    5    0    0 -0.23358568182E+03  0.12831764790E+03  0.10637108773E+04  0.10994682831E+04  0.79510914410E+02 0.  0.
          5    1    5    5  501    0 -0.27439235802E+02 -0.23867484755E+02  0.36368000082E+03  0.36552400946E+03  0.47000000000E+01 0. -1.
        -13    1    6    6    0    0 -0.10026183401E+03  0.41961930115E+02  0.29185013352E+03  0.31143175717E+03  0.00000000000E+00 0.  1.
         14    1    6    6    0    0 -0.13332384781E+03  0.86355717781E+02  0.77186074375E+03  0.78803652589E+03  0.00000000000E+00 0. -1.
         -5    1    3    3    0  503  0.13595218590E+03 -0.12178925681E+03 -0.34938871620E+02  0.18589899052E+03  0.47000000000E+01 0.  1.
         11    1    4    4    0    0  0.36922176808E+00  0.75882584984E+00 -0.22259336900E+02  0.22275327621E+02  0.00000000000E+00 0. -1.
        -12    1    4    4    0    0  0.12470350995E+03  0.16580267822E+02  0.16383037488E+02  0.12686321213E+03  0.00000000000E+00 0.  1.
</event>
<event>
12    1  0.8053217E-002  0.1769339E+03  0.7818608E-02  0.1170941E+00
         21   -1    0    0  503  502  0.00000000000E+00  0.00000000000E+00  0.16124149182E+04  0.16124149182E+04  0.00000000000E+00 0. -1.
         21   -1    0    0  501  503 -0.00000000000E+00 -0.00000000000E+00 -0.22662250949E+02  0.22662250949E+02  0.00000000000E+00 0. -1.
          6    2    1    2  501    0  0.34786572577E+02  0.15392400770E+02  0.48361028802E+03  0.51496070121E+03  0.17279635840E+03 0.  0.
         24    2    3    3    0    0  0.89343095205E+02  0.57370341796E+01  0.35597223511E+03  0.37573712987E+03  0.80293563697E+02 0.  0.
         -6    2    1    2    0  502 -0.34786572577E+02 -0.15392400770E+02  0.11061423793E+04  0.11201164680E+04  0.17222922805E+03 0.  0.
        -24    2    5    5    0    0  0.41434405473E+02  0.20873284490E+02  0.53346784051E+03  0.54123560393E+03  0.78711740805E+02 0.  0.
          5    1    3    3  501    0 -0.54556522628E+02  0.96553665903E+01  0.12763805291E+03  0.13922357134E+03  0.47000000000E+01 0. -1.
        -11    1    4    4    0    0 -0.43018227096E+01 -0.60840047633E+01  0.13806250586E+03  0.13826343087E+03  0.00000000000E+00 0.  1.
         12    1    4    4    0    0  0.93644917915E+02  0.11821038943E+02  0.21790972925E+03  0.23747369900E+03  0.00000000000E+00 0. -1.
         -5    1    5    5    0  502 -0.76220978050E+02 -0.36265685260E+02  0.57267453876E+03  0.57888086405E+03  0.47000000000E+01 0.  1.
         11    1    6    6    0    0  0.30915723019E+02  0.20493883189E+01  0.50275495888E+03  0.50370877559E+03  0.00000000000E+00 0. -1.
        -12    1    6    6    0    0  0.10518682454E+02  0.18823896171E+02  0.30712881630E+02  0.37526828345E+02  0.00000000000E+00 0.  1.
</event>
<event>
12    1  0.8053217E-002  0.2842413E+03  0.7818608E-02  0.1093728E+00
         21   -1    0    0  503  502  0.00000000000E+00  0.00000000000E+00  0.11069903444E+04  0.11069903444E+04  0.00000000000E+00 0. -1.
         21   -1    0    0  501  503 -0.00000000000E+00 -0.00000000000E+00 -0.59421649316E+03  0.59421649316E+03  0.00000000000E+00 0.  1.
          6    2    1    2  501    0 -0.84563517173E+02 -0.20674412674E+03 -0.54088766490E+03  0.60987934456E+03  0.17175338860E+03 0.  0.
         24    2    3    3    0    0 -0.11685165083E+03 -0.15169786548E+03 -0.33199418810E+03  0.39140465700E+03  0.79441260674E+02 0.  0.
         -6    2    1    2    0  502  0.84563517173E+02  0.20674412674E+03  0.10536615162E+04  0.10913274930E+04  0.17578106843E+03 0.  0.
        -24    2    5    5    0    0  0.12306696758E+03  0.12082208378E+03  0.70299096040E+03  0.72820624353E+03  0.79652923807E+02 0.  0.
          5    1    3    3  501    0  0.32288133653E+02 -0.55046261267E+02 -0.20889347680E+03  0.21847468756E+03  0.47000000000E+01 0. -1.
        -13    1    4    4    0    0 -0.68645864228E+02 -0.12477675457E+03 -0.28618726197E+03  0.31966332613E+03  0.00000000000E+00 0.  1.
         14    1    4    4    0    0 -0.48205786597E+02 -0.26921110902E+02 -0.45806926133E+02  0.71741330873E+02  0.00000000000E+00 0. -1.
         -5    1    5    5    0  502 -0.38503450403E+02  0.85922042965E+02  0.35067055578E+03  0.36312124952E+03  0.47000000000E+01 0.  1.
         13    1    6    6    0    0  0.31150228163E+02  0.83009791330E+02  0.38334544056E+03  0.39346497807E+03  0.00000000000E+00 0. -1.
        -14    1    6    6    0    0  0.91916739413E+02  0.37812292447E+02  0.31964551984E+03  0.33474126545E+03  0.00000000000E+00 0.  1.
</event>
<event>
12    1  0.8053217E-002  0.2320975E+03  0.7818608E-02  0.1125215E+00
         21   -1    0    0  503  502  0.00000000000E+00  0.00000000000E+00  0.90952324837E+02  0.90952324837E+02  0.00000000000E+00 0.  1.
         21   -1    0    0  501  503 -0.00000000000E+00 -0.00000000000E+00 -0.62736248777E+03  0.62736248777E+03  0.00000000000E+00 0.  1.
          6    2    1    2  501    0  0.13220481078E+02 -0.15662478367E+03 -0.35402794721E+03  0.42332616719E+03  0.17077222387E+03 0.  0.
         24    2    3    3    0    0  0.67956967536E+02 -0.77128140578E+02 -0.15081532586E+03  0.19830781530E+03  0.77548872263E+02 0.  0.
         -6    2    1    2    0  502 -0.13220481078E+02  0.15662478367E+03 -0.18238221573E+03  0.29498864542E+03  0.17043744991E+03 0.  0.
        -24    2    5    5    0    0  0.87197611042E+01  0.33346863795E+02 -0.20431004427E+02  0.90222670223E+02  0.80837223614E+02 0.  0.
          5    1    3    3  501    0 -0.54736486458E+02 -0.79496643092E+02 -0.20321262134E+03  0.22501835189E+03  0.47000000000E+01 0. -1.
        -11    1    4    4    0    0  0.36772589051E+02 -0.62975257874E+02 -0.14668658643E+03  0.16381410516E+03  0.00000000000E+00 0.  1.
         12    1    4    4    0    0  0.31184378486E+02 -0.14152882704E+02 -0.41287394336E+01  0.34493710147E+02  0.00000000000E+00 0. -1.
         -5    1    5    5    0  502 -0.21940242182E+02  0.12327791988E+03 -0.16195121130E+03  0.20476597520E+03  0.47000000000E+01 0.  1.
         11    1    6    6    0    0  0.27940008588E+02 -0.16040697435E+02 -0.18587937218E+02  0.37194884919E+02  0.00000000000E+00 0. -1.
        -12    1    6    6    0    0 -0.19220247484E+02  0.49387561230E+02 -0.18430672083E+01  0.53027785304E+02  0.00000000000E+00 0.  1.
</event>
<event>
12    1  0.8053217E-002  0.2388537E+03  0.7818608E-02  0.1120648E+00
         21   -1    0    0  501  502  0.00000000000E+00  0.00000000000E+00  0.16141736532E+03  0.16141736532E+03  0.00000000000E+00 0.  1.
         21   -1    0    0  502  503 -0.00000000000E+00 -0.00000000000E+00 -0.48893990505E+03  0.48893990505E+03  0.00000000000E+00 0. -1.
         -6    2    1    2    0  503  0.16490395847E+03  0.11265466073E+02 -0.33557370453E+03  0.41189903231E+03  0.17242643475E+03 0.  0.
        -24    2    3    3    0    0  0.16714359875E+03  0.46287208382E+02 -0.31928384775E+03  0.37292483756E+03  0.83971845103E+02 0.  0.
          6    2    1    2  501    0 -0.16490395847E+03 -0.11265466073E+02  0.80511647980E+01  0.23845823806E+03  0.17168949822E+03 0.  0.
         24    2    5    5    0    0 -0.84585330170E+02  0.45622867454E+02  0.44103604952E+02  0.13353334595E+03  0.81546933700E+02 0.  0.
          5    1    5    5  501    0 -0.80318628302E+02 -0.56888333528E+02 -0.36052440154E+02  0.10492489211E+03  0.47000000000E+01 0. -1.
        -13    1    6    6    0    0 -0.47259298709E+02  0.60189472976E+02  0.36761887250E+01  0.76614152316E+02  0.00000000000E+00 0.  1.
         14    1    6    6    0    0 -0.37326031462E+02 -0.14566605522E+02  0.40427416227E+02  0.56919193633E+02  0.00000000000E+00 0. -1.
         -5    1    3    3    0  503 -0.22396402790E+01 -0.35021742308E+02 -0.16289856782E+02  0.38974194756E+02  0.47000000000E+01 0.  1.
         11    1    4    4    0    0  0.80283549062E+02  0.13566933626E+01 -0.75327942399E+02  0.11009808251E+03  0.00000000000E+00 0. -1.
        -12    1    4    4    0    0  0.86860049689E+02  0.44930515019E+02 -0.24395590535E+03  0.26282675504E+03  0.00000000000E+00 0.  1.
</event>
<event>
12    1  0.8053217E-002  0.1733079E+03  0.7818608E-02  0.1179460E+00
         21   -1    0    0  503  502  0.00000000000E+00  0.00000000000E+00  0.71000726543E+03  0.71000726543E+03  0.00000000000E+00 0. -1.
         21   -1    0    0  501  503 -0.00000000000E+00 -0.00000000000E+00 -0.83209107881E+02  0.83209107881E+02  0.00000000000E+00 0. -1.
          6    2    1    2  501    0  0.12991916965E+02  0.92551401653E+01  0.28997626172E+02  0.17571704623E+03  0.17257221818E+03 0.  0.
         24    2    3    3    0    0  0.64892327883E+02  0.23403582950E+02 -0.13309194337E+02  0.10711829881E+03  0.80860703512E+02 0.  0.
         -6    2    1    2    0  502 -0.12991916965E+02 -0.92551401653E+01  0.59780053138E+03  0.61749932708E+03  0.15390092951E+03 0.  0.
        -24    2    5    5    0    0  0.25648347159E+01 -0.46885958944E+02  0.53121629073E+03  0.53930954420E+03  0.80368933060E+02 0.  0.
          5    1    3    3  501    0 -0.51900410918E+02 -0.14148442785E+02  0.42306820509E+02  0.68598747425E+02  0.47000000000E+01 0. -1.
        -11    1    4    4    0    0  0.70120794098E+02  0.35532845179E+02  0.11075460169E+02  0.79386237279E+02  0.00000000000E+00 0.  1.
         12    1    4    4    0    0 -0.52284662152E+01 -0.12129262229E+02 -0.24384654506E+02  0.27732061527E+02  0.00000000000E+00 0. -1.
         -5    1    5    5    0  502 -0.15556751680E+02  0.37630818778E+02  0.66584240643E+02  0.78189782880E+02  0.47000000000E+01 0.  1.
         13    1    6    6    0    0  0.80520937458E+01  0.19670467427E+02  0.21910605524E+03  0.22013456554E+03  0.00000000000E+00 0. -1.
        -14    1    6    6    0    0 -0.54872590298E+01 -0.66556426371E+02  0.31211023549E+03  0.31917497866E+03  0.00000000000E+00 0.  1.
</event>
<event>
12    1  0.8053217E-002  0.1989674E+03  0.7818608E-02  0.1150882E+00
         21   -1    0    0  501  502  0.00000000000E+00  0.00000000000E+00  0.19542801642E+04  0.19542801642E+04  0.00000000000E+00 0. -1.
         21   -1    0    0  502  503 -0.00000000000E+00 -0.00000000000E+00 -0.26861367538E+02  0.26861367538E+02  0.00000000000E+00 0. -1.
         -6    2    1    2    0  503 -0.99106814012E+02  0.12459362881E+02  0.46549516494E+03  0.50574032665E+03  0.17061691919E+03 0.  0.
        -24    2    3    3    0    0 -0.10845226210E+03  0.28990678252E+01  0.21012360380E+03  0.24997586298E+03  0.81029040770E+02 0.  0.
          6    2    1    2  501    0  0.99106814012E+02 -0.12459362881E+02  0.14619236317E+04  0.14754012051E+04  0.17207735082E+03 0.  0.
         24    2    5    5    0    0  0.24160637065E+02 -0.55645088405E+02  0.78533956867E+03  0.79329416018E+03  0.94219287898E+02 0.  0.
          5    1    5    5  501    0  0.74946176946E+02  0.43185725525E+02  0.67658406304E+03  0.68210704489E+03  0.47000000000E+01 0. -1.
        -11    1    6    6    0    0  0.21092604626E+02 -0.21688687365E+02  0.60400831710E+02  0.67554108689E+02  0.00000000000E+00 0.  1.
         12    1    6    6    0    0  0.30680324393E+01 -0.33956401040E+02  0.72493873696E+03  0.72574005150E+03  0.00000000000E+00 0. -1.
         -5    1    3    3    0  503  0.93454480889E+01  0.95602950555E+01  0.25537156114E+03  0.25576446368E+03  0.47000000000E+01 0.  1.
         11    1    4    4    0    0 -0.89952037125E+01  0.22030941768E+02  0.88805211171E+02  0.91938248929E+02  0.00000000000E+00 0. -1.
        -12    1    4    4    0    0 -0.99457058388E+02 -0.19131873943E+02  0.12131839263E+03  0.15803761405E+03  0.00000000000E+00 0.  1.
</event>
<event>
12    1  0.8053217E-002  0.3137305E+03  0.7818608E-02  0.1079385E+00
         21   -1    0    0  501  502  0.00000000000E+00  0.00000000000E+00  0.27259350617E+03  0.27259350617E+03  0.00000000000E+00 0. -1.
         21   -1    0    0  502  503 -0.00000000000E+00 -0.00000000000E+00 -0.35582067759E+03  0.35582067759E+03  0.00000000000E+00 0. -1.
         -6    2    1    2    0  503  0.25159693325E+03 -0.21173217319E+02 -0.68618649213E+02  0.32114691863E+03  0.18621896352E+03 0.  0.
        -24    2    3    3    0    0  0.43569582048E+02 -0.16683534465E+02  0.16797974794E+02  0.96172196147E+02  0.82403097954E+02 0.  0.
          6    2    1    2  501    0 -0.25159693325E+03  0.21173217319E+02 -0.14608522199E+02  0.30726726513E+03  0.17450054827E+03 0.  0.
         24    2    5    5    0    0 -0.10712128474E+03  0.74325770781E+02  0.60261186129E+01  0.15187651459E+03  0.77658687421E+02 0.  0.
          5    1    5    5  501    0 -0.14447564851E+03 -0.53152553462E+02 -0.20634640811E+02  0.15539075054E+03  0.47000000000E+01 0. -1.
        -11    1    6    6    0    0  0.69714478499E+01 -0.67453113989E+00 -0.12261388210E+02  0.14120825692E+02  0.00000000000E+00 0.  1.
         12    1    6    6    0    0 -0.11409273259E+03  0.75000301921E+02  0.18287506823E+02  0.13775568890E+03  0.00000000000E+00 0. -1.
         -5    1    3    3    0  503  0.20802735120E+03 -0.44896828541E+01 -0.85416624006E+02  0.22497472248E+03  0.47000000000E+01 0.  1.
         11    1    4    4    0    0  0.29604021235E+02 -0.49432375528E+02  0.18536870110E+02  0.60527459695E+02  0.00000000000E+00 0. -1.
        -12    1    4    4    0    0  0.13965560814E+02  0.32748841063E+02 -0.17388953168E+01  0.35644736452E+02  0.00000000000E+00 0.  1.
</event>
<event>
12    1  0.8053217E-002  0.2300426E+03  0.7818608E-02  0.1126731E+00
         21   -1    0    0  503  502  0.00000000000E+00  0.00000000000E+00  0.26451520221E+02  0.26451520221E+02  0.00000000000E+00 0.  1.
         21   -1    0    0  501  503 -0.00000000000E+00 -0.00000000000E+00 -0.21258625214E+04  0.21258625214E+04  0.00000000000E+00 0.  1.
          6    2    1    2  501    0  0.12046903518E+03 -0.94844408732E+02 -0.13185593512E+04  0.13384761309E+04  0.17149734743E+03 0.  0.
         24    2    3    3    0    0  0.62534363608E+02 -0.10001688179E+03 -0.56965888310E+03  0.58730558988E+03  0.80639255543E+02 0.  0.
         -6    2    1    2    0  502 -0.12046903518E+03  0.94844408732E+02 -0.78085164997E+03  0.81383791067E+03  0.17057137881E+03 0.  0.
        -24    2    5    5    0    0 -0.10545803231E+03 -0.91078979976E+00 -0.44464178027E+03  0.46390426733E+03  0.79866328130E+02 0.  0.
          5    1    3    3  501    0  0.57934671568E+02  0.51724730610E+01 -0.74890046806E+03  0.75117054102E+03  0.47000000000E+01 0. -1.
        -13    1    4    4    0    0  0.60787505403E+02 -0.41062933658E+02 -0.42155117356E+03  0.42788629011E+03  0.00000000000E+00 0.  1.
         14    1    4    4    0    0  0.17468582052E+01 -0.58953948135E+02 -0.14810770954E+03  0.15941929977E+03  0.00000000000E+00 0. -1.
         -5    1    5    5    0  502 -0.15011002868E+02  0.95755198532E+02 -0.33620986970E+03  0.34993364334E+03  0.47000000000E+01 0.  1.
         13    1    6    6    0    0 -0.30625123631E+01 -0.25533326585E+02 -0.11533734999E+03  0.11816951405E+03  0.00000000000E+00 0. -1.
        -14    1    6    6    0    0 -0.10239551994E+03  0.24622536785E+02 -0.32930443028E+03  0.34573475328E+03  0.00000000000E+00 0.  1.
</event>
<event>
12    1  0.8053217E-002  0.2347800E+03  0.7818608E-02  0.1123498E+00
         21   -1    0    0  503  502  0.00000000000E+00  0.00000000000E+00  0.70569746274E+03  0.70569746274E+03  0.00000000000E+00 0. -1.
         21   -1    0    0  501  503 -0.00000000000E+00 -0.00000000000E+00 -0.81245411746E+02  0.81245411746E+02  0.00000000000E+00 0.  1.
          6    2    1    2  501    0  0.14294957259E+03 -0.70245576417E+02  0.23143885501E+03  0.32967499997E+03  0.17248953790E+03 0.  0.
         24    2    3    3    0    0  0.11262008193E+03  0.17119086776E+02  0.16344020388E+03  0.21479084556E+03  0.80287365791E+02 0.  0.
         -6    2    1    2    0  502 -0.14294957259E+03  0.70245576417E+02  0.39301319598E+03  0.45726787451E+03  0.17107166784E+03 0.  0.
        -24    2    5    5    0    0 -0.10148158533E+03  0.72600547146E+02  0.38787414446E+03  0.41515327247E+03  0.79602362376E+02 0.  0.
          5    1    3    3  501    0  0.30329490658E+02 -0.87364663194E+02  0.67998651128E+02  0.11488415441E+03  0.47000000000E+01 0. -1.
        -11    1    4    4    0    0  0.10217481762E+02 -0.29027000660E+01 -0.85427945904E+01  0.13630918554E+02  0.00000000000E+00 0.  1.
         12    1    4    4    0    0  0.10240260017E+03  0.20021786842E+02  0.17198299847E+03  0.20115992701E+03  0.00000000000E+00 0. -1.
         -5    1    5    5    0  502 -0.41467987268E+02 -0.23549707282E+01  0.51390515275E+01  0.42114602049E+02  0.47000000000E+01 0.  1.
         13    1    6    6    0    0 -0.88646275051E+02  0.87346437988E+02  0.29382120873E+03  0.31909005783E+03  0.00000000000E+00 0. -1.
        -14    1    6    6    0    0 -0.12835310275E+02 -0.14745890842E+02  0.94052935729E+02  0.96063214634E+02  0.00000000000E+00 0.  1.
</event>
<event>
12    1  0.8053217E-002  0.1838624E+03  0.7818608E-02  0.1164247E+00
         21   -1    0    0  501  502  0.00000000000E+00  0.00000000000E+00  0.98055065178E+03  0.98055065178E+03  0.00000000000E+00 0. -1.
         21   -1    0    0  502  503 -0.00000000000E+00 -0.00000000000E+00 -0.77815831183E+02  0.77815831183E+02  0.00000000000E+00 0. -1.
         -6    2    1    2    0  503  0.15949532920E+02 -0.61347808476E+02  0.55666517233E+02  0.19157348239E+03  0.17199911863E+03 0.  0.
        -24    2    3    3    0    0 -0.43788249633E+02  0.47451396159E+01  0.43158296002E+02  0.10148782287E+03  0.80605288424E+02 0.  0.
          6    2    1    2  501    0 -0.15949532920E+02  0.61347808476E+02  0.84706830336E+03  0.86679300057E+03  0.17259042290E+03 0.  0.
         24    2    5    5    0    0  0.48536936286E+02  0.66282921460E+02  0.62546167033E+03  0.63589378045E+03  0.80058348080E+02 0.  0.
          5    1    5    5  501    0 -0.64486469206E+02 -0.49351129846E+01  0.22160663303E+03  0.23089922012E+03  0.47000000000E+01 0. -1.
        -11    1    6    6    0    0 -0.26137455498E+01 -0.10886889132E+02  0.16534829248E+02  0.19968890782E+02  0.00000000000E+00 0.  1.
         12    1    6    6    0    0  0.51150681836E+02  0.77169810592E+02  0.60892684109E+03  0.61592488967E+03  0.00000000000E+00 0. -1.
         -5    1    3    3    0  503  0.59737782553E+02 -0.66092948092E+02  0.12508221231E+02  0.90085659514E+02  0.47000000000E+01 0.  1.
         13    1    4    4    0    0 -0.25640083822E+02 -0.34978072816E+02  0.53025072690E+01  0.43692059458E+02  0.00000000000E+00 0. -1.
        -14    1    4    4    0    0 -0.18148165812E+02  0.39723212432E+02  0.37855788733E+02  0.57795763416E+02  0.00000000000E+00 0.  1.
</event>
<event>
12    1  0.8053217E-002  0.2007202E+03  0.7818608E-02  0.1149471E+00
         21   -1    0    0  503  502  0.00000000000E+00  0.00000000000E+00  0.79741204601E+02  0.79741204601E+02  0.00000000000E+00 0.  1.
         21   -1    0    0  501  503 -0.00000000000E+00 -0.00000000000E+00 -0.16397242711E+04  0.16397242711E+04  0.00000000000E+00 0.  1.
          6    2    1    2  501    0  0.70579757294E+02  0.71345956689E+02 -0.14973309666E+04  0.15107245326E+04  0.17382992296E+03 0.  0.
         24    2    3    3    0    0  0.19688631287E+02 -0.11046664852E+01 -0.32988891692E+03  0.33992052299E+03  0.79563823142E+02 0.  0.
         -6    2    1    2    0  502 -0.70579757294E+02 -0.71345956689E+02 -0.62652099917E+02  0.20874094314E+03  0.17197601008E+03 0.  0.
        -24    2    5    5    0    0 -0.55926582013E+01  0.20723997316E+02 -0.54526465236E+02  0.95655508987E+02  0.75604755789E+02 0.  0.
          5    1    3    3  501    0  0.50891126007E+02  0.72450623175E+02 -0.11674420497E+04  0.11708040096E+04  0.47000000000E+01 0. -1.
        -13    1    4    4    0    0 -0.23901259668E+02 -0.10902259672E+02 -0.21584055223E+03  0.21743337707E+03  0.00000000000E+00 0.  1.
         14    1    4    4    0    0  0.43589890955E+02  0.97975931871E+01 -0.11404836469E+03  0.12248714592E+03  0.00000000000E+00 0. -1.
         -5    1    5    5    0  502 -0.64987099093E+02 -0.92069954005E+02 -0.81256346810E+01  0.11308543415E+03  0.47000000000E+01 0.  1.
         11    1    6    6    0    0  0.34122249757E+02  0.94518827679E+01 -0.14844557233E+02  0.38393057911E+02  0.00000000000E+00 0. -1.
        -12    1    6    6    0    0 -0.39714907958E+02  0.11272114548E+02 -0.39681908002E+02  0.57262451076E+02  0.00000000000E+00 0.  1.
</event>
<event>
12    1  0.8053217E-002  0.2139527E+03  0.7818608E-02  0.1138667E+00
         21   -1    0    0  501  502  0.00000000000E+00  0.00000000000E+00  0.89730097453E+03  0.89730097453E+03  0.00000000000E+00 0.  1.
         21   -1    0    0  502  503 -0.00000000000E+00 -0.00000000000E+00 -0.73604459470E+02  0.73604459470E+02  0.00000000000E+00 0.  1.
         -6    2    1    2    0  503  0.10593608172E+03 -0.65721570296E+02  0.14083335541E+03  0.25530926961E+03  0.17264707047E+03 0.  0.
        -24    2    3    3    0    0  0.32647899550E+02  0.11645343573E+02  0.11644465497E+03  0.14588488606E+03  0.80756070587E+02 0.  0.
          6    2    1    2  501    0 -0.10593608172E+03  0.65721570296E+02  0.68286315965E+03  0.71559616439E+03  0.17387926117E+03 0.  0.
         24    2    5    5    0    0 -0.19244522213E+01  0.29694596121E+02  0.44171686386E+03  0.45047357404E+03  0.83229685423E+02 0.  0.
          5    1    5    5  501    0 -0.10401162950E+03  0.36026974175E+02  0.24114629580E+03  0.26512259035E+03  0.47000000000E+01 0. -1.
        -11    1    6    6    0    0  0.13605585934E+02  0.51705085604E+02  0.37040003077E+03  0.37423884171E+03  0.00000000000E+00 0.  1.
         12    1    6    6    0    0 -0.15530038155E+02 -0.22010489483E+02  0.71316833086E+02  0.76234732332E+02  0.00000000000E+00 0. -1.
         -5    1    3    3    0  503  0.73288182167E+02 -0.77366913869E+02  0.24388700434E+02  0.10942438355E+03  0.47000000000E+01 0.  1.
         11    1    4    4    0    0  0.38133268464E+02 -0.23916289137E+02  0.35581740525E+02  0.57377655134E+02  0.00000000000E+00 0. -1.
        -12    1    4    4    0    0 -0.54853689141E+01  0.35561632710E+02  0.80862914446E+02  0.88507230924E+02  0.00000000000E+00 0.  1.
</event>
<event>
12    1  0.8053217E-002  0.2162344E+03  0.7818608E-02  0.1137061E+00
         21   -1    0    0  503  502  0.00000000000E+00  0.00000000000E+00  0.87890695236E+03  0.87890695236E+03  0.00000000000E+00 0.  1.
         21   -1    0    0  501  503 -0.00000000000E+00 -0.00000000000E+00 -0.85404368668E+02  0.85404368668E+02  0.00000000000E+00 0. -1.
          6    2    1    2  501    0  0.64911020203E+02  0.10923108499E+03  0.97669407402E+02  0.23565423958E+03  0.17276787033E+03 0.  0.
         24    2    3    3    0    0  0.83060244888E+02  0.13652912358E+03  0.96647119505E+02  0.20252249740E+03  0.78329371094E+02 0.  0.
         -6    2    1    2    0  502 -0.64911020203E+02 -0.10923108499E+03  0.69583317628E+03  0.72865708144E+03  0.17496417532E+03 0.  0.
        -24    2    5    5    0    0  0.26545521568E+01 -0.11531768408E+03  0.55389210128E+03  0.57126739935E+03  0.79023836817E+02 0.  0.
          5    1    3    3  501    0 -0.18149224684E+02 -0.27298038594E+02  0.10222878969E+01  0.33131742185E+02  0.47000000000E+01 0. -1.
        -11    1    4    4    0    0  0.57589972303E+02  0.35811701922E+02  0.64961182056E+02  0.93909733673E+02  0.00000000000E+00 0.  1.
         12    1    4    4    0    0  0.25470272584E+02  0.10071742166E+03  0.31685937449E+02  0.10861276372E+03  0.00000000000E+00 0. -1.
         -5    1    5    5    0  502 -0.67565572360E+02  0.60865990904E+01  0.14194107500E+03  0.15738968209E+03  0.47000000000E+01 0.  1.
         11    1    6    6    0    0  0.13897056140E+02 -0.43677359330E+02  0.82916365375E+02  0.94741561811E+02  0.00000000000E+00 0. -1.
        -12    1    6    6    0    0 -0.11242503983E+02 -0.71640324750E+02  0.47097573591E+03  0.47652583754E+03  0.00000000000E+00 0.  1.
</event>
<event>
12    1  0.8053217E-002  0.2540847E+03  0.7818608E-02  0.1111049E+00
         21   -1    0    0  503  502  0.00000000000E+00  0.00000000000E+00  0.68846679158E+03  0.68846679158E+03  0.00000000000E+00 0. -1.
         21   -1    0    0  501  503 -0.00000000000E+00 -0.00000000000E+00 -0.17363772877E+03  0.17363772877E+03  0.00000000000E+00 0.  1.
          6    2    1    2  501    0 -0.18518353964E+03  0.23586169036E+02 -0.36744040002E+02  0.25482210646E+03  0.16951380694E+03 0.  0.
         24    2    3    3    0    0 -0.80477561496E+02 -0.50215907132E+02 -0.14548827502E+02  0.12472673467E+03  0.79666898554E+02 0.  0.
         -6    2    1    2    0  502  0.18518353964E+03 -0.23586169036E+02  0.55157310280E+03  0.60728241389E+03  0.17236528584E+03 0.  0.
        -24    2    5    5    0    0  0.10406557585E+03  0.81892347663E+01  0.46903859367E+03  0.48718314023E+03  0.80333692364E+02 0.  0.
          5    1    3    3  501    0 -0.10470597814E+03  0.73802076167E+02 -0.22195212500E+02  0.13009537180E+03  0.47000000000E+01 0. -1.
        -11    1    4    4    0    0 -0.71481061249E+02 -0.14139596625E+02 -0.36554906841E+02  0.81521356246E+02  0.00000000000E+00 0.  1.
         12    1    4    4    0    0 -0.89965002475E+01 -0.36076310507E+02  0.22006079339E+02  0.43205378420E+02  0.00000000000E+00 0. -1.
         -5    1    5    5    0  502  0.81117963790E+02 -0.31775403802E+02  0.82534509132E+02  0.12009927366E+03  0.47000000000E+01 0.  1.
         11    1    6    6    0    0  0.31748567314E+02  0.40927501862E+02  0.16406392553E+03  0.17204651579E+03  0.00000000000E+00 0. -1.
        -12    1    6    6    0    0  0.72317008532E+02 -0.32738267096E+02  0.30497466814E+03  0.31513662444E+03  0.00000000000E+00 0.  1.
</event>
<event>
12    1  0.8053217E-002  0.1807201E+03  0.7818608E-02  0.1168661E+00
         21   -1    0    0  501  502  0.00000000000E+00  0.00000000000E+00  0.91430945056E+03  0.91430945056E+03  0.00000000000E+00 0.  1.
         21   -1    0    0  502  503 -0.00000000000E+00 -0.00000000000E+00 -0.12337205280E+03  0.12337205280E+03  0.00000000000E+00 0.  1.
         -6    2    1    2    0  503 -0.33609723920E+02 -0.41428101725E+02 -0.42950419007E+02  0.18575380313E+03  0.17266683448E+03 0.  0.
        -24    2    3    3    0    0 -0.37363325554E+01 -0.60260743539E+02 -0.82325555808E+02  0.13265409214E+03  0.84701202051E+02 0.  0.
          6    2    1    2  501    0  0.33609723920E+02  0.41428101725E+02  0.83388781677E+03  0.85192770023E+03  0.16603016086E+03 0.  0.
         24    2    5    5    0    0  0.67963334841E+02  0.24393569216E+02  0.77235120773E+03  0.77926966466E+03  0.74301824194E+02 0.  0.
          5    1    5    5  501    0 -0.34353610922E+02  0.17034532510E+02  0.61536609045E+02  0.72658035577E+02  0.47000000000E+01 0. -1.
        -11    1    6    6    0    0  0.21245775063E+02  0.44488176491E+02  0.28084370958E+03  0.28513815952E+03  0.00000000000E+00 0.  1.
         12    1    6    6    0    0  0.46717559778E+02 -0.20094607275E+02  0.49150749815E+03  0.49413150514E+03  0.00000000000E+00 0. -1.
         -5    1    3    3    0  503 -0.29873391364E+02  0.18832641814E+02  0.39375136802E+02  0.53099710992E+02  0.47000000000E+01 0.  1.
         11    1    4    4    0    0  0.26490546281E+02 -0.40424219730E+02 -0.66508641409E+01  0.48786274472E+02  0.00000000000E+00 0. -1.
        -12    1    4    4    0    0 -0.30226878837E+02 -0.19836523809E+02 -0.75674691668E+02  0.83867817666E+02  0.00000000000E+00 0.  1.
</event>
<event>
12    1  0.8053217E-002  0.1787697E+03  0.7818608E-02  0.1172390E+00
         21   -1    0    0  501  502  0.00000000000E+00  0.00000000000E+00  0.22663904739E+03  0.22663904739E+03  0.00000000000E+00 0. -1.
         21   -1    0    0  502  503 -0.00000000000E+00 -0.00000000000E+00 -0.16635331044E+03  0.16635331044E+03  0.00000000000E+00 0. -1.
         -6    2    1    2    0  503 -0.44018327322E+02  0.18325573793E+02 -0.59861155003E+02  0.18852576504E+03  0.17229383742E+03 0.  0.
        -24    2    3    3    0    0 -0.17798628229E+02  0.71055846211E+02 -0.68846891924E+02  0.12876969658E+03  0.80473696216E+02 0.  0.
          6    2    1    2  501    0  0.44018327322E+02 -0.18325573793E+02  0.12014689195E+03  0.20446659279E+03  0.15842307953E+03 0.  0.
         24    2    5    5    0    0  0.76004651782E+02 -0.30091382163E+02  0.12615455256E+03  0.16954179952E+03  0.78404414933E+02 0.  0.
          5    1    5    5  501    0 -0.31986324461E+02  0.11765808370E+02 -0.60076606057E+01  0.34924793271E+02  0.47000000000E+01 0. -1.
        -11    1    6    6    0    0  0.43936071374E+01  0.12632429897E+02 -0.48691810164E+01  0.14233446264E+02  0.00000000000E+00 0.  1.
         12    1    6    6    0    0  0.71611044645E+02 -0.42723812060E+02  0.13102373357E+03  0.15530835326E+03  0.00000000000E+00 0. -1.
         -5    1    3    3    0  503 -0.26219699093E+02 -0.52730272418E+02  0.89857369212E+01  0.59756068460E+02  0.47000000000E+01 0.  1.
         11    1    4    4    0    0 -0.33264413234E+02  0.30910820489E+02 -0.72550409889E+02  0.85589496938E+02  0.00000000000E+00 0. -1.
        -12    1    4    4    0    0  0.15465785005E+02  0.40145025722E+02  0.37035179642E+01  0.43180199645E+02  0.00000000000E+00 0.  1.
</event>
<event>
12    1  0.8053217E-002  0.1947954E+03  0.7818608E-02  0.1154641E+00
         21   -1    0    0  503  502  0.00000000000E+00  0.00000000000E+00  0.41606336910E+03  0.41606336910E+03  0.00000000000E+00 0. -1.
         21   -1    0    0  501  503 -0.00000000000E+00 -0.00000000000E+00 -0.10049735886E+03  0.10049735886E+03  0.00000000000E+00 0.  1.
          6    2    1    2  501    0 -0.44933932385E+02 -0.74962204289E+02  0.24088524720E+03  0.30979175998E+03  0.17408860354E+03 0.  0.
         24    2    3    3    0    0 -0.99175575965E+01 -0.88934564476E+02  0.71720247802E+02  0.13641280978E+03  0.73871144698E+02 0.  0.
         -6    2    1    2    0  502  0.44933932385E+02  0.74962204289E+02  0.74680763047E+02  0.20676896798E+03  0.17186564345E+03 0.  0.
        -24    2    5    5    0    0 -0.33103118760E+02  0.30483532023E+01  0.31503423676E+02  0.92105303447E+02  0.79911277621E+02 0.  0.
          5    1    3    3  501    0 -0.35016374788E+02  0.13972360187E+02  0.16916499940E+03  0.17337895020E+03  0.47000000000E+01 0. -1.
        -11    1    4    4    0    0 -0.37360270816E+02 -0.54841570110E+02  0.21401341494E+02  0.69723776901E+02  0.00000000000E+00 0.  1.
         12    1    4    4    0    0  0.27442713220E+02 -0.34092994366E+02  0.50318906308E+02  0.66689032875E+02  0.00000000000E+00 0. -1.
         -5    1    5    5    0  502  0.78037051144E+02  0.71913851087E+02  0.43177339372E+02  0.11466366454E+03  0.47000000000E+01 0.  1.
         13    1    6    6    0    0 -0.29325294491E+01 -0.29434087353E+02  0.37069394512E+02  0.47424732333E+02  0.00000000000E+00 0. -1.
        -14    1    6    6    0    0 -0.30170589310E+02  0.32482440556E+02 -0.55659708366E+01  0.44680571115E+02  0.00000000000E+00 0.  1.
</event>
<event>
12    1  0.8053217E-002  0.2425564E+03  0.7818608E-02  0.1118601E+00
         21   -1    0    0  501  502  0.00000000000E+00  0.00000000000E+00  0.21876856788E+03  0.21876856788E+03  0.00000000000E+00 0.  1.
         21   -1    0    0  502  503 -0.00000000000E+00 -0.00000000000E+00 -0.40231040073E+03  0.40231040073E+03  0.00000000000E+00 0. -1.
         -6    2    1    2    0  503 -0.17931054511E+02 -0.17037900761E+03 -0.27318008098E+03  0.36532311996E+03  0.17170642499E+03 0.  0.
        -24    2    3    3    0    0 -0.49612223865E+02 -0.53221595210E+02 -0.68254106983E+02  0.12710829970E+03  0.78765384403E+02 0.  0.
          6    2    1    2  501    0  0.17931054511E+02  0.17037900761E+03  0.89638248127E+02  0.25575584865E+03  0.16740821259E+03 0.  0.
         24    2    5    5    0    0 -0.15460397037E+02  0.19215412256E+02  0.31213642689E+02  0.90223537253E+02  0.80979869349E+02 0.  0.
          5    1    5    5  501    0  0.33391451548E+02  0.15116359535E+03  0.58424605438E+02  0.16553231140E+03  0.47000000000E+01 0. -1.
        -13    1    6    6    0    0 -0.22669948867E+02  0.35740475170E+02  0.49102319628E+02  0.64825503776E+02  0.00000000000E+00 0.  1.
         14    1    6    6    0    0  0.72095518303E+01 -0.16525062914E+02 -0.17888676938E+02  0.25398033477E+02  0.00000000000E+00 0. -1.
         -5    1    3    3    0  503  0.31681169354E+02 -0.11715741240E+03 -0.20492597399E+03  0.23821482025E+03  0.47000000000E+01 0.  1.
         11    1    4    4    0    0 -0.33492632329E+02 -0.29851183335E+02 -0.83568987629E+02  0.94850541697E+02  0.00000000000E+00 0. -1.
        -12    1    4    4    0    0 -0.16119591536E+02 -0.23370411875E+02  0.15314880646E+02  0.32257758008E+02  0.00000000000E+00 0.  1.
</event>
<event>
12    1  0.8053217E-002  0.1810514E+03  0.7818608E-02  0.1166853E+00
         21   -1    0    0  503  502  0.00000000000E+00  0.00000000000E+00  0.51617651703E+02  0.51617651703E+02  0.00000000000E+00 0.  1.
         21   -1    0    0  501  503 -0.00000000000E+00 -0.00000000000E+00 -0.21306826055E+04  0.21306826055E+04  0.00000000000E+00 0. -1.
          6    2    1    2  501    0 -0.19038211333E+02  0.52718124595E+02 -0.19542389145E+04  0.19626077882E+04  0.17215673403E+03 0.  0.
         24    2    3    3    0    0  0.11736864564E+02  0.74342319710E+02 -0.18145701848E+04  0.18178868320E+04  0.79893953045E+02 0.  0.
         -6    2    1    2    0  502  0.19038211333E+02 -0.52718124595E+02 -0.12482603931E+03  0.21969246905E+03  0.17187666135E+03 0.  0.
        -24    2    5    5    0    0 -0.44203771131E+02 -0.61036699612E+02 -0.47475038714E+02  0.11932307964E+03  0.79401926634E+02 0.  0.
          5    1    3    3  501    0 -0.30775075897E+02 -0.21624195115E+02 -0.13966872967E+03  0.14472095618E+03  0.47000000000E+01 0. -1.
        -11    1    4    4    0    0 -0.17378908616E+02  0.70453014376E+01 -0.99611760874E+02  0.10136155899E+03  0.00000000000E+00 0.  1.
         12    1    4    4    0    0  0.29115773180E+02  0.67297018272E+02 -0.17149584239E+04  0.17165252730E+04  0.00000000000E+00 0. -1.
         -5    1    5    5    0  502  0.63241982465E+02  0.83185750174E+01 -0.77351000594E+02  0.10036938940E+03  0.47000000000E+01 0.  1.
         13    1    6    6    0    0 -0.50277110818E+01 -0.25365185222E+02 -0.59602001810E+02  0.64969755424E+02  0.00000000000E+00 0. -1.
        -14    1    6    6    0    0 -0.39176060049E+02 -0.35671514390E+02  0.12126963096E+02  0.54353324220E+02  0.00000000000E+00 0.  1.
</event>
<event>
12    1  0.8053217E-002  0.2917318E+03  0.7818608E-02  0.1089583E+00
         21   -1    0    0  501  502  0.00000000000E+00  0.00000000000E+00  0.11225833311E+03  0.11225833311E+03  0.00000000000E+00 0.  1.
         21   -1    0    0  502  503 -0.00000000000E+00 -0.00000000000E+00 -0.15923828125E+04  0.15923828125E+04  0.00000000000E+00 0.  1.
         -6    2    1    2    0  503  0.23400264504E+03  0.69501419196E+01 -0.13585983813E+04  0.13895672111E+04  0.17407449538E+03 0.  0.
        -24    2    3    3    0    0  0.13163795296E+03  0.56528213194E+02 -0.56295255323E+03  0.58581918517E+03  0.75792816204E+02 0.  0.
          6    2    1    2  501    0 -0.23400264504E+03 -0.69501419196E+01 -0.12152609811E+03  0.31507393459E+03  0.17232947914E+03 0.  0.
         24    2    5    5    0    0 -0.14302293562E+03 -0.56859656510E+02 -0.80604842753E+02  0.20342758977E+03  0.10581617529E+03 0.  0.
          5    1    5    5  501    0 -0.90979709412E+02  0.49909514591E+02 -0.40921255355E+02  0.11164634482E+03  0.47000000000E+01 0. -1.
        -11    1    6    6    0    0 -0.12372695971E+03  0.13983596694E+01 -0.66437638783E+02  0.14044314087E+03  0.00000000000E+00 0.  1.
         12    1    6    6    0    0 -0.19295975912E+02 -0.58258016180E+02 -0.14167203970E+02  0.62984448906E+02  0.00000000000E+00 0. -1.
         -5    1    3    3    0  503  0.10236469208E+03 -0.49578071274E+02 -0.79564582810E+03  0.80374802588E+03  0.47000000000E+01 0.  1.
         11    1    4    4    0    0 -0.70871575667E+01  0.97047538463E+01 -0.87840534682E+02  0.88658725362E+02  0.00000000000E+00 0. -1.
        -12    1    4    4    0    0  0.13872511052E+03  0.46823459348E+02 -0.47511201854E+03  0.49716045981E+03  0.00000000000E+00 0.  1.
</event>
<event>
12    1  0.8053217E-002  0.2180492E+03  0.7818608E-02  0.1137143E+00
         21   -1    0    0  501  502  0.00000000000E+00  0.00000000000E+00  0.14598530908E+04  0.14598530908E+04  0.00000000000E+00 0. -1.
         21   -1    0    0  502  503 -0.00000000000E+00 -0.00000000000E+00 -0.11407666589E+03  0.11407666589E+03  0.00000000000E+00 0.  1.
         -6    2    1    2    0  503  0.10900975697E+03 -0.77919329488E+02 -0.18812857739E+01  0.20874597733E+03  0.16005247513E+03 0.  0.
        -24    2    3    3    0    0  0.69702698837E+02  0.13081467774E+02  0.14143888353E+02  0.10822191988E+03  0.80513001066E+02 0.  0.
          6    2    1    2  501    0 -0.10900975697E+03  0.77919329488E+02  0.13476577107E+04  0.13651837794E+04  0.17202004891E+03 0.  0.
         24    2    5    5    0    0 -0.21033600804E+02 -0.20643191644E+02  0.57309108519E+03  0.57941668793E+03  0.80135838505E+02 0.  0.
          5    1    5    5  501    0 -0.87976156162E+02  0.98562521133E+02  0.77456662549E+03  0.78576709142E+03  0.47000000000E+01 0. -1.
        -11    1    6    6    0    0  0.19507230563E+02  0.78470828771E+01  0.36110074699E+03  0.36171239712E+03  0.00000000000E+00 0.  1.
         12    1    6    6    0    0 -0.40540831367E+02 -0.28490274522E+02  0.21199033820E+03  0.21770429081E+03  0.00000000000E+00 0. -1.
         -5    1    3    3    0  503  0.39307058129E+02 -0.91000797263E+02 -0.16025174126E+02  0.10052405745E+03  0.47000000000E+01 0.  1.
         11    1    4    4    0    0  0.87583523297E+02  0.15628510585E+02  0.88793776898E+01  0.89408988611E+02  0.00000000000E+00 0. -1.
        -12    1    4    4    0    0 -0.17880824460E+02 -0.25470428103E+01  0.52645106628E+01  0.18812931270E+02  0.00000000000E+00 0.  1.
</event>
<event>
12    1  0.8053217E-002  0.1895529E+03  0.7818608E-02  0.1159042E+00
         21   -1    0    0  501  502  0.00000000000E+00  0.00000000000E+00  0.12122792268E+03  0.12122792268E+03  0.00000000000E+00 0.  1.
         21   -1    0    0  502  503 -0.00000000000E+00 -0.00000000000E+00 -0.10608487262E+04  0.10608487262E+04  0.00000000000E+00 0.  1.
         -6    2    1    2    0  503 -0.80418211935E+02  0.28229411556E+01 -0.97166656197E+03  0.98983402416E+03  0.17076425253E+03 0.  0.
        -24    2    3    3    0    0 -0.52990358771E+02  0.47424929113E+02 -0.34886752982E+03  0.36482014520E+03  0.79549248612E+02 0.  0.
          6    2    1    2  501    0  0.80418211935E+02 -0.28229411556E+01  0.32045758443E+02  0.19224262471E+03  0.17162528460E+03 0.  0.
         24    2    5    5    0    0  0.13356571516E+02  0.52625728157E+02  0.43767857460E+02  0.10431472158E+03  0.77576223965E+02 0.  0.
          5    1    5    5  501    0  0.67061640419E+02 -0.55448669312E+02 -0.11722099017E+02  0.87927903134E+02  0.47000000000E+01 0. -1.
        -11    1    6    6    0    0  0.21828921414E+02 -0.13611472398E+02  0.25725910697E+01  0.25853282495E+02  0.00000000000E+00 0.  1.
         12    1    6    6    0    0 -0.84723498974E+01  0.66237200555E+02  0.41195266390E+02  0.78461439084E+02  0.00000000000E+00 0. -1.
         -5    1    3    3    0  503 -0.27427853164E+02 -0.44601987958E+02 -0.62279903214E+03  0.62501387896E+03  0.47000000000E+01 0.  1.
         13    1    4    4    0    0  0.12660891782E+01  0.37409200781E+02 -0.59905102848E+02  0.70637614853E+02  0.00000000000E+00 0. -1.
        -14    1    4    4    0    0 -0.54256447949E+02  0.10015728333E+02 -0.28896242697E+03  0.29418253035E+03  0.00000000000E+00 0.  1.
</event>
<event>
12    1  0.8053217E-002  0.1930442E+03  0.7818608E-02  0.1156504E+00
         21   -1    0    0  503  502  0.00000000000E+00  0.00000000000E+00  0.17211407460E+02  0.17211407460E+02  0.00000000000E+00 0.  1.
         21   -1    0    0  501  503 -0.00000000000E+00 -0.00000000000E+00 -0.21594753800E+04  0.21594753800E+04  0.00000000000E+00 0. -1.
          6    2    1    2  501    0 -0.46157479525E+02  0.68230330116E+02 -0.11949194637E+04  0.12098736252E+04  0.17080917212E+03 0.  0.
         24    2    3    3    0    0 -0.64256354796E+02  0.93331934555E+02 -0.66888674491E+03  0.68291046605E+03  0.78214435891E+02 0.  0.
         -6    2    1    2    0  502  0.46157479525E+02 -0.68230330116E+02 -0.94734450890E+03  0.96681316236E+03  0.17458574252E+03 0.  0.
        -24    2    5    5    0    0  0.21590473666E+02 -0.66147090331E+02 -0.93059242424E+03  0.93663701274E+03  0.80281053032E+02 0.  0.
          5    1    3    3  501    0  0.18098875271E+02 -0.25101604440E+02 -0.52603271877E+03  0.52696315910E+03  0.47000000000E+01 0. -1.
        -13    1    4    4    0    0 -0.42352252256E+02  0.26984327732E+01 -0.15887964956E+03  0.16444980345E+03  0.00000000000E+00 0.  1.
         14    1    4    4    0    0 -0.21904102539E+02  0.90633501782E+02 -0.51000709535E+03  0.51846066260E+03  0.00000000000E+00 0. -1.
         -5    1    5    5    0  502  0.24567005859E+02 -0.20832397850E+01 -0.16752084664E+02  0.30176149613E+02  0.47000000000E+01 0.  1.
         11    1    6    6    0    0  0.36350079339E+02 -0.56214935311E+02 -0.38655747979E+03  0.39231126979E+03  0.00000000000E+00 0. -1.
        -12    1    6    6    0    0 -0.14759605673E+02 -0.99321550195E+01 -0.54403494445E+03  0.54432574295E+03  0.00000000000E+00 0.  1.
</event>
<event>
12    1  0.8053217E-002  0.1960870E+03  0.7818608E-02  0.1153211E+00
         21   -1    0    0  501  502  0.00000000000E+00  0.00000000000E+00  0.75830722157E+02  0.75830722157E+02  0.00000000000E+00 0.  1.
         21   -1    0    0  502  503 -0.00000000000E+00 -0.00000000000E+00 -0.56502315305E+03  0.56502315305E+03  0.00000000000E+00 0.  1.
         -6    2    1    2    0  503  0.83050800696E+02 -0.38062479325E+02 -0.34890935403E+03  0.40023475615E+03  0.17350485548E+03 0.  0.
        -24    2    3    3    0    0  0.89598859572E+02 -0.74687023180E+01 -0.34878196007E+03  0.36859676482E+03  0.78300588840E+02 0.  0.
          6    2    1    2  501    0 -0.83050800696E+02  0.38062479325E+02 -0.14028307687E+03  0.24061911906E+03  0.17283527121E+03 0.  0.
         24    2    5    5    0    0 -0.10453362243E+03  0.50053846059E+01 -0.15103794188E+03  0.19948470206E+03  0.77648917409E+02 0.  0.
          5    1    5    5  501    0  0.21482821730E+02  0.33057094719E+02  0.10754865013E+02  0.41134417003E+02  0.47000000000E+01 0. -1.
        -11    1    6    6    0    0 -0.22877751190E+02  0.17717709155E+02 -0.95822924810E+02  0.10009666146E+03  0.00000000000E+00 0.  1.
         12    1    6    6    0    0 -0.81655871235E+02 -0.12712324549E+02 -0.55215017070E+02  0.99388040592E+02  0.00000000000E+00 0. -1.
         -5    1    3    3    0  503 -0.65480588769E+01 -0.30593777007E+02 -0.12739396241E+00  0.31637991336E+02  0.47000000000E+01 0.  1.
         11    1    4    4    0    0  0.42880744999E+02  0.19890881730E+02 -0.69088323093E+02  0.83711420102E+02  0.00000000000E+00 0. -1.
        -12    1    4    4    0    0  0.46718114574E+02 -0.27359584047E+02 -0.27969363697E+03  0.28488534471E+03  0.00000000000E+00 0.  1.
</event>
<event>
12    1  0.8053217E-002  0.1802810E+03  0.7818608E-02  0.1168038E+00
         21   -1    0    0  503  502  0.00000000000E+00  0.00000000000E+00  0.69537004704E+03  0.69537004704E+03  0.00000000000E+00 0.  1.
         21   -1    0    0  501  503 -0.00000000000E+00 -0.00000000000E+00 -0.51771132839E+02  0.51771132839E+02  0.00000000000E+00 0.  1.
          6    2    1    2  501    0 -0.50925992783E+02 -0.11292296065E+02  0.19759197144E+03  0.26607627265E+03  0.17039079492E+03 0.  0.
         24    2    3    3    0    0 -0.48070763983E+02  0.17791856709E+01  0.22038483829E+03  0.23923189250E+03  0.79677208736E+02 0.  0.
         -6    2    1    2    0  502  0.50925992783E+02  0.11292296065E+02  0.44600694276E+03  0.48106490723E+03  0.17256963606E+03 0.  0.
        -24    2    5    5    0    0  0.56347869592E+02 -0.55184248500E+02  0.25472022984E+03  0.27842921377E+03  0.80125201415E+02 0.  0.
          5    1    3    3  501    0 -0.28552288001E+01 -0.13071481735E+02 -0.22792866845E+02  0.26844380143E+02  0.47000000000E+01 0. -1.
        -13    1    4    4    0    0 -0.15437735872E+02 -0.33428052805E+02  0.14699338590E+03  0.15153486035E+03  0.00000000000E+00 0.  1.
         14    1    4    4    0    0 -0.32633028111E+02  0.35207238476E+02  0.73391452389E+02  0.87697032154E+02  0.00000000000E+00 0. -1.
         -5    1    5    5    0  502 -0.54218768092E+01  0.66476544565E+02  0.19128671292E+03  0.20263569346E+03  0.47000000000E+01 0.  1.
         11    1    6    6    0    0  0.18318942031E+02 -0.27535735085E+02  0.21305602413E+03  0.21560767556E+03  0.00000000000E+00 0. -1.
        -12    1    6    6    0    0  0.38028927561E+02 -0.27648513415E+02  0.41664205711E+02  0.62821538209E+02  0.00000000000E+00 0.  1.
</event>
<event>
12    1  0.8053217E-002  0.1986687E+03  0.7818608E-02  0.1154753E+00
         21   -1    0    0  503  502  0.00000000000E+00  0.00000000000E+00  0.52501732769E+03  0.52501732769E+03  0.00000000000E+00 0.  1.
         21   -1    0    0  501  503 -0.00000000000E+00 -0.00000000000E+00 -0.69850784515E+02  0.69850784515E+02  0.00000000000E+00 0.  1.
          6    2    1    2  501    0 -0.26712774308E+02  0.45147234205E+02  0.25481120334E+03  0.31271297473E+03  0.17351890429E+03 0.  0.
         24    2    3    3    0    0 -0.22196680312E+02  0.35901240923E+01  0.37064051642E+02  0.90939891196E+02  0.79942093285E+02 0.  0.
         -6    2    1    2    0  502  0.26712774308E+02 -0.45147234205E+02  0.20035533984E+03  0.28215513748E+03  0.19161788627E+03 0.  0.
        -24    2    5    5    0    0  0.60763265978E+01  0.38732384446E+02  0.37192465893E+02  0.97477399698E+02  0.81126102968E+02 0.  0.
          5    1    3    3  501    0 -0.45160939951E+01  0.41557110113E+02  0.21774715170E+03  0.22177308353E+03  0.47000000000E+01 0. -1.
        -11    1    4    4    0    0  0.13964133939E+02  0.70288957942E+01 -0.18709159914E+02  0.24381039302E+02  0.00000000000E+00 0.  1.
         12    1    4    4    0    0 -0.36160814252E+02 -0.34387717019E+01  0.55773211556E+02  0.66558851894E+02  0.00000000000E+00 0. -1.
         -5    1    5    5    0  502  0.20636447710E+02 -0.83879618651E+02  0.16316287395E+03  0.18467773778E+03  0.47000000000E+01 0.  1.
         13    1    6    6    0    0 -0.44950594451E+01 -0.18235998153E+02 -0.11302205563E+02  0.21920242668E+02  0.00000000000E+00 0. -1.
        -14    1    6    6    0    0  0.10571386043E+02  0.56968382599E+02  0.48494671456E+02  0.75557157030E+02  0.00000000000E+00 0.  1.
</event>
<event>
12    1  0.8053217E-002  0.1721734E+03  0.7818608E-02  0.1177482E+00
         21   -1    0    0  503  502  0.00000000000E+00  0.00000000000E+00  0.10829315719E+04  0.10829315719E+04  0.00000000000E+00 0. -1.
         21   -1    0    0  501  503 -0.00000000000E+00 -0.00000000000E+00 -0.36100278138E+02  0.36100278138E+02  0.00000000000E+00 0. -1.
          6    2    1    2  501    0 -0.12955801165E+01  0.14661854648E+02  0.22303080556E+03  0.27743164203E+03  0.16434392980E+03 0.  0.
         24    2    3    3    0    0 -0.48575399181E+02  0.44107693598E+02  0.97577048941E+02  0.14008837219E+03  0.76147314475E+02 0.  0.
         -6    2    1    2    0  502  0.12955801165E+01 -0.14661854648E+02  0.82380048818E+03  0.84160020798E+03  0.17154304778E+03 0.  0.
        -24    2    5    5    0    0  0.13836159689E+02 -0.30134822619E+02  0.81447196722E+03  0.81911042859E+03  0.80484544991E+02 0.  0.
          5    1    3    3  501    0  0.47279819064E+02 -0.29445838951E+02  0.12545375662E+03  0.13734326984E+03  0.47000000000E+01 0. -1.
        -13    1    4    4    0    0  0.10674148121E+02  0.37810914241E+02  0.51456135357E+02  0.64740532433E+02  0.00000000000E+00 0.  1.
         14    1    4    4    0    0 -0.59249547302E+02  0.62967793573E+01  0.46120913584E+02  0.75347839754E+02  0.00000000000E+00 0. -1.
         -5    1    5    5    0  502 -0.12540579573E+02  0.15472967971E+02  0.93285209539E+01  0.22489779391E+02  0.47000000000E+01 0.  1.
         11    1    6    6    0    0 -0.28167126522E+02 -0.29967179094E+02  0.28184691324E+03  0.28483170705E+03  0.00000000000E+00 0. -1.
        -12    1    6    6    0    0  0.42003286212E+02 -0.16764352547E+00  0.53262505398E+03  0.53427872154E+03  0.00000000000E+00 0.  1.
</event>
<event>
12    1  0.8053217E-002  0.2073079E+03  0.7818608E-02  0.1144646E+00
         21   -1    0    0  501  502  0.00000000000E+00  0.00000000000E+00  0.13036341579E+03  0.13036341579E+03  0.00000000000E+00 0. -1.
         21   -1    0    0  502  503 -0.00000000000E+00 -0.00000000000E+00 -0.14471739431E+04  0.14471739431E+04  0.00000000000E+00 0.  1.
         -6    2    1    2    0  503 -0.10496995431E+03 -0.25944020226E+02 -0.13521270526E+04  0.13672427134E+04  0.17150302464E+03 0.  0.
        -24    2    3    3    0    0 -0.12996256352E+03 -0.33110759904E+02 -0.12940194861E+04  0.13034103395E+04  0.80034319858E+02 0.  0.
          6    2    1    2  501    0  0.10496995431E+03  0.25944020226E+02  0.35316525228E+02  0.21029464555E+03  0.17687509010E+03 0.  0.
         24    2    5    5    0    0  0.32326230659E+02 -0.43886321480E+02  0.47593357145E+02  0.10867674452E+03  0.81083369151E+02 0.  0.
          5    1    5    5  501    0  0.72643723650E+02  0.69830341705E+02 -0.12276831917E+02  0.10161790103E+03  0.47000000000E+01 0. -1.
        -11    1    6    6    0    0 -0.59362881913E+01  0.11934473158E+02 -0.12424276821E+02  0.18221795235E+02  0.00000000000E+00 0.  1.
         12    1    6    6    0    0  0.38262518850E+02 -0.55820794637E+02  0.60017633966E+02  0.90454949282E+02  0.00000000000E+00 0. -1.
         -5    1    3    3    0  503  0.24992609208E+02  0.71667396781E+01 -0.58107566459E+02  0.63832373858E+02  0.47000000000E+01 0.  1.
         11    1    4    4    0    0 -0.65727415970E+02  0.95057009588E+01 -0.34973275488E+03  0.35598237512E+03  0.00000000000E+00 0. -1.
        -12    1    4    4    0    0 -0.64235147546E+02 -0.42616460863E+02 -0.94428673125E+03  0.94742796440E+03  0.00000000000E+00 0.  1.
</event>
<event>
12    1  0.8053217E-002  0.2231487E+03  0.7818608E-02  0.1131621E+00
         21   -1    0    0  501  502  0.00000000000E+00  0.00000000000E+00  0.29857053975E+03  0.29857053975E+03  0.00000000000E+00 0.  1.
         21   -1    0    0  502  503 -0.00000000000E+00 -0.00000000000E+00 -0.20055628905E+03  0.20055628905E+03  0.00000000000E+00 0.  1.
         -6    2    1    2    0  503 -0.10972920341E+03  0.90393725384E+02 -0.53772315216E+02  0.22953610157E+03  0.17199952434E+03 0.  0.
        -24    2    3    3    0    0 -0.10083493388E+02 -0.13424937855E+02 -0.14259216243E+02  0.80234536437E+02  0.77151473052E+02 0.  0.
          6    2    1    2  501    0  0.10972920341E+03 -0.90393725384E+02  0.15178656591E+03  0.26959072723E+03  0.17154729653E+03 0.  0.
         24    2    5    5    0    0  0.28450203913E+02 -0.28839380209E+02  0.26528938189E+01  0.88875051869E+02  0.79060818650E+02 0.  0.
          5    1    5    5  501    0  0.81278999494E+02 -0.61554345175E+02  0.14913367209E+03  0.18071567536E+03  0.47000000000E+01 0. -1.
        -11    1    6    6    0    0  0.12138400062E+02  0.31022215929E+01  0.37092696388E+02  0.39151406874E+02  0.00000000000E+00 0.  1.
         12    1    6    6    0    0  0.16311803851E+02 -0.31941601802E+02 -0.34439802570E+02  0.49723644995E+02  0.00000000000E+00 0. -1.
         -5    1    3    3    0  503 -0.99645710019E+02  0.10381866324E+03 -0.39513098973E+02  0.14930156514E+03  0.47000000000E+01 0.  1.
         13    1    4    4    0    0  0.29891601605E+02 -0.12843966660E+02  0.92906030736E+01  0.33834754788E+02  0.00000000000E+00 0. -1.
        -14    1    4    4    0    0 -0.39975094993E+02 -0.58097119483E+00 -0.23549819316E+02  0.46399781649E+02  0.00000000000E+00 0.  1.
</event>
<event>
12    1  0.8053217E-002  0.1994509E+03  0.7818608E-02  0.1150289E+00
         21   -1    0    0  501  502  0.00000000000E+00  0.00000000000E+00  0.61325015746E+03  0.61325015746E+03  0.00000000000E+00 0.  1.
         21   -1    0    0  502  503 -0.00000000000E+00 -0.00000000000E+00 -0.67704237720E+02  0.67704237720E+02  0.00000000000E+00 0. -1.
         -6    2    1    2    0  503  0.83041668259E+02 -0.57553098440E+02  0.34432746505E+03  0.39792219115E+03  0.17196624441E+03 0.  0.
        -24    2    3    3    0    0  0.12335403298E+03 -0.44227034752E+02  0.29779419536E+03  0.33475490602E+03  0.78785888716E+02 0.  0.
          6    2    1    2  501    0 -0.83041668259E+02  0.57553098440E+02  0.20121845469E+03  0.28303220403E+03  0.17149368560E+03 0.  0.
         24    2    5    5    0    0  0.11760858522E+02  0.20123242357E+01  0.12351249833E+03  0.14837485244E+03  0.81347356141E+02 0.  0.
          5    1    5    5  501    0 -0.94802526780E+02  0.55540774204E+02  0.77705956365E+02  0.13465735159E+03  0.47000000000E+01 0. -1.
        -11    1    6    6    0    0 -0.20656531854E+01 -0.35810665170E+02  0.86645727873E+02  0.93777144452E+02  0.00000000000E+00 0.  1.
         12    1    6    6    0    0  0.13826511707E+02  0.37822989406E+02  0.36866770453E+02  0.54597707985E+02  0.00000000000E+00 0. -1.
         -5    1    3    3    0  503 -0.40312364718E+02 -0.13326063688E+02  0.46533269688E+02  0.63167285128E+02  0.47000000000E+01 0.  1.
         13    1    4    4    0    0  0.70912329815E+02 -0.51643097268E+02  0.11620403382E+03  0.14559857654E+03  0.00000000000E+00 0. -1.
        -14    1    4    4    0    0  0.52441703162E+02  0.74160625167E+01  0.18159016154E+03  0.18915632948E+03  0.00000000000E+00 0.  1.
</event>
<event>
12    1  0.8053217E-002  0.2772443E+03  0.7818608E-02  0.1097363E+00
         21   -1    0    0  501  502  0.00000000000E+00  0.00000000000E+00  0.21070571652E+03  0.21070571652E+03  0.00000000000E+00 0.  1.
         21   -1    0    0  502  503 -0.00000000000E+00 -0.00000000000E+00 -0.36560336030E+03  0.36560336030E+03  0.00000000000E+00 0.  1.
         -6    2    1    2    0  503  0.21084848405E+03 -0.47361951964E+02 -0.10058009879E+03  0.29492498407E+03  0.17367830098E+03 0.  0.
        -24    2    3    3    0    0  0.50426997812E+02 -0.14511878263E+02 -0.89467795010E+02  0.13073072751E+03  0.79577384053E+02 0.  0.
          6    2    1    2  501    0 -0.21084848405E+03  0.47361951964E+02 -0.54317544984E+02  0.28138409275E+03  0.17183240160E+03 0.  0.
         24    2    5    5    0    0 -0.16374158863E+03  0.60455074627E+02  0.20060421170E+02  0.19225126318E+03  0.78051289571E+02 0.  0.
          5    1    5    5  501    0 -0.47106895427E+02 -0.13093122663E+02 -0.74377966154E+02  0.89132829569E+02  0.47000000000E+01 0. -1.
        -13    1    6    6    0    0 -0.69036497446E+02  0.66151280057E+02  0.17832992191E+01  0.95630591281E+02  0.00000000000E+00 0.  1.
         14    1    6    6    0    0 -0.94705091180E+02 -0.56962054299E+01  0.18277121951E+02  0.96620671901E+02  0.00000000000E+00 0. -1.
         -5    1    3    3    0  503  0.16042148624E+03 -0.32850073701E+02 -0.11112303783E+02  0.16419425655E+03  0.47000000000E+01 0.  1.
         11    1    4    4    0    0 -0.16373749529E+02  0.10913516798E+02 -0.54403761185E+01  0.20415734492E+02  0.00000000000E+00 0. -1.
        -12    1    4    4    0    0  0.66800747341E+02 -0.25425395061E+02 -0.84027418891E+02  0.11031499302E+03  0.00000000000E+00 0.  1.
</event>
<event>
12    1  0.8053217E-002  0.1767197E+03  0.7818608E-02  0.1171524E+00
         21   -1    0    0  503  502  0.00000000000E+00  0.00000000000E+00  0.10541721221E+03  0.10541721221E+03  0.00000000000E+00 0.  1.
         21   -1    0    0  501  503 -0.00000000000E+00 -0.00000000000E+00 -0.99154512072E+03  0.99154512072E+03  0.00000000000E+00 0.  1.
          6    2    1    2  501    0  0.33502279685E+02  0.21072186779E+02 -0.90271990957E+03  0.91946547694E+03  0.17013843876E+03 0.  0.
         24    2    3    3    0    0 -0.56263463027E+02 -0.46835650195E+00 -0.50471227345E+03  0.51086536438E+03  0.55526074273E+02 0.  0.
         -6    2    1    2    0  502 -0.33502279685E+02 -0.21072186779E+02  0.16592001059E+02  0.17749685599E+03  0.17223065809E+03 0.  0.
        -24    2    5    5    0    0 -0.50625174665E+02 -0.16857485200E+02 -0.50831640293E+02  0.10764705531E+03  0.78466233145E+02 0.  0.
          5    1    3    3  501    0  0.89765742713E+02  0.21540543281E+02 -0.39800763612E+03  0.40860011255E+03  0.47000000000E+01 0. -1.
        -13    1    4    4    0    0 -0.58459844338E+02  0.41015536130E+01 -0.27863165901E+03  0.28472790089E+03  0.00000000000E+00 0.  1.
         14    1    4    4    0    0  0.21963813104E+01 -0.45699101149E+01 -0.22608061444E+03  0.22613746350E+03  0.00000000000E+00 0. -1.
         -5    1    5    5    0  502  0.17122894980E+02 -0.42147015789E+01  0.67423641352E+02  0.69849800680E+02  0.47000000000E+01 0.  1.
         11    1    6    6    0    0 -0.15916582714E+02  0.25607641491E+02  0.36133560690E+01  0.30366844586E+02  0.00000000000E+00 0. -1.
        -12    1    6    6    0    0 -0.34708591951E+02 -0.42465126691E+02 -0.54444996362E+02  0.77280210720E+02  0.00000000000E+00 0.  1.
</event>
<event>
12    1  0.8053217E-002  0.2509659E+03  0.7818608E-02  0.1112765E+00
         21   -1    0    0  501  502  0.00000000000E+00  0.00000000000E+00  0.20643412793E+03  0.20643412793E+03  0.00000000000E+00 0.  1.
         21   -1    0    0  502  503 -0.00000000000E+00 -0.00000000000E+00 -0.41713096725E+03  0.41713096725E+03  0.00000000000E+00 0.  1.
         -6    2    1    2    0  503  0.54552482350E+01  0.18274533554E+03 -0.26737377963E+03  0.36670508513E+03  0.17192516985E+03 0.  0.
        -24    2    3    3    0    0  0.35332469227E+02  0.36005989270E+02 -0.14512414691E+03  0.17333459415E+03  0.80243684297E+02 0.  0.
          6    2    1    2  501    0 -0.54552482350E+01 -0.18274533554E+03  0.56676940318E+02  0.25686001005E+03  0.17128681153E+03 0.  0.
         24    2    5    5    0    0 -0.25205625794E+02 -0.12996744029E+03  0.10322654039E+03  0.18361699736E+03  0.74381610434E+02 0.  0.
          5    1    5    5  501    0  0.19750377560E+02 -0.52777895255E+02 -0.46549600076E+02  0.73243012694E+02  0.47000000000E+01 0. -1.
        -13    1    6    6    0    0 -0.47472908097E+02 -0.10115345914E+03  0.59104184325E+02  0.12640808480E+03  0.00000000000E+00 0.  1.
         14    1    6    6    0    0  0.22267282302E+02 -0.28813981150E+02  0.44122356069E+02  0.57208912557E+02  0.00000000000E+00 0. -1.
         -5    1    3    3    0  503 -0.29877220992E+02  0.14673934627E+03 -0.12224963273E+03  0.19337049098E+03  0.47000000000E+01 0.  1.
         11    1    4    4    0    0  0.20683325699E+02  0.29374989720E+02 -0.10048220364E+02  0.37304915434E+02  0.00000000000E+00 0. -1.
        -12    1    4    4    0    0  0.14649143528E+02  0.66309995506E+01 -0.13507592654E+03  0.13602967872E+03  0.00000000000E+00 0.  1.
</event>
<event>
12    1  0.8053217E-002  0.2175351E+03  0.7818608E-02  0.1136733E+00
         21   -1    0    0  501  502  0.00000000000E+00  0.00000000000E+00  0.36423767557E+03  0.36423767557E+03  0.00000000000E+00 0.  1.
         21   -1    0    0  502  503 -0.00000000000E+00 -0.00000000000E+00 -0.15745033708E+03  0.15745033708E+03  0.00000000000E+00 0.  1.
         -6    2    1    2    0  503 -0.42872057830E+02 -0.12537062188E+03  0.21943524668E+03  0.30898761986E+03  0.17252743424E+03 0.  0.
        -24    2    3    3    0    0  0.14724061910E+02 -0.48720701882E+02  0.28803096737E+02  0.95550908306E+02  0.75563568640E+02 0.  0.
          6    2    1    2  501    0  0.42872057830E+02  0.12537062188E+03 -0.12647908187E+02  0.21270039279E+03  0.16590865359E+03 0.  0.
         24    2    5    5    0    0 -0.18428325087E+02  0.77757597773E+02  0.37336602409E+02  0.12025971824E+03  0.81746747795E+02 0.  0.
          5    1    5    5  501    0  0.61300382917E+02  0.47613024112E+02 -0.49984510597E+02  0.92440674546E+02  0.47000000000E+01 0. -1.
        -11    1    6    6    0    0 -0.32984875013E+01  0.54815095433E+02 -0.18565381085E+02  0.57967646855E+02  0.00000000000E+00 0.  1.
         12    1    6    6    0    0 -0.15129837586E+02  0.22942502340E+02  0.55901983494E+02  0.62292071386E+02  0.00000000000E+00 0. -1.
         -5    1    3    3    0  503 -0.57596119740E+02 -0.76649920003E+02  0.19063214994E+03  0.21343671155E+03  0.47000000000E+01 0.  1.
         13    1    4    4    0    0  0.21391037113E+02 -0.59737043948E+02 -0.59731439496E+00  0.63454295937E+02  0.00000000000E+00 0. -1.
        -14    1    4    4    0    0 -0.66669752035E+01  0.11016342066E+02  0.29400411132E+02  0.32096612369E+02  0.00000000000E+00 0.  1.
</event>
<event>
12    1  0.8053217E-002  0.2142024E+03  0.7818608E-02  0.1138283E+00
         21   -1    0    0  501  502  0.00000000000E+00  0.00000000000E+00  0.47771181105E+03  0.47771181105E+03  0.00000000000E+00 0.  1.
         21   -1    0    0  502  503 -0.00000000000E+00 -0.00000000000E+00 -0.97585606425E+02  0.97585606425E+02  0.00000000000E+00 0. -1.
         -6    2    1    2    0  503  0.11640662424E+03  0.51879565694E+02  0.15388633908E+03  0.26374144366E+03  0.17215270037E+03 0.  0.
        -24    2    3    3    0    0  0.38009551244E+02 -0.34890267822E+02  0.51805619282E+02  0.10844280098E+03  0.80087215717E+02 0.  0.
          6    2    1    2  501    0 -0.11640662424E+03 -0.51879565694E+02  0.22623986555E+03  0.31155597382E+03  0.17216462051E+03 0.  0.
         24    2    5    5    0    0 -0.42396182203E+02  0.19345374602E+02  0.44678823039E+02  0.10290066043E+03  0.80129076522E+02 0.  0.
          5    1    5    5  501    0 -0.74010442033E+02 -0.71224940297E+02  0.18156104251E+03  0.20865531339E+03  0.47000000000E+01 0. -1.
        -11    1    6    6    0    0  0.15340861101E+02 -0.22373830176E+01  0.37828475684E+02  0.40882043426E+02  0.00000000000E+00 0.  1.
         12    1    6    6    0    0 -0.57737043303E+02  0.21582757620E+02  0.68503473553E+01  0.62018617001E+02  0.00000000000E+00 0. -1.
         -5    1    3    3    0  503  0.78397072991E+02  0.86769833517E+02  0.10208071979E+03  0.15529864267E+03  0.47000000000E+01 0.  1.
         13    1    4    4    0    0  0.26827635907E+01  0.26708868590E+01 -0.19824967252E+02  0.20183165848E+02  0.00000000000E+00 0. -1.
        -14    1    4    4    0    0  0.35326787654E+02 -0.37561154681E+02  0.71630586534E+02  0.88259635135E+02  0.00000000000E+00 0.  1.
</event>
<event>
12    1  0.8053217E-002  0.2700112E+03  0.7818608E-02  0.1101539E+00
         21   -1    0    0  501  502  0.00000000000E+00  0.00000000000E+00  0.20887879345E+03  0.20887879345E+03  0.00000000000E+00 0. -1.
         21   -1    0    0  502  503 -0.00000000000E+00 -0.00000000000E+00 -0.34713265153E+03  0.34713265153E+03  0.00000000000E+00 0.  1.
         -6    2    1    2    0  503  0.53814290982E+02 -0.20024130870E+03 -0.79303750025E+02  0.27963998091E+03  0.17004962374E+03 0.  0.
        -24    2    3    3    0    0 -0.37490391145E+02 -0.57936433796E+02 -0.23273237335E+02  0.10145824573E+03  0.70639735713E+02 0.  0.
          6    2    1    2  501    0 -0.53814290982E+02  0.20024130870E+03 -0.58950108054E+02  0.27637146406E+03  0.17295522914E+03 0.  0.
         24    2    5    5    0    0 -0.44649755715E+02  0.15728944247E+03 -0.10659934433E+03  0.21139922971E+03  0.81195102767E+02 0.  0.
          5    1    5    5  501    0 -0.91645352665E+01  0.42951866227E+02  0.47649236277E+02  0.64972234353E+02  0.47000000000E+01 0. -1.
        -11    1    6    6    0    0 -0.31039444530E+02  0.75028137722E+01 -0.14826099312E+02  0.35207279816E+02  0.00000000000E+00 0.  1.
         12    1    6    6    0    0 -0.13610311186E+02  0.14978662870E+03 -0.91773245019E+02  0.17619194990E+03  0.00000000000E+00 0. -1.
         -5    1    3    3    0  503  0.91304682127E+02 -0.14230487490E+03 -0.56030512690E+02  0.17818173518E+03  0.47000000000E+01 0.  1.
         11    1    4    4    0    0  0.18998856090E+02 -0.29518809043E+02 -0.38874497370E+01  0.35318959292E+02  0.00000000000E+00 0. -1.
        -12    1    4    4    0    0 -0.56489247235E+02 -0.28417624753E+02 -0.19385787598E+02  0.66139286439E+02  0.00000000000E+00 0.  1.
</event>
<event>
12    1  0.8053217E-002  0.2730770E+03  0.7818608E-02  0.1099581E+00
         21   -1    0    0  501  502  0.00000000000E+00  0.00000000000E+00  0.32572746430E+02  0.32572746430E+02  0.00000000000E+00 0. -1.
         21   -1    0    0  502  503 -0.00000000000E+00 -0.00000000000E+00 -0.22864443520E+04  0.22864443520E+04  0.00000000000E+00 0.  1.
         -6    2    1    2    0  503  0.13858021459E+03 -0.15974206500E+03 -0.11232839686E+04  0.11559180159E+04  0.17221376928E+03 0.  0.
        -24    2    3    3    0    0  0.16298133522E+03 -0.10446485686E+03 -0.93451207272E+03  0.95765580802E+03  0.79473332801E+02 0.  0.
          6    2    1    2  501    0 -0.13858021459E+03  0.15974206500E+03 -0.11305876370E+04  0.11630990825E+04  0.17276882686E+03 0.  0.
         24    2    5    5    0    0 -0.11612131670E+03  0.16329883811E+03 -0.71101733534E+03  0.74288677809E+03  0.78641230835E+02 0.  0.
          5    1    5    5  501    0 -0.22458897892E+02 -0.35567731108E+01 -0.41957030165E+03  0.42021230439E+03  0.47000000000E+01 0. -1.
        -11    1    6    6    0    0 -0.12105027488E+03  0.15186334223E+03 -0.69937982925E+03  0.72584281310E+03  0.00000000000E+00 0.  1.
         12    1    6    6    0    0  0.49289581775E+01  0.11435495882E+02 -0.11637506093E+02  0.17043964997E+02  0.00000000000E+00 0. -1.
         -5    1    3    3    0  503 -0.24401120627E+02 -0.55277208146E+02 -0.18877189586E+03  0.19826220793E+03  0.47000000000E+01 0.  1.
         11    1    4    4    0    0  0.13517297696E+03 -0.10299135353E+03 -0.65229042572E+03  0.67406361131E+03  0.00000000000E+00 0. -1.
        -12    1    4    4    0    0  0.27808358258E+02 -0.14735033296E+01 -0.28222164700E+03  0.28359219671E+03  0.00000000000E+00 0.  1.
</event>
<event>
12    1  0.8053217E-002  0.2168803E+03  0.7818608E-02  0.1139866E+00
         21   -1    0    0  503  502  0.00000000000E+00  0.00000000000E+00  0.12579684889E+03  0.12579684889E+03  0.00000000000E+00 0.  1.
         21   -1    0    0  501  503 -0.00000000000E+00 -0.00000000000E+00 -0.37895477376E+03  0.37895477376E+03  0.00000000000E+00 0.  1.
          6    2    1    2  501    0  0.93586445824E+02 -0.30494919917E+02 -0.20920186268E+03  0.30133447969E+03  0.19325808215E+03 0.  0.
         24    2    3    3    0    0  0.10615148865E+03  0.34152352006E+02 -0.88095830110E+02  0.16340003441E+03  0.80648461060E+02 0.  0.
         -6    2    1    2    0  502 -0.93586445824E+02  0.30494919917E+02 -0.43956062188E+02  0.20341714296E+03  0.17250517576E+03 0.  0.
        -24    2    5    5    0    0 -0.81914645784E+02  0.27592588684E+02 -0.94861424008E+02  0.15089952396E+03  0.79376422336E+02 0.  0.
          5    1    3    3  501    0 -0.12565042828E+02 -0.64647271923E+02 -0.12110603257E+03  0.13793444528E+03  0.47000000000E+01 0. -1.
        -11    1    4    4    0    0  0.41573261278E+02 -0.13280946307E+02 -0.67985598162E+02  0.80788372588E+02  0.00000000000E+00 0.  1.
         12    1    4    4    0    0  0.64578227375E+02  0.47433298313E+02 -0.20110231948E+02  0.82611661820E+02  0.00000000000E+00 0. -1.
         -5    1    5    5    0  502 -0.11671800040E+02  0.29023312335E+01  0.50905361821E+02  0.52517618995E+02  0.47000000000E+01 0.  1.
         13    1    6    6    0    0 -0.12902152409E+02 -0.11515953679E+02 -0.63145007123E+02  0.65470410496E+02  0.00000000000E+00 0. -1.
        -14    1    6    6    0    0 -0.69012493375E+02  0.39108542363E+02 -0.31716416886E+02  0.85429113466E+02  0.00000000000E+00 0.  1.
</event>
<event>
12    1  0.8053217E-002  0.1840309E+03  0.7818608E-02  0.1164203E+00
         21   -1    0    0  501  502  0.00000000000E+00  0.00000000000E+00  0.78728551125E+02  0.78728551125E+02  0.00000000000E+00 0. -1.
         21   -1    0    0  502  503 -0.00000000000E+00 -0.00000000000E+00 -0.98029339251E+03  0.98029339251E+03  0.00000000000E+00 0. -1.
         -6    2    1    2    0  503 -0.60631315448E+02 -0.12606011995E+02 -0.84776236018E+03  0.86728752730E+03  0.17219630574E+03 0.  0.
        -24    2    3    3    0    0 -0.99013478974E+02 -0.39657451718E+02 -0.56849434608E+03  0.58406026066E+03  0.81019652288E+02 0.  0.
          6    2    1    2  501    0  0.60631315448E+02  0.12606011995E+02 -0.53802481195E+02  0.19173441633E+03  0.17329833084E+03 0.  0.
         24    2    5    5    0    0 -0.62346656069E+00 -0.27874428007E+02 -0.76843988203E+02  0.11463827254E+03  0.80371403881E+02 0.  0.
          5    1    5    5  501    0  0.61254782009E+02  0.40480440001E+02  0.23041507008E+02  0.77096143787E+02  0.47000000000E+01 0. -1.
        -11    1    6    6    0    0  0.31769687869E+01 -0.40878870984E+02 -0.47431784320E+01  0.41275573469E+02  0.00000000000E+00 0.  1.
         12    1    6    6    0    0 -0.38004353476E+01  0.13004442977E+02 -0.72100809771E+02  0.73362699076E+02  0.00000000000E+00 0. -1.
         -5    1    3    3    0  503  0.38382163526E+02  0.27051439723E+02 -0.27926801410E+03  0.28322726664E+03  0.47000000000E+01 0.  1.
         13    1    4    4    0    0 -0.71219100351E+02  0.35629542734E+01 -0.43881271145E+03  0.44456883677E+03  0.00000000000E+00 0. -1.
        -14    1    4    4    0    0 -0.27794378623E+02 -0.43220405991E+02 -0.12968163464E+03  0.13949142389E+03  0.00000000000E+00 0.  1.
</event>
<event>
12    1  0.8053217E-002  0.1808391E+03  0.7818608E-02  0.1167518E+00
         21   -1    0    0  503  502  0.00000000000E+00  0.00000000000E+00  0.71626303051E+03  0.71626303051E+03  0.00000000000E+00 0.  1.
         21   -1    0    0  501  503 -0.00000000000E+00 -0.00000000000E+00 -0.51332132538E+02  0.51332132538E+02  0.00000000000E+00 0.  1.
          6    2    1    2  501    0 -0.19462815571E+02  0.52710984309E+02  0.20062691971E+03  0.27009984548E+03  0.17188809313E+03 0.  0.
         24    2    3    3    0    0  0.22204749005E+02  0.18959130805E+02  0.19879698586E+03  0.21624065675E+03  0.79920463763E+02 0.  0.
         -6    2    1    2    0  502  0.19462815571E+02 -0.52710984309E+02  0.46430397826E+03  0.49749531756E+03  0.16960588938E+03 0.  0.
        -24    2    5    5    0    0  0.47381063509E+02  0.21667321149E+02  0.19517903089E+03  0.21684983268E+03  0.78832466964E+02 0.  0.
          5    1    3    3  501    0 -0.41667564576E+02  0.33751853504E+02  0.18299338538E+01  0.53859188729E+02  0.47000000000E+01 0. -1.
        -11    1    4    4    0    0  0.21882886803E+02  0.42259748376E+02  0.65732586000E+02  0.81151216442E+02  0.00000000000E+00 0.  1.
         12    1    4    4    0    0  0.32186220224E+00 -0.23300617572E+02  0.13306439986E+03  0.13508944031E+03  0.00000000000E+00 0. -1.
         -5    1    5    5    0  502 -0.27918247938E+02 -0.74378305458E+02  0.26912494737E+03  0.28064548489E+03  0.47000000000E+01 0.  1.
         13    1    6    6    0    0  0.57576349591E+02 -0.12382612011E+02  0.12533853700E+03  0.13848506768E+03  0.00000000000E+00 0. -1.
        -14    1    6    6    0    0 -0.10195286081E+02  0.34049933160E+02  0.69840493890E+02  0.78364764999E+02  0.00000000000E+00 0.  1.
</event>
<event>
12    1  0.8053217E-002  0.1894277E+03  0.7818608E-02  0.1159103E+00
         21   -1    0    0  503  502  0.00000000000E+00  0.00000000000E+00  0.15919643570E+03  0.15919643570E+03  0.00000000000E+00 0.  1.
         21   -1    0    0  501  503 -0.00000000000E+00 -0.00000000000E+00 -0.38960039280E+03  0.38960039280E+03  0.00000000000E+00 0.  1.
          6    2    1    2  501    0  0.78564684076E+02  0.43952616777E+01 -0.29359913200E+03  0.34910583716E+03  0.17170529204E+03 0.  0.
         24    2    3    3    0    0  0.54607316062E+02  0.10513454984E+02 -0.30584972705E+03  0.32111378738E+03  0.80483024339E+02 0.  0.
         -6    2    1    2    0  502 -0.78564684076E+02 -0.43952616777E+01  0.63195174902E+02  0.19969099134E+03  0.17231115455E+03 0.  0.
        -24    2    5    5    0    0 -0.95468205030E+02 -0.42886975247E+01  0.99267690671E+02  0.15957794147E+03  0.80488967527E+02 0.  0.
          5    1    3    3  501    0  0.23957368014E+02 -0.61181933061E+01  0.12250595047E+02  0.27992049773E+02  0.47000000000E+01 0. -1.
        -11    1    4    4    0    0  0.46492153493E+02 -0.24796470871E+02 -0.24228836751E+03  0.24795168548E+03  0.00000000000E+00 0.  1.
         12    1    4    4    0    0  0.81151625690E+01  0.35309925855E+02 -0.63561359541E+02  0.73162101898E+02  0.00000000000E+00 0. -1.
         -5    1    5    5    0  502  0.16903520954E+02 -0.10656415301E+00 -0.36072515769E+02  0.40113049877E+02  0.47000000000E+01 0.  1.
         11    1    6    6    0    0 -0.18141656768E+02  0.24339233822E+02 -0.22605771189E+00  0.30357356859E+02  0.00000000000E+00 0. -1.
        -12    1    6    6    0    0 -0.77326548262E+02 -0.28627931347E+02  0.99493748383E+02  0.12922058461E+03  0.00000000000E+00 0.  1.
</event>
<event>
12    1  0.8053217E-002  0.2054283E+03  0.7818608E-02  0.1145283E+00
         21   -1    0    0  503  502  0.00000000000E+00  0.00000000000E+00  0.15510153829E+03  0.15510153829E+03  0.00000000000E+00 0. -1.
         21   -1    0    0  501  503 -0.00000000000E+00 -0.00000000000E+00 -0.45505509272E+03  0.45505509272E+03  0.00000000000E+00 0.  1.
          6    2    1    2  501    0  0.32992491876E+02 -0.10649394141E+03 -0.34353321438E+03  0.40015667090E+03  0.17228124623E+03 0.  0.
         24    2    3    3    0    0 -0.26606442006E+02 -0.86297706775E+02 -0.30037785777E+03  0.32370802396E+03  0.80030184248E+02 0.  0.
         -6    2    1    2    0  502 -0.32992491876E+02  0.10649394141E+03  0.43579659953E+02  0.20999996012E+03  0.17254371159E+03 0.  0.
        -24    2    5    5    0    0 -0.83987958095E+02  0.76720966024E+02  0.53348949991E+01  0.13948953759E+03  0.80553002804E+02 0.  0.
          5    1    3    3  501    0  0.59598933882E+02 -0.20196234638E+02 -0.43155356614E+02  0.76448646933E+02  0.47000000000E+01 0. -1.
        -11    1    4    4    0    0 -0.75179830849E+00 -0.88103325460E+02 -0.26871345961E+03  0.28278911672E+03  0.00000000000E+00 0.  1.
         12    1    4    4    0    0 -0.25854643698E+02  0.18056186847E+01 -0.31664398154E+02  0.40918907244E+02  0.00000000000E+00 0. -1.
         -5    1    5    5    0  502  0.50995466219E+02  0.29772975390E+02  0.38244764954E+02  0.70510422527E+02  0.47000000000E+01 0.  1.
         11    1    6    6    0    0 -0.53985654256E+02  0.31917652968E+02  0.40920586203E+02  0.74884456409E+02  0.00000000000E+00 0. -1.
        -12    1    6    6    0    0 -0.30002303839E+02  0.44803313055E+02 -0.35585691204E+02  0.64605081185E+02  0.00000000000E+00 0.  1.
</event>
<event>
12    1  0.8053217E-002  0.1963574E+03  0.7818608E-02  0.1154687E+00
         21   -1    0    0  501  502  0.00000000000E+00  0.00000000000E+00  0.13459015818E+04  0.13459015818E+04  0.00000000000E+00 0. -1.
         21   -1    0    0  502  503 -0.00000000000E+00 -0.00000000000E+00 -0.64217386854E+02  0.64217386854E+02  0.00000000000E+00 0. -1.
         -6    2    1    2    0  503  0.54505638249E+02 -0.54505989986E+02  0.10145392585E+03  0.21366600251E+03  0.17151820316E+03 0.  0.
        -24    2    3    3    0    0  0.63604715778E+02 -0.23035818913E+02 -0.14955949040E+02  0.92643220149E+02  0.61505097395E+02 0.  0.
          6    2    1    2  501    0 -0.54505638249E+02  0.54505989986E+02  0.11802302691E+04  0.11964529661E+04  0.18059469691E+03 0.  0.
         24    2    5    5    0    0 -0.79294929975E+02 -0.79693215066E+01  0.47532150702E+03  0.48833141840E+03  0.78650131286E+02 0.  0.
          5    1    5    5  501    0  0.24789291727E+02  0.62475311493E+02  0.70490876204E+03  0.70812154771E+03  0.47000000000E+01 0. -1.
        -13    1    6    6    0    0  0.16076218100E+02 -0.31628027874E+01  0.76904534928E+02  0.78630500458E+02  0.00000000000E+00 0.  1.
         14    1    6    6    0    0 -0.95371148075E+02 -0.48065187192E+01  0.39841697210E+03  0.40970091794E+03  0.00000000000E+00 0. -1.
         -5    1    3    3    0  503 -0.90990775294E+01 -0.31470171073E+02  0.11640987489E+03  0.12102278237E+03  0.47000000000E+01 0.  1.
         13    1    4    4    0    0  0.12767206575E+02 -0.36256007715E+02 -0.17388312188E+01  0.38477567402E+02  0.00000000000E+00 0. -1.
        -14    1    4    4    0    0  0.50837509203E+02  0.13220188802E+02 -0.13217117821E+02  0.54165652746E+02  0.00000000000E+00 0.  1.
</event>
<event>
12    1  0.8053217E-002  0.2405150E+03  0.7818608E-02  0.1119932E+00
         21   -1    0    0  501  502  0.00000000000E+00  0.00000000000E+00  0.93799891900E+03  0.93799891900E+03  0.00000000000E+00 0.  1.
         21   -1    0    0  502  503 -0.00000000000E+00 -0.00000000000E+00 -0.10377465650E+03  0.10377465650E+03  0.00000000000E+00 0.  1.
         -6    2    1    2    0  503 -0.57623932359E+02  0.15691518349E+03  0.83916881044E+02  0.25473420845E+03  0.17292941231E+03 0.  0.
        -24    2    3    3    0    0  0.27390341737E+00  0.13679767551E+03  0.10474962557E+03  0.18982683785E+03  0.79674746693E+02 0.  0.
          6    2    1    2  501    0  0.57623932359E+02 -0.15691518349E+03  0.75030738146E+03  0.78703936704E+03  0.16889910070E+03 0.  0.
         24    2    5    5    0    0  0.39723487458E+02 -0.10807373305E+03  0.70589923844E+03  0.71848219108E+03  0.68301075001E+02 0.  0.
          5    1    5    5  501    0  0.17900444901E+02 -0.48841450445E+02  0.44408143019E+02  0.68557175960E+02  0.47000000000E+01 0. -1.
        -13    1    6    6    0    0  0.14480169898E+01  0.67395235695E+01  0.12083996029E+03  0.12103641574E+03  0.00000000000E+00 0.  1.
         14    1    6    6    0    0  0.38275470468E+02 -0.11481325661E+03  0.58505927814E+03  0.59744577534E+03  0.00000000000E+00 0. -1.
         -5    1    3    3    0  503 -0.57897835777E+02  0.20117507977E+02 -0.20832744527E+02  0.64907370609E+02  0.47000000000E+01 0.  1.
         11    1    4    4    0    0 -0.39547543921E+02  0.63525932128E+02  0.46433560705E+02  0.88066042506E+02  0.00000000000E+00 0. -1.
        -12    1    4    4    0    0  0.39821447338E+02  0.73271743385E+02  0.58316064865E+02  0.10176079534E+03  0.00000000000E+00 0.  1.
</event>
<event>
12    1  0.8053217E-002  0.3373552E+03  0.7818608E-02  0.1067943E+00
         21   -1    0    0  503  502  0.00000000000E+00  0.00000000000E+00  0.19396634838E+03  0.19396634838E+03  0.00000000000E+00 0.  1.
         21   -1    0    0  501  503 -0.00000000000E+00 -0.00000000000E+00 -0.59566048760E+03  0.59566048760E+03  0.00000000000E+00 0. -1.
          6    2    1    2  501    0 -0.14778342641E+03 -0.24971825058E+03 -0.15194724291E+03  0.36999522096E+03  0.17207368511E+03 0.  0.
         24    2    3    3    0    0 -0.17417356584E+02 -0.15198658366E+03 -0.99141891297E+02  0.19865554067E+03  0.78940631529E+02 0.  0.
         -6    2    1    2    0  502  0.14778342641E+03  0.24971825058E+03 -0.24974689632E+03  0.41963161502E+03  0.17180813225E+03 0.  0.
        -24    2    5    5    0    0  0.18763910950E+02  0.13865224055E+03 -0.13857185027E+03  0.21625099938E+03  0.89363353123E+02 0.  0.
          5    1    3    3  501    0 -0.13036606983E+03 -0.97731666929E+02 -0.52805351614E+02  0.17133968029E+03  0.47000000000E+01 0. -1.
        -11    1    4    4    0    0 -0.14427542325E+00 -0.16820296087E+02  0.13730668076E+02  0.21713461762E+02  0.00000000000E+00 0.  1.
         12    1    4    4    0    0 -0.17273081161E+02 -0.13516628757E+03 -0.11287255937E+03  0.17694207891E+03  0.00000000000E+00 0. -1.
         -5    1    5    5    0  502  0.12901951546E+03  0.11106601003E+03 -0.11117504604E+03  0.20338061564E+03  0.47000000000E+01 0.  1.
         11    1    6    6    0    0  0.52853556071E+02  0.10770062857E+03 -0.10080618034E+03  0.15669974403E+03  0.00000000000E+00 0. -1.
        -12    1    6    6    0    0 -0.34089645121E+02  0.30951611983E+02 -0.37765669936E+02  0.59551255357E+02  0.00000000000E+00 0.  1.
</event>
<event>
12    1  0.8053217E-002  0.1798494E+03  0.7818608E-02  0.1169712E+00
         21   -1    0    0  501  502  0.00000000000E+00  0.00000000000E+00  0.14144300038E+03  0.14144300038E+03  0.00000000000E+00 0.  1.
         21   -1    0    0  502  503 -0.00000000000E+00 -0.00000000000E+00 -0.29900778805E+03  0.29900778805E+03  0.00000000000E+00 0.  1.
         -6    2    1    2    0  503 -0.53367128331E+02 -0.41529633991E+01 -0.19100194500E+03  0.25751956207E+03  0.16422327594E+03 0.  0.
        -24    2    3    3    0    0 -0.46691380948E+02  0.37357808974E+02 -0.50962070743E+02  0.11122887129E+03  0.78733971115E+02 0.  0.
          6    2    1    2  501    0  0.53367128331E+02  0.41529633991E+01  0.33437157338E+02  0.18293122636E+03  0.17169884274E+03 0.  0.
         24    2    5    5    0    0  0.27274547159E+02  0.26226739227E+02  0.83109695585E+02  0.12245374768E+03  0.81584042854E+02 0.  0.
          5    1    5    5  501    0  0.26092581173E+02 -0.22073775827E+02 -0.49672538247E+02  0.60477478680E+02  0.47000000000E+01 0. -1.
        -11    1    6    6    0    0  0.47997569300E+02  0.23528134269E+01  0.20359806952E+02  0.52190268526E+02  0.00000000000E+00 0.  1.
         12    1    6    6    0    0 -0.20723022141E+02  0.23873925800E+02  0.62749888633E+02  0.70263479157E+02  0.00000000000E+00 0. -1.
         -5    1    3    3    0  503 -0.66757473837E+01 -0.41510772373E+02 -0.14003987426E+03  0.14629069078E+03  0.47000000000E+01 0.  1.
         11    1    4    4    0    0  0.15088443768E+02  0.21547621790E+02 -0.37899756035E+02  0.46134072524E+02  0.00000000000E+00 0. -1.
        -12    1    4    4    0    0 -0.61779824715E+02  0.15810187184E+02 -0.13062314708E+02  0.65094798764E+02  0.00000000000E+00 0.  1.
</event>
<event>
12    1  0.8053217E-002  0.1912357E+03  0.7818608E-02  0.1157447E+00
         21   -1    0    0  501  502  0.00000000000E+00  0.00000000000E+00  0.99026034631E+02  0.99026034631E+02  0.00000000000E+00 0.  1.
         21   -1    0    0  502  503 -0.00000000000E+00 -0.00000000000E+00 -0.59488425694E+03  0.59488425694E+03  0.00000000000E+00 0.  1.
         -6    2    1    2    0  503 -0.28071507665E+01  0.84304332159E+02 -0.46214168719E+03  0.50014601157E+03  0.17162748420E+03 0.  0.
        -24    2    3    3    0    0 -0.60506778877E+02  0.29638569765E+02 -0.32732023309E+03  0.34356853187E+03  0.79757670452E+02 0.  0.
          6    2    1    2  501    0  0.28071507665E+01 -0.84304332159E+02 -0.33716535121E+02  0.19376428000E+03  0.17115107639E+03 0.  0.
         24    2    5    5    0    0 -0.65240131623E+01 -0.10670487345E+03  0.19862235569E+02  0.13475894517E+03  0.79605101195E+02 0.  0.
          5    1    5    5  501    0  0.93311639289E+01  0.22400541287E+02 -0.53578770690E+02  0.59005334834E+02  0.47000000000E+01 0. -1.
        -11    1    6    6    0    0 -0.91176093088E+00 -0.26201792588E+02  0.43394317953E+02  0.50699428729E+02  0.00000000000E+00 0.  1.
         12    1    6    6    0    0 -0.56122522314E+01 -0.80503080859E+02 -0.23532082384E+02  0.84059516440E+02  0.00000000000E+00 0. -1.
         -5    1    3    3    0  503  0.57699628110E+02  0.54665762394E+02 -0.13482145410E+03  0.15657747970E+03  0.47000000000E+01 0.  1.
         13    1    4    4    0    0 -0.53099864108E+02  0.48907182913E+02 -0.16714520866E+03  0.18206874769E+03  0.00000000000E+00 0. -1.
        -14    1    4    4    0    0 -0.74069147687E+01 -0.19268613148E+02 -0.16017502443E+03  0.16149978418E+03  0.00000000000E+00 0.  1.
</event>
<event>
12    1  0.8053217E-002  0.2515374E+03  0.7818608E-02  0.1112678E+00
         21   -1    0    0  501  502  0.00000000000E+00  0.00000000000E+00  0.84098369978E+03  0.84098369978E+03  0.00000000000E+00 0. -1.
         21   -1    0    0  502  503 -0.00000000000E+00 -0.00000000000E+00 -0.14791124728E+03  0.14791124728E+03  0.00000000000E+00 0.  1.
         -6    2    1    2    0  503 -0.14562356547E+03  0.10626027060E+03 -0.83473068889E+00  0.25153879995E+03  0.17542406670E+03 0.  0.
        -24    2    3    3    0    0 -0.32448271359E+02  0.96705858211E+01 -0.42445336919E+02  0.96969246181E+02  0.80343123754E+02 0.  0.
          6    2    1    2  501    0  0.14562356547E+03 -0.10626027060E+03  0.69390718319E+03  0.73735614712E+03  0.17230624158E+03 0.  0.
         24    2    5    5    0    0  0.38878188549E+02 -0.69902512637E+01  0.39566587129E+03  0.40536355329E+03  0.78789285301E+02 0.  0.
          5    1    5    5  501    0  0.10674537692E+03 -0.99270019334E+02  0.29824131190E+03  0.33199259383E+03  0.47000000000E+01 0. -1.
        -13    1    6    6    0    0 -0.57658027566E+01  0.24028481807E+02  0.22242967588E+03  0.22379806329E+03  0.00000000000E+00 0.  1.
         14    1    6    6    0    0  0.44643991306E+02 -0.31018733071E+02  0.17323619540E+03  0.18156549000E+03  0.00000000000E+00 0. -1.
         -5    1    3    3    0  503 -0.11317529411E+03  0.96589684776E+02  0.41610606230E+02  0.15456955377E+03  0.47000000000E+01 0.  1.
         11    1    4    4    0    0  0.42222068214E+01  0.31958173666E+02 -0.43380932805E+02  0.54046805878E+02  0.00000000000E+00 0. -1.
        -12    1    4    4    0    0 -0.36670478180E+02 -0.22287587845E+02  0.93559588675E+00  0.42922440304E+02  0.00000000000E+00 0.  1.
</event>
<event>
12    1  0.8053217E-002  0.1976192E+03  0.7818608E-02  0.1154231E+00
         21   -1    0    0  501  502  0.00000000000E+00  0.00000000000E+00  0.94933425335E+03  0.94933425335E+03  0.00000000000E+00 0. -1.
         21   -1    0    0  502  503 -0.00000000000E+00 -0.00000000000E+00 -0.76938839054E+02  0.76938839054E+02  0.00000000000E+00 0.  1.
         -6    2    1    2    0  503 -0.12746069217E+02  0.68028978542E+02  0.68809211194E+02  0.19874415918E+03  0.17313038168E+03 0.  0.
        -24    2    3    3    0    0 -0.66268595808E+02  0.62690052331E+02  0.79046315529E+02  0.14378914766E+03  0.78137248061E+02 0.  0.
          6    2    1    2  501    0  0.12746069217E+02 -0.68028978542E+02  0.80358620310E+03  0.82752893322E+03  0.18510252648E+03 0.  0.
         24    2    5    5    0    0 -0.48610968799E+02 -0.39016145634E+02  0.23957710622E+03  0.25943142227E+03  0.77602752073E+02 0.  0.
          5    1    5    5  501    0  0.61357038016E+02 -0.29012832908E+02  0.56400909688E+03  0.56809751095E+03  0.47000000000E+01 0. -1.
        -11    1    6    6    0    0 -0.37358992384E+02  0.12132542006E+02  0.55121737872E+02  0.67685292889E+02  0.00000000000E+00 0.  1.
         12    1    6    6    0    0 -0.11251976415E+02 -0.51148687640E+02  0.18445536835E+03  0.19174612938E+03  0.00000000000E+00 0. -1.
         -5    1    3    3    0  503  0.53522526591E+02  0.53389262108E+01 -0.10237104335E+02  0.54955011518E+02  0.47000000000E+01 0.  1.
         11    1    4    4    0    0 -0.39806695456E+02 -0.97745024982E+01  0.15429985620E+02  0.43797241448E+02  0.00000000000E+00 0. -1.
        -12    1    4    4    0    0 -0.26461900351E+02  0.72464554829E+02  0.63616329910E+02  0.99991906212E+02  0.00000000000E+00 0.  1.
</event>
<event>
12    1  0.8053217E-002  0.1960431E+03  0.7818608E-02  0.1153519E+00
         21   -1    0    0  503  502  0.00000000000E+00  0.00000000000E+00  0.18973416905E+04  0.18973416905E+04  0.00000000000E+00 0. -1.
         21   -1    0    0  501  503 -0.00000000000E+00 -0.00000000000E+00 -0.21453661716E+02  0.21453661716E+02  0.00000000000E+00 0.  1.
          6    2    1    2  501    0  0.15674579752E+02 -0.91409735971E+02  0.69820944748E+03  0.72520985965E+03  0.17271790787E+03 0.  0.
         24    2    3    3    0    0 -0.34995326765E+02 -0.10357174546E+03  0.58945476499E+03  0.60452421483E+03  0.77722757253E+02 0.  0.
         -6    2    1    2    0  502 -0.15674579752E+02  0.91409735971E+02  0.11776785813E+04  0.11935854926E+04  0.17064013281E+03 0.  0.
        -24    2    5    5    0    0  0.16165977382E+02  0.22108716772E+02  0.33900203075E+03  0.35143532853E+03  0.88511463120E+02 0.  0.
          5    1    3    3  501    0  0.50669906517E+02  0.12162009494E+02  0.10875468250E+03  0.12068564482E+03  0.47000000000E+01 0. -1.
        -13    1    4    4    0    0  0.14489417711E+02 -0.74331936954E+02  0.36971306010E+03  0.37738962212E+03  0.00000000000E+00 0.  1.
         14    1    4    4    0    0 -0.49484744476E+02 -0.29239808510E+02  0.21974170489E+03  0.22713459271E+03  0.00000000000E+00 0. -1.
         -5    1    5    5    0  502 -0.31840557134E+02  0.69301019199E+02  0.83867655056E+03  0.84215016405E+03  0.47000000000E+01 0.  1.
         11    1    6    6    0    0  0.90149446468E+01 -0.19104076063E+02  0.26943210818E+03  0.27025894225E+03  0.00000000000E+00 0. -1.
        -12    1    6    6    0    0  0.71510327347E+01  0.41212792835E+02  0.69569922569E+02  0.81176386275E+02  0.00000000000E+00 0.  1.
</event>
<event>
12    1  0.8053217E-002  0.2396952E+03  0.7818608E-02  0.1120141E+00
         21   -1    0    0  501  502  0.00000000000E+00  0.00000000000E+00  0.93849779477E+03  0.93849779477E+03  0.00000000000E+00 0.  1.
         21   -1    0    0  502  503 -0.00000000000E+00 -0.00000000000E+00 -0.62511295638E+02  0.62511295638E+02  0.00000000000E+00 0. -1.
         -6    2    1    2    0  503  0.14455336889E+03  0.76348273998E+02  0.51509854396E+03  0.56777254468E+03  0.17411035895E+03 0.  0.
        -24    2    3    3    0    0  0.35824256980E+02 -0.24321069701E+02  0.18670022389E+03  0.20746173002E+03  0.79426091426E+02 0.  0.
          6    2    1    2  501    0 -0.14455336889E+03 -0.76348273998E+02  0.36088795516E+03  0.43323654573E+03  0.17529704211E+03 0.  0.
         24    2    5    5    0    0 -0.78470398067E+02 -0.26614624668E+02  0.31820828135E+03  0.34004835192E+03  0.86662735401E+02 0.  0.
          5    1    5    5  501    0 -0.66082970819E+02 -0.49733649330E+02  0.42679673816E+02  0.93188193807E+02  0.47000000000E+01 0. -1.
        -13    1    6    6    0    0  0.13760929525E+01  0.56497081217E+01  0.15845174550E+03  0.15855840717E+03  0.00000000000E+00 0.  1.
         14    1    6    6    0    0 -0.79846491019E+02 -0.32264332790E+02  0.15975653585E+03  0.18148994475E+03  0.00000000000E+00 0. -1.
         -5    1    3    3    0  503  0.10872911191E+03  0.10066934370E+03  0.32839832007E+03  0.36031081466E+03  0.47000000000E+01 0.  1.
         13    1    4    4    0    0 -0.54897973166E+01  0.46718302379E+01 -0.52942826246E+01  0.89438974087E+01  0.00000000000E+00 0. -1.
        -14    1    4    4    0    0  0.41314054297E+02 -0.28992899939E+02  0.19199450652E+03  0.19851783261E+03  0.00000000000E+00 0.  1.
</event>
<event>
12    1  0.8053217E-002  0.1919695E+03  0.7818608E-02  0.1156897E+00
         21   -1    0    0  501  502  0.00000000000E+00  0.00000000000E+00  0.29122195050E+02  0.29122195050E+02  0.00000000000E+00 0.  1.
         21   -1    0    0  502  503 -0.00000000000E+00 -0.00000000000E+00 -0.12956815718E+04  0.12956815718E+04  0.00000000000E+00 0.  1.
         -6    2    1    2    0  503  0.83590940181E+02 -0.75860072041E+01 -0.74536915792E+03  0.76969309703E+03  0.17264787650E+03 0.  0.
        -24    2    3    3    0    0  0.87517948612E+02 -0.11511315482E+02 -0.75074130504E+03  0.76064990042E+03  0.84757667542E+02 0.  0.
          6    2    1    2  501    0 -0.83590940181E+02  0.75860072041E+01 -0.52119021879E+03  0.55511066977E+03  0.17164969778E+03 0.  0.
         24    2    5    5    0    0 -0.53823628158E+02 -0.16422266167E+02 -0.50342225670E+03  0.51268095693E+03  0.79000767577E+02 0.  0.
          5    1    5    5  501    0 -0.29767312024E+02  0.24008273371E+02 -0.17767962084E+02  0.42429712844E+02  0.47000000000E+01 0. -1.
        -11    1    6    6    0    0 -0.15218360934E+02 -0.26804774690E+02 -0.59944807530E+02  0.67405299536E+02  0.00000000000E+00 0.  1.
         12    1    6    6    0    0 -0.38605267224E+02  0.10382508523E+02 -0.44347744917E+03  0.44527565739E+03  0.00000000000E+00 0. -1.
         -5    1    3    3    0  503 -0.39270084305E+01  0.39253082775E+01  0.53721471205E+01  0.90431966124E+01  0.47000000000E+01 0.  1.
         13    1    4    4    0    0  0.48336940767E+01 -0.11214203143E+02 -0.11420480088E+02  0.16719758252E+02  0.00000000000E+00 0. -1.
        -14    1    4    4    0    0  0.82684254535E+02 -0.29711233879E+00 -0.73932082495E+03  0.74393014217E+03  0.00000000000E+00 0.  1.
</event>
<event>
12    1  0.8053217E-002  0.2230193E+03  0.7818608E-02  0.1131686E+00
         21   -1    0    0  503  502  0.00000000000E+00  0.00000000000E+00  0.38857738180E+03  0.38857738180E+03  0.00000000000E+00 0.  1.
         21   -1    0    0  501  503 -0.00000000000E+00 -0.00000000000E+00 -0.13175098082E+03  0.13175098082E+03  0.00000000000E+00 0. -1.
          6    2    1    2  501    0  0.11630710263E+03  0.81053012900E+02  0.17287688087E+03  0.28203202334E+03  0.17192647622E+03 0.  0.
         24    2    3    3    0    0  0.70587043858E+02 -0.21231788977E+02  0.64608048030E+02  0.12615792468E+03  0.79424822724E+02 0.  0.
         -6    2    1    2    0  502 -0.11630710263E+03 -0.81053012900E+02  0.83949520102E+02  0.23829633928E+03  0.17216471870E+03 0.  0.
        -24    2    5    5    0    0 -0.25044871898E+02 -0.97111919861E+02  0.30694739284E+02  0.13131575725E+03  0.79017026617E+02 0.  0.
          5    1    3    3  501    0  0.45720058773E+02  0.10228480188E+03  0.10826883284E+03  0.15587409866E+03  0.47000000000E+01 0. -1.
        -11    1    4    4    0    0  0.70416950778E+02 -0.91411061107E+01  0.79749582257E+02  0.10678062862E+03  0.00000000000E+00 0.  1.
         12    1    4    4    0    0  0.17009307978E+00 -0.12090682867E+02 -0.15141534226E+02  0.19377296059E+02  0.00000000000E+00 0. -1.
         -5    1    5    5    0  502 -0.91262230733E+02  0.16058906960E+02  0.53254780818E+02  0.10698058203E+03  0.47000000000E+01 0.  1.
         11    1    6    6    0    0 -0.23917467077E+02 -0.52774265327E+02 -0.22411946760E+02  0.62124581848E+02  0.00000000000E+00 0. -1.
        -12    1    6    6    0    0 -0.11274048213E+01 -0.44337654533E+02  0.53106686044E+02  0.69191175403E+02  0.00000000000E+00 0.  1.
</event>
<event>
12    1  0.8053217E-002  0.2174609E+03  0.7818608E-02  0.1135793E+00
         21   -1    0    0  503  502  0.00000000000E+00  0.00000000000E+00  0.10465749638E+04  0.10465749638E+04  0.00000000000E+00 0. -1.
         21   -1    0    0  501  503 -0.00000000000E+00 -0.00000000000E+00 -0.45202048703E+02  0.45202048703E+02  0.00000000000E+00 0.  1.
          6    2    1    2  501    0 -0.13377498436E+03  0.12348488716E+01  0.51214912837E+03  0.55639944329E+03  0.17142444259E+03 0.  0.
         24    2    3    3    0    0 -0.19947129019E+01 -0.16988638509E+02  0.23198438659E+03  0.24621803190E+03  0.80709174778E+02 0.  0.
         -6    2    1    2    0  502  0.13377498436E+03 -0.12348488716E+01  0.48922378672E+03  0.53537756920E+03  0.17144082600E+03 0.  0.
        -24    2    5    5    0    0  0.51680970900E+02  0.58829511566E+02  0.21097739824E+03  0.23908329463E+03  0.80731189877E+02 0.  0.
          5    1    3    3  501    0 -0.13178027146E+03  0.18223487381E+02  0.28016474178E+03  0.31018141140E+03  0.47000000000E+01 0. -1.
        -13    1    4    4    0    0 -0.19602884896E+02 -0.14534276730E+02  0.15294392166E+02  0.28799943195E+02  0.00000000000E+00 0.  1.
         14    1    4    4    0    0  0.17608171995E+02 -0.24543617790E+01  0.21668999442E+03  0.21741808870E+03  0.00000000000E+00 0. -1.
         -5    1    5    5    0  502  0.82094013460E+02 -0.60064360437E+02  0.27824638848E+03  0.29629427457E+03  0.47000000000E+01 0.  1.
         13    1    6    6    0    0 -0.21762104150E+02  0.99974163476E+01  0.37948110210E+02  0.44873116442E+02  0.00000000000E+00 0. -1.
        -14    1    6    6    0    0  0.73443075049E+02  0.48832095218E+02  0.17302928802E+03  0.19421017818E+03  0.00000000000E+00 0.  1.
</event>
<event>
12    1  0.8053217E-002  0.2684715E+03  0.7818608E-02  0.1102274E+00
         21   -1    0    0  503  502  0.00000000000E+00  0.00000000000E+00  0.43249737253E+03  0.43249737253E+03  0.00000000000E+00 0.  1.
         21   -1    0    0  501  503 -0.00000000000E+00 -0.00000000000E+00 -0.16619913958E+03  0.16619913958E+03  0.00000000000E+00 0.  1.
          6    2    1    2  501    0 -0.46206192990E+02  0.20097194079E+03  0.12794732970E+03  0.29667342580E+03  0.17064544865E+03 0.  0.
         24    2    3    3    0    0  0.39209411451E+02  0.11202801205E+03  0.79085707869E+02  0.16394665371E+03  0.80847403448E+02 0.  0.
         -6    2    1    2    0  502  0.46206192990E+02 -0.20097194079E+03  0.13835090325E+03  0.30202308630E+03  0.17190764664E+03 0.  0.
        -24    2    5    5    0    0  0.88727560523E+02 -0.10499874704E+03  0.65248663047E+02  0.17401938269E+03  0.84427724394E+02 0.  0.
          5    1    3    3  501    0 -0.85415604441E+02  0.88943928744E+02  0.48861621832E+02  0.13272677209E+03  0.47000000000E+01 0. -1.
        -13    1    4    4    0    0  0.10377589222E+02  0.41212912953E+02  0.76417711458E+02  0.87440638015E+02  0.00000000000E+00 0.  1.
         14    1    4    4    0    0  0.28831822229E+02  0.70815099093E+02  0.26679964115E+01  0.76506015694E+02  0.00000000000E+00 0. -1.
         -5    1    5    5    0  502 -0.42521367532E+02 -0.95973193746E+02  0.73102240206E+02  0.12800370361E+03  0.47000000000E+01 0.  1.
         11    1    6    6    0    0 -0.48737157719E+01 -0.26191155759E+02  0.41594299280E+02  0.49394488337E+02  0.00000000000E+00 0. -1.
        -12    1    6    6    0    0  0.93601276295E+02 -0.78807591285E+02  0.23654363767E+02  0.12462489436E+03  0.00000000000E+00 0.  1.
</event>
<event>
12    1  0.8053217E-002  0.1761797E+03  0.7818608E-02  0.1171686E+00
         21   -1    0    0  501  502  0.00000000000E+00  0.00000000000E+00  0.12344903618E+04  0.12344903618E+04  0.00000000000E+00 0. -1.
         21   -1    0    0  502  503 -0.00000000000E+00 -0.00000000000E+00 -0.29828341073E+02  0.29828341073E+02  0.00000000000E+00 0. -1.
         -6    2    1    2    0  503 -0.33228149331E+02  0.57069250178E+00  0.85413177500E+03  0.87200409286E+03  0.17246916625E+03 0.  0.
        -24    2    3    3    0    0 -0.41155692273E+02 -0.87671296739E+01  0.85390529490E+03  0.85888227312E+03  0.82181827920E+02 0.  0.
          6    2    1    2  501    0  0.33228149331E+02 -0.57069250178E+00  0.35053024573E+03  0.39231461001E+03  0.17301694848E+03 0.  0.
         24    2    5    5    0    0  0.78095282137E+02 -0.38172228692E+02  0.23720934909E+03  0.26467977642E+03  0.78937422155E+02 0.  0.
          5    1    5    5  501    0 -0.44867132806E+02  0.37601536190E+02  0.11332089664E+03  0.12763483359E+03  0.47000000000E+01 0. -1.
        -11    1    6    6    0    0  0.79182816477E+02 -0.34166095108E+02  0.24283190949E+03  0.25769085500E+03  0.00000000000E+00 0.  1.
         12    1    6    6    0    0 -0.10875343392E+01 -0.40061335830E+01 -0.56225604039E+01  0.69889214275E+01  0.00000000000E+00 0. -1.
         -5    1    3    3    0  503  0.79275429424E+01  0.93378221757E+01  0.22648009083E+00  0.13121819741E+02  0.47000000000E+01 0.  1.
         11    1    4    4    0    0 -0.45669375519E+01  0.10626334888E+02  0.68059690801E+03  0.68069517929E+03  0.00000000000E+00 0. -1.
        -12    1    4    4    0    0 -0.36588754722E+02 -0.19393464562E+02  0.17330838689E+03  0.17818709383E+03  0.00000000000E+00 0.  1.
</event>
<event>
12    1  0.8053217E-002  0.2081308E+03  0.7818608E-02  0.1143271E+00
         21   -1    0    0  501  502  0.00000000000E+00  0.00000000000E+00  0.20859954029E+03  0.20859954029E+03  0.00000000000E+00 0. -1.
         21   -1    0    0  502  503 -0.00000000000E+00 -0.00000000000E+00 -0.26324734153E+03  0.26324734153E+03  0.00000000000E+00 0.  1.
         -6    2    1    2    0  503  0.36397814516E+02  0.11147594853E+03 -0.13683111308E+03  0.24908064656E+03  0.17194978040E+03 0.  0.
        -24    2    3    3    0    0  0.99212052101E+01  0.32346929676E+02 -0.14147897467E+03  0.16537816701E+03  0.78669458347E+02 0.  0.
          6    2    1    2  501    0 -0.36397814516E+02 -0.11147594853E+03  0.82183311847E+02  0.22276623527E+03  0.17064293371E+03 0.  0.
         24    2    5    5    0    0 -0.38683940227E+02 -0.26161958208E+02 -0.45269354571E+01  0.10101049494E+03  0.89452398817E+02 0.  0.
          5    1    5    5  501    0  0.22861257109E+01 -0.85313990321E+02  0.86710247304E+02  0.12175574033E+03  0.47000000000E+01 0. -1.
        -13    1    6    6    0    0  0.88450952213E+01  0.27411974105E+02 -0.57957570756E+01  0.29380994434E+02  0.00000000000E+00 0.  1.
         14    1    6    6    0    0 -0.47529035448E+02 -0.53573932313E+02  0.12688216185E+01  0.71629500504E+02  0.00000000000E+00 0. -1.
         -5    1    3    3    0  503  0.26476609306E+02  0.79129018853E+02  0.46478615917E+01  0.83702479547E+02  0.47000000000E+01 0.  1.
         13    1    4    4    0    0  0.36240369043E+02  0.33518248574E+02 -0.12477154540E+03  0.13418187611E+03  0.00000000000E+00 0. -1.
        -14    1    4    4    0    0 -0.26319163833E+02 -0.11713188982E+01 -0.16707429277E+02  0.31196290900E+02  0.00000000000E+00 0.  1.
</event>
<event>
12    1  0.8053217E-002  0.3269614E+03  0.7818608E-02  0.1072579E+00
         21   -1    0    0  501  502  0.00000000000E+00  0.00000000000E+00  0.57554401733E+03  0.57554401733E+03  0.00000000000E+00 0. -1.
         21   -1    0    0  502  503 -0.00000000000E+00 -0.00000000000E+00 -0.20122579729E+03  0.20122579729E+03  0.00000000000E+00 0. -1.
         -6    2    1    2    0  503  0.12543416945E+03  0.24852467163E+03  0.77644643775E+02  0.33527355792E+03  0.16994535788E+03 0.  0.
        -24    2    3    3    0    0  0.15390469508E+03  0.17572183474E+03  0.43520687286E+02  0.24984898128E+03  0.77237587059E+02 0.  0.
          6    2    1    2  501    0 -0.12543416945E+03 -0.24852467163E+03  0.29667357627E+03  0.44149625669E+03  0.17148029201E+03 0.  0.
         24    2    5    5    0    0 -0.10854220922E+03 -0.12978482889E+03  0.25137107147E+03  0.31320402967E+03  0.79270648012E+02 0.  0.
          5    1    5    5  501    0 -0.16891960229E+02 -0.11873984274E+03  0.45302504793E+02  0.12829222703E+03  0.47000000000E+01 0. -1.
        -11    1    6    6    0    0 -0.89658077412E+02 -0.46961225206E+02  0.14987386027E+03  0.18084828313E+03  0.00000000000E+00 0.  1.
         12    1    6    6    0    0 -0.18884131809E+02 -0.82823603679E+02  0.10149721120E+03  0.13235574654E+03  0.00000000000E+00 0. -1.
         -5    1    3    3    0  503 -0.28470525627E+02  0.72802836884E+02  0.34123956489E+02  0.85424576641E+02  0.47000000000E+01 0.  1.
         11    1    4    4    0    0  0.80456939022E+02  0.13882399919E+03  0.90208682164E+01  0.16070718046E+03  0.00000000000E+00 0. -1.
        -12    1    4    4    0    0  0.73447756055E+02  0.36897835548E+02  0.34499819069E+02  0.89141800820E+02  0.00000000000E+00 0.  1.
</event>
<event>
12    1  0.8053217E-002  0.1932286E+03  0.7818608E-02  0.1156100E+00
         21   -1    0    0  503  502  0.00000000000E+00  0.00000000000E+00  0.30311674083E+03  0.30311674083E+03  0.00000000000E+00 0. -1.
         21   -1    0    0  501  503 -0.00000000000E+00 -0.00000000000E+00 -0.14853185323E+03  0.14853185323E+03  0.00000000000E+00 0. -1.
          6    2    1    2  501    0 -0.75015564598E+02 -0.37291113006E+02 -0.18313361043E+02  0.19409453676E+03  0.17412451856E+03 0.  0.
         24    2    3    3    0    0 -0.50897900630E+02  0.39269620726E+02  0.23327102608E+02  0.10354495985E+03  0.77747704750E+02 0.  0.
         -6    2    1    2    0  502  0.75015564598E+02  0.37291113006E+02  0.17289824865E+03  0.25755405730E+03  0.17152937360E+03 0.  0.
        -24    2    5    5    0    0  0.67360380572E+02 -0.40559927715E+02  0.95130622625E+02  0.14714898477E+03  0.80127771408E+02 0.  0.
          5    1    3    3  501    0 -0.24117663968E+02 -0.76560733732E+02 -0.41640463651E+02  0.90549576906E+02  0.47000000000E+01 0. -1.
        -13    1    4    4    0    0  0.11951300268E+02  0.23577791441E+02  0.28114509246E+02  0.38589784367E+02  0.00000000000E+00 0.  1.
         14    1    4    4    0    0 -0.62849200898E+02  0.15691829285E+02 -0.47874066388E+01  0.64955175484E+02  0.00000000000E+00 0. -1.
         -5    1    5    5    0  502  0.76551840263E+01  0.77851040722E+02  0.77767626022E+02  0.11040507253E+03  0.47000000000E+01 0.  1.
         13    1    6    6    0    0  0.71619606633E+02 -0.15046282901E+01  0.71963715362E+02  0.10154018066E+03  0.00000000000E+00 0. -1.
        -14    1    6    6    0    0 -0.42592260613E+01 -0.39055299425E+02  0.23166907263E+02  0.45608804106E+02  0.00000000000E+00 0.  1.
</event>
<event>
12    1  0.8053217E-002  0.3618547E+03  0.7818608E-02  0.1057897E+00
         21   -1    0    0  501  502  0.00000000000E+00  0.00000000000E+00  0.16652643652E+03  0.16652643652E+03  0.00000000000E+00 0.  1.
         21   -1    0    0  502  503 -0.00000000000E+00 -0.00000000000E+00 -0.87660602065E+03  0.87660602065E+03  0.00000000000E+00 0.  1.
         -6    2    1    2    0  503  0.31294071519E+03  0.52009067638E+02 -0.52358085520E+03  0.63645563218E+03  0.17407476974E+03 0.  0.
        -24    2    3    3    0    0  0.23549961146E+03  0.66542416950E+01 -0.46976762178E+03  0.53170765428E+03  0.80790254461E+02 0.  0.
          6    2    1    2  501    0 -0.31294071519E+03 -0.52009067638E+02 -0.18649872893E+03  0.40667682500E+03  0.17311103304E+03 0.  0.
         24    2    5    5    0    0 -0.27673637503E+03 -0.98055060973E+02 -0.14408322381E+03  0.33420508690E+03  0.68813141779E+02 0.  0.
          5    1    5    5  501    0 -0.36204340164E+02  0.46045993336E+02 -0.42415505114E+02  0.72471738099E+02  0.47000000000E+01 0. -1.
        -11    1    6    6    0    0 -0.99832800396E+02 -0.50744425036E+02 -0.88795094093E+02  0.14292009461E+03  0.00000000000E+00 0.  1.
         12    1    6    6    0    0 -0.17690357463E+03 -0.47310635937E+02 -0.55288129721E+02  0.19128499230E+03  0.00000000000E+00 0. -1.
         -5    1    3    3    0  503  0.77441103726E+02  0.45354825943E+02 -0.53813233423E+02  0.10474797790E+03  0.47000000000E+01 0.  1.
         11    1    4    4    0    0  0.51457035620E+01 -0.54875112769E+01  0.87676417004E+00  0.75736226848E+01  0.00000000000E+00 0. -1.
        -12    1    4    4    0    0  0.23035390790E+03  0.12141752972E+02 -0.47064438595E+03  0.52413403159E+03  0.00000000000E+00 0.  1.
</event>
<event>
12    1  0.8053217E-002  0.2107052E+03  0.7818608E-02  0.1141528E+00
         21   -1    0    0  501  502  0.00000000000E+00  0.00000000000E+00  0.98310348488E+02  0.98310348488E+02  0.00000000000E+00 0.  1.
         21   -1    0    0  502  503 -0.00000000000E+00 -0.00000000000E+00 -0.48009736465E+03  0.48009736465E+03  0.00000000000E+00 0.  1.
         -6    2    1    2    0  503 -0.19520041375E+02 -0.11905450568E+03 -0.26685278992E+03  0.33839406439E+03  0.16954387039E+03 0.  0.
        -24    2    3    3    0    0 -0.59805295903E+02 -0.10065894222E+03 -0.25560844207E+03  0.29246124555E+03  0.80554381795E+02 0.  0.
          6    2    1    2  501    0  0.19520041375E+02  0.11905450568E+03 -0.11493422624E+03  0.24001364875E+03  0.17274741066E+03 0.  0.
         24    2    5    5    0    0  0.77108550509E+02  0.80739121419E+02 -0.53266666647E+02  0.14722634919E+03  0.79835617551E+02 0.  0.
          5    1    5    5  501    0 -0.57588509133E+02  0.38315384257E+02 -0.61667559595E+02  0.92787299569E+02  0.47000000000E+01 0. -1.
        -13    1    6    6    0    0  0.74860363744E+02  0.22586933391E+02 -0.22334096494E+02  0.81320695313E+02  0.00000000000E+00 0.  1.
         14    1    6    6    0    0  0.22481867644E+01  0.58152188028E+02 -0.30932570152E+02  0.65905653873E+02  0.00000000000E+00 0. -1.
         -5    1    3    3    0  503  0.40285254527E+02 -0.18395563458E+02 -0.11244347850E+02  0.45932818832E+02  0.47000000000E+01 0.  1.
         11    1    4    4    0    0 -0.13085822805E+01  0.10710938908E+02 -0.46728140981E+01  0.11758902648E+02  0.00000000000E+00 0. -1.
        -12    1    4    4    0    0 -0.58496713622E+02 -0.11136988113E+03 -0.25093562797E+03  0.28070234291E+03  0.00000000000E+00 0.  1.
</event>
<event>
12    1  0.8053217E-002  0.1809793E+03  0.7818608E-02  0.1167231E+00
         21   -1    0    0  503  502  0.00000000000E+00  0.00000000000E+00  0.26938171591E+03  0.26938171591E+03  0.00000000000E+00 0. -1.
         21   -1    0    0  501  503 -0.00000000000E+00 -0.00000000000E+00 -0.16383254986E+03  0.16383254986E+03  0.00000000000E+00 0. -1.
          6    2    1    2  501    0  0.50465468926E+02 -0.23911983069E+02 -0.58721916189E+02  0.18879966215E+03  0.17052419916E+03 0.  0.
         24    2    3    3    0    0  0.17833782754E+02 -0.35742564736E+02  0.29999753409E+02  0.93414053898E+02  0.78934311422E+02 0.  0.
         -6    2    1    2    0  502 -0.50465468926E+02  0.23911983069E+02  0.16427108224E+03  0.24441460362E+03  0.17214808601E+03 0.  0.
        -24    2    5    5    0    0  0.19029131252E+01 -0.31981405353E+02  0.34267470090E+02  0.93452530643E+02  0.80825024655E+02 0.  0.
          5    1    3    3  501    0  0.32631686172E+02  0.11830581667E+02 -0.88721669597E+02  0.95385608249E+02  0.47000000000E+01 0. -1.
        -11    1    4    4    0    0 -0.27997760963E+02 -0.31242748411E+02  0.95476456912E+01  0.43024893788E+02  0.00000000000E+00 0.  1.
         12    1    4    4    0    0  0.45831543717E+02 -0.44998163252E+01  0.20452107717E+02  0.50389160110E+02  0.00000000000E+00 0. -1.
         -5    1    5    5    0  502 -0.52368382051E+02  0.55893388423E+02  0.13000361215E+03  0.15096207298E+03  0.47000000000E+01 0.  1.
         11    1    6    6    0    0 -0.33777927407E+02 -0.36140874924E+02  0.28438730876E+02  0.57060254416E+02  0.00000000000E+00 0. -1.
        -12    1    6    6    0    0  0.35680840532E+02  0.41594695710E+01  0.58287392140E+01  0.36392276227E+02  0.00000000000E+00 0.  1.
</event>
<event>
12    1  0.8053217E-002  0.2086210E+03  0.7818608E-02  0.1143288E+00
         21   -1    0    0  503  502  0.00000000000E+00  0.00000000000E+00  0.10821145777E+04  0.10821145777E+04  0.00000000000E+00 0. -1.
         21   -1    0    0  501  503 -0.00000000000E+00 -0.00000000000E+00 -0.39682507831E+02  0.39682507831E+02  0.00000000000E+00 0. -1.
          6    2    1    2  501    0  0.88578437062E+02  0.69675084816E+02  0.50339026061E+03  0.54490776409E+03  0.17556184075E+03 0.  0.
         24    2    3    3    0    0  0.10875398431E+03  0.75050051119E+02  0.50005351836E+03  0.52324750513E+03  0.79211685499E+02 0.  0.
         -6    2    1    2    0  502 -0.88578437062E+02 -0.69675084816E+02  0.53904180922E+03  0.57688932141E+03  0.17185592835E+03 0.  0.
        -24    2    5    5    0    0 -0.94691003382E+02  0.84328966723E+01  0.34363772390E+03  0.36631138619E+03  0.84021702548E+02 0.  0.
          5    1    3    3  501    0 -0.20175547249E+02 -0.53749663035E+01  0.33367422536E+01  0.21660258965E+02  0.47000000000E+01 0. -1.
        -13    1    4    4    0    0 -0.45633490308E+01  0.12923431753E+02  0.11499744570E+02  0.17890873870E+02  0.00000000000E+00 0.  1.
         14    1    4    4    0    0  0.11331733334E+03  0.62126619366E+02  0.48855377379E+03  0.50535663126E+03  0.00000000000E+00 0. -1.
         -5    1    5    5    0  502  0.61125663206E+01 -0.78107981488E+02  0.19540408532E+03  0.21057793522E+03  0.47000000000E+01 0.  1.
         11    1    6    6    0    0 -0.55079820414E+02  0.31665822833E+02  0.28412114173E+03  0.29113799843E+03  0.00000000000E+00 0. -1.
        -12    1    6    6    0    0 -0.39611182969E+02 -0.23232926161E+02  0.59516582166E+02  0.75173387757E+02  0.00000000000E+00 0.  1.
</event>
<event>
12    1  0.8053217E-002  0.2048331E+03  0.7818608E-02  0.1145767E+00
         21   -1    0    0  501  502  0.00000000000E+00  0.00000000000E+00  0.43255993108E+03  0.43255993108E+03  0.00000000000E+00 0. -1.
         21   -1    0    0  502  503 -0.00000000000E+00 -0.00000000000E+00 -0.10028168595E+03  0.10028168595E+03  0.00000000000E+00 0. -1.
         -6    2    1    2    0  503  0.54038395503E+02  0.97136451759E+02  0.11711512959E+03  0.23576962095E+03  0.17180140318E+03 0.  0.
        -24    2    3    3    0    0  0.26455236267E+02  0.56212802839E+02 -0.80413177506E+01  0.10115237827E+03  0.79419028642E+02 0.  0.
          6    2    1    2  501    0 -0.54038395503E+02 -0.97136451759E+02  0.21516311554E+03  0.29707199608E+03  0.17204931303E+03 0.  0.
         24    2    5    5    0    0  0.28360639092E+02 -0.45828378036E+02  0.64985248259E+02  0.11819326299E+03  0.82716375893E+02 0.  0.
          5    1    5    5  501    0 -0.82399034595E+02 -0.51308073723E+02  0.15017786728E+03  0.17887873309E+03  0.47000000000E+01 0. -1.
        -11    1    6    6    0    0 -0.51333668273E+01  0.20676753333E+02  0.27617335240E+02  0.34879747550E+02  0.00000000000E+00 0.  1.
         12    1    6    6    0    0  0.33494005919E+02 -0.66505131369E+02  0.37367913019E+02  0.83313515436E+02  0.00000000000E+00 0. -1.
         -5    1    3    3    0  503  0.27583159236E+02  0.40923648920E+02  0.12515644734E+03  0.13461724267E+03  0.47000000000E+01 0.  1.
         11    1    4    4    0    0  0.38908856647E+02  0.56028059954E+02  0.19483148375E+02  0.70941072013E+02  0.00000000000E+00 0. -1.
        -12    1    4    4    0    0 -0.12453620380E+02  0.18474288549E+00 -0.27524466126E+02  0.30211306262E+02  0.00000000000E+00 0.  1.
</event>
<event>
12    1  0.8053217E-002  0.3417735E+03  0.7818608E-02  0.1066135E+00
         21   -1    0    0  503  502  0.00000000000E+00  0.00000000000E+00  0.83502349879E+02  0.83502349879E+02  0.00000000000E+00 0. -1.
         21   -1    0    0  501  503 -0.00000000000E+00 -0.00000000000E+00 -0.14734391514E+04  0.14734391514E+04  0.00000000000E+00 0.  1.
          6    2    1    2  501    0  0.12220660685E+03  0.26828192128E+03 -0.87336629841E+03  0.93754326386E+03  0.17119882114E+03 0.  0.
         24    2    3    3    0    0  0.42442001913E+01  0.64186601816E+02 -0.32051357668E+03  0.33651227402E+03  0.79834983846E+02 0.  0.
         -6    2    1    2    0  502 -0.12220660685E+03 -0.26828192128E+03 -0.51657050309E+03  0.61939823740E+03  0.17291456788E+03 0.  0.
        -24    2    5    5    0    0 -0.15553881646E+03 -0.19922562738E+03 -0.39815289327E+03  0.47824361211E+03  0.79423246438E+02 0.  0.
          5    1    3    3  501    0  0.11796240666E+03  0.20409531947E+03 -0.55285272173E+03  0.60103098983E+03  0.47000000000E+01 0. -1.
        -11    1    4    4    0    0 -0.36375576509E+01  0.82392663120E+02 -0.24935158982E+03  0.26263662751E+03  0.00000000000E+00 0.  1.
         12    1    4    4    0    0  0.78817578421E+01 -0.18206061304E+02 -0.71161986854E+02  0.73875646515E+02  0.00000000000E+00 0. -1.
         -5    1    5    5    0  502  0.33332209606E+02 -0.69056293905E+02 -0.11841760982E+03  0.14115462529E+03  0.47000000000E+01 0.  1.
         13    1    6    6    0    0 -0.70826314195E+02 -0.41637749593E+02 -0.89555476818E+02  0.12153292723E+03  0.00000000000E+00 0. -1.
        -14    1    6    6    0    0 -0.84712502264E+02 -0.15758787779E+03 -0.30859741645E+03  0.35671068488E+03  0.00000000000E+00 0.  1.
</event>
<event>
12    1  0.8053217E-002  0.2140720E+03  0.7818608E-02  0.1141052E+00
         21   -1    0    0  501  502  0.00000000000E+00  0.00000000000E+00  0.21158222750E+03  0.21158222750E+03  0.00000000000E+00 0. -1.
         21   -1    0    0  502  503 -0.00000000000E+00 -0.00000000000E+00 -0.20478956106E+03  0.20478956106E+03  0.00000000000E+00 0. -1.
         -6    2    1    2    0  503 -0.62407411797E+00  0.10215362541E+03  0.21364984420E+02  0.21513549880E+03  0.18812513823E+03 0.  0.
        -24    2    3    3    0    0 -0.26030782828E+02 -0.74455691900E+01  0.49258971967E+02  0.99128391925E+02  0.81651415243E+02 0.  0.
          6    2    1    2  501    0  0.62407411797E+00 -0.10215362541E+03 -0.14572317975E+02  0.20123628976E+03  0.17276556141E+03 0.  0.
         24    2    5    5    0    0 -0.36152321545E+02  0.74831065589E+00  0.13802870736E+02  0.88238267390E+02  0.79296420282E+02 0.  0.
          5    1    5    5  501    0  0.36776395663E+02 -0.10290193607E+03 -0.28375188711E+02  0.11299802237E+03  0.47000000000E+01 0. -1.
        -13    1    6    6    0    0 -0.21516098277E+02 -0.12025342151E+02  0.45103521726E+02  0.51399212163E+02  0.00000000000E+00 0.  1.
         14    1    6    6    0    0 -0.14636223268E+02  0.12773652807E+02 -0.31300650990E+02  0.36839055227E+02  0.00000000000E+00 0. -1.
         -5    1    3    3    0  503  0.25406708710E+02  0.10959919460E+03 -0.27893987547E+02  0.11600710688E+03  0.47000000000E+01 0.  1.
         13    1    4    4    0    0 -0.29765662094E+01  0.25158280507E+02 -0.10361764947E+02  0.27370882289E+02  0.00000000000E+00 0. -1.
        -14    1    4    4    0    0 -0.23054216619E+02 -0.32603849697E+02  0.59620736914E+02  0.71757509636E+02  0.00000000000E+00 0.  1.
</event>
<event>
12    1  0.8053217E-002  0.2283133E+03  0.7818608E-02  0.1127837E+00
         21   -1    0    0  501  502  0.00000000000E+00  0.00000000000E+00  0.50156925318E+03  0.50156925318E+03  0.00000000000E+00 0. -1.
         21   -1    0    0  502  503 -0.00000000000E+00 -0.00000000000E+00 -0.15138619938E+03  0.15138619938E+03  0.00000000000E+00 0. -1.
         -6    2    1    2    0  503 -0.14827113077E+03 -0.11326872587E+02 -0.77209423215E+01  0.22844385960E+03  0.17324652313E+03 0.  0.
        -24    2    3    3    0    0 -0.99263939301E+01 -0.34842964158E+02 -0.63032569225E+01  0.88028858240E+02  0.79979893645E+02 0.  0.
          6    2    1    2  501    0  0.14827113077E+03  0.11326872587E+02  0.35790399611E+03  0.42451159296E+03  0.17321141954E+03 0.  0.
         24    2    5    5    0    0  0.25405149963E+02 -0.39986485421E+02  0.17210909630E+03  0.19588319413E+03  0.80649513669E+02 0.  0.
          5    1    5    5  501    0  0.12286598081E+03  0.51313358008E+02  0.18579489982E+03  0.22862839882E+03  0.47000000000E+01 0. -1.
        -13    1    6    6    0    0  0.13664373742E+02 -0.64642352697E+02  0.12678815456E+03  0.14297057392E+03  0.00000000000E+00 0.  1.
         14    1    6    6    0    0  0.11740776221E+02  0.24655867276E+02  0.45320941740E+02  0.52912620211E+02  0.00000000000E+00 0. -1.
         -5    1    3    3    0  503 -0.13834473684E+03  0.23516091571E+02 -0.14176853989E+01  0.14041500136E+03  0.47000000000E+01 0.  1.
         13    1    4    4    0    0 -0.43873141992E+01 -0.56467503439E+02 -0.21978056264E+02  0.60752468490E+02  0.00000000000E+00 0. -1.
        -14    1    4    4    0    0 -0.55390797309E+01  0.21624539281E+02  0.15674799341E+02  0.27276389750E+02  0.00000000000E+00 0.  1.
</event>
<event>
12    1  0.8053217E-002  0.1763016E+03  0.7818608E-02  0.1171739E+00
         21   -1    0    0  501  502  0.00000000000E+00  0.00000000000E+00  0.57035859911E+02  0.57035859911E+02  0.00000000000E+00 0. -1.
         21   -1    0    0  502  503 -0.00000000000E+00 -0.00000000000E+00 -0.75001079216E+03  0.75001079216E+03  0.00000000000E+00 0. -1.
         -6    2    1    2    0  503 -0.27783033230E+02 -0.27183973123E+02 -0.13442611794E+03  0.22170390750E+03  0.17196329866E+03 0.  0.
        -24    2    3    3    0    0 -0.36610102539E+02  0.45192442640E+02 -0.51927240085E+02  0.11150219445E+03  0.79709752385E+02 0.  0.
          6    2    1    2  501    0  0.27783033230E+02  0.27183973123E+02 -0.55854881431E+03  0.58534274457E+03  0.17069998631E+03 0.  0.
         24    2    5    5    0    0  0.86946123187E+02  0.36628085292E+02 -0.29761763892E+03  0.31758047920E+03  0.58136535861E+02 0.  0.
          5    1    5    5  501    0 -0.59163089956E+02 -0.94441121686E+01 -0.26093117539E+03  0.26776226537E+03  0.47000000000E+01 0. -1.
        -13    1    6    6    0    0  0.61173474230E+02 -0.14568317161E+01 -0.12855429467E+03  0.14237458687E+03  0.00000000000E+00 0.  1.
         14    1    6    6    0    0  0.25772648956E+02  0.38084917008E+02 -0.16906334425E+03  0.17520589233E+03  0.00000000000E+00 0. -1.
         -5    1    3    3    0  503  0.88270693090E+01 -0.72376415763E+02 -0.82498877855E+02  0.11020171305E+03  0.47000000000E+01 0.  1.
         13    1    4    4    0    0 -0.61235494533E+02  0.23068526070E+02 -0.31735188486E+02  0.72725957360E+02  0.00000000000E+00 0. -1.
        -14    1    4    4    0    0  0.24625391994E+02  0.22123916570E+02 -0.20192051599E+02  0.38776237092E+02  0.00000000000E+00 0.  1.
</event>
<event>
12    1  0.8053217E-002  0.1811492E+03  0.7818608E-02  0.1166797E+00
         21   -1    0    0  501  502  0.00000000000E+00  0.00000000000E+00  0.86336079527E+02  0.86336079527E+02  0.00000000000E+00 0. -1.
         21   -1    0    0  502  503 -0.00000000000E+00 -0.00000000000E+00 -0.73292724500E+03  0.73292724500E+03  0.00000000000E+00 0. -1.
         -6    2    1    2    0  503 -0.52665547291E+01  0.52063446197E+02 -0.60806613406E+03  0.63447573505E+03  0.17342634155E+03 0.  0.
        -24    2    3    3    0    0 -0.69351796630E+02  0.12963767345E+02 -0.36525960090E+03  0.38028524415E+03  0.78895880190E+02 0.  0.
          6    2    1    2  501    0  0.52665547291E+01 -0.52063446197E+02 -0.38525031414E+02  0.18478758948E+03  0.17298536398E+03 0.  0.
         24    2    5    5    0    0  0.18385747857E+02 -0.10017023351E+03 -0.62432957299E+01  0.12520087391E+03  0.72554591032E+02 0.  0.
          5    1    5    5  501    0 -0.13119193128E+02  0.48106787315E+02 -0.32281735684E+02  0.59586715574E+02  0.47000000000E+01 0. -1.
        -11    1    6    6    0    0 -0.26018004084E+02 -0.59009769206E+02 -0.39110061611E+01  0.64609483572E+02  0.00000000000E+00 0.  1.
         12    1    6    6    0    0  0.44403751941E+02 -0.41160464306E+02 -0.23322895688E+01  0.60591390336E+02  0.00000000000E+00 0. -1.
         -5    1    3    3    0  503  0.64085241901E+02  0.39099678851E+02 -0.24280653317E+03  0.25419049090E+03  0.47000000000E+01 0.  1.
         13    1    4    4    0    0 -0.69556914451E+02  0.36564467535E+02 -0.31656314355E+03  0.32617073518E+03  0.00000000000E+00 0. -1.
        -14    1    4    4    0    0  0.20511782101E+00 -0.23600700190E+02 -0.48696457343E+02  0.54114508965E+02  0.00000000000E+00 0.  1.
</event>
<event>
12    1  0.8053217E-002  0.1956722E+03  0.7818608E-02  0.1154293E+00
         21   -1    0    0  501  502  0.00000000000E+00  0.00000000000E+00  0.16124453255E+04  0.16124453255E+04  0.00000000000E+00 0.  1.
         21   -1    0    0  502  503 -0.00000000000E+00 -0.00000000000E+00 -0.23901453203E+02  0.23901453203E+02  0.00000000000E+00 0. -1.
         -6    2    1    2    0  503  0.17277860361E+01 -0.93863514681E+02  0.65428542650E+03  0.68181734307E+03  0.16724869309E+03 0.  0.
        -24    2    3    3    0    0  0.42759935160E+02 -0.81115347362E+02  0.27270799242E+03  0.29779965958E+03  0.76856206529E+02 0.  0.
          6    2    1    2  501    0 -0.17277860361E+01  0.93863514681E+02  0.93425844577E+03  0.95452943561E+03  0.17168067836E+03 0.  0.
         24    2    5    5    0    0 -0.10080695804E+02 -0.11864116394E+02  0.55798891112E+03  0.56357041502E+03  0.77573256150E+02 0.  0.
          5    1    5    5  501    0  0.83529097680E+01  0.10572763107E+03  0.37626953465E+03  0.39095902059E+03  0.47000000000E+01 0. -1.
        -11    1    6    6    0    0 -0.36906241695E+02 -0.29074991867E+02  0.30948922264E+03  0.31303514940E+03  0.00000000000E+00 0.  1.
         12    1    6    6    0    0  0.26825545891E+02  0.17210875473E+02  0.24849968848E+03  0.25053526562E+03  0.00000000000E+00 0. -1.
         -5    1    3    3    0  503 -0.41032149124E+02 -0.12748167319E+02  0.38157743409E+03  0.38401768349E+03  0.47000000000E+01 0.  1.
         13    1    4    4    0    0  0.78760295843E+01 -0.64804337329E+02  0.90627052391E+02  0.11169107665E+03  0.00000000000E+00 0. -1.
        -14    1    4    4    0    0  0.34883905576E+02 -0.16311010033E+02  0.18208094003E+03  0.18610858292E+03  0.00000000000E+00 0.  1.
</event>
<event>
12    1  0.8053217E-002  0.2046988E+03  0.7818608E-02  0.1146017E+00
         21   -1    0    0  501  502  0.00000000000E+00  0.00000000000E+00  0.23340205309E+03  0.23340205309E+03  0.00000000000E+00 0.  1.
         21   -1    0    0  502  503 -0.00000000000E+00 -0.00000000000E+00 -0.20407722400E+03  0.20407722400E+03  0.00000000000E+00 0.  1.
         -6    2    1    2    0  503  0.10832162289E+03  0.25818460847E+02 -0.62429976180E+02  0.21315686933E+03  0.17069909815E+03 0.  0.
        -24    2    3    3    0    0  0.17322930204E+02 -0.16595004035E+01  0.22725049824E+02  0.85449121411E+02  0.80512648745E+02 0.  0.
          6    2    1    2  501    0 -0.10832162289E+03 -0.25818460847E+02  0.91754805276E+02  0.22432240776E+03  0.17175980737E+03 0.  0.
         24    2    5    5    0    0 -0.10493531238E+03 -0.72563773053E+02  0.98146103709E+02  0.17678789391E+03  0.73105272138E+02 0.  0.
          5    1    5    5  501    0 -0.33863105061E+01  0.46745312206E+02 -0.63912984329E+01  0.47534513859E+02  0.47000000000E+01 0. -1.
        -13    1    6    6    0    0 -0.10577307185E+03 -0.77983116516E+02  0.71542487622E+02  0.14962498697E+03  0.00000000000E+00 0.  1.
         14    1    6    6    0    0  0.83775946703E+00  0.54193434629E+01  0.26603616087E+02  0.27162906939E+02  0.00000000000E+00 0. -1.
         -5    1    3    3    0  503  0.90998692682E+02  0.27477961250E+02 -0.85155026004E+02  0.12770774792E+03  0.47000000000E+01 0.  1.
         11    1    4    4    0    0 -0.29687692210E+02 -0.14410961196E+02  0.39064249731E+01  0.33230934796E+02  0.00000000000E+00 0. -1.
        -12    1    4    4    0    0  0.47010622414E+02  0.12751460792E+02  0.18818624851E+02  0.52218186615E+02  0.00000000000E+00 0.  1.
</event>
<event>
12    1  0.8053217E-002  0.2186928E+03  0.7818608E-02  0.1134939E+00
         21   -1    0    0  501  502  0.00000000000E+00  0.00000000000E+00  0.79956161274E+02  0.79956161274E+02  0.00000000000E+00 0.  1.
         21   -1    0    0  502  503 -0.00000000000E+00 -0.00000000000E+00 -0.59790052470E+03  0.59790052470E+03  0.00000000000E+00 0. -1.
         -6    2    1    2    0  503 -0.39662038163E+02  0.12821304435E+03 -0.24583764472E+03  0.32875984035E+03  0.17214883981E+03 0.  0.
        -24    2    3    3    0    0 -0.39768300488E+02  0.81880149871E+02 -0.25405790753E+03  0.28146913171E+03  0.79959834037E+02 0.  0.
          6    2    1    2  501    0  0.39662038163E+02 -0.12821304435E+03 -0.27210671870E+03  0.34909684562E+03  0.17266985622E+03 0.  0.
         24    2    5    5    0    0  0.46423629804E+02 -0.76526505166E+02 -0.66846355863E+02  0.13726879269E+03  0.79767328892E+02 0.  0.
          5    1    5    5  501    0 -0.67615916409E+01 -0.51686539187E+02 -0.20526036284E+03  0.21182805293E+03  0.47000000000E+01 0. -1.
        -13    1    6    6    0    0  0.11427052899E+02  0.11874060252E+02  0.59539071592E+01  0.17521982059E+02  0.00000000000E+00 0.  1.
         14    1    6    6    0    0  0.34996576905E+02 -0.88400565418E+02 -0.72800263022E+02  0.11974681064E+03  0.00000000000E+00 0. -1.
         -5    1    3    3    0  503  0.10626232485E+00  0.46332894481E+02  0.82202628112E+01  0.47290708637E+02  0.47000000000E+01 0.  1.
         11    1    4    4    0    0  0.17456869024E+02  0.14002349718E+02 -0.16327812862E+02  0.27702085600E+02  0.00000000000E+00 0. -1.
        -12    1    4    4    0    0 -0.57225169512E+02  0.67877800154E+02 -0.23773009467E+03  0.25376704611E+03  0.00000000000E+00 0.  1.
</event>
<event>
12    1  0.8053217E-002  0.1847897E+03  0.7818608E-02  0.1164622E+00
         21   -1    0    0  501  502  0.00000000000E+00  0.00000000000E+00  0.29154746348E+03  0.29154746348E+03  0.00000000000E+00 0.  1.
         21   -1    0    0  502  503 -0.00000000000E+00 -0.00000000000E+00 -0.22754644289E+03  0.22754644289E+03  0.00000000000E+00 0.  1.
         -6    2    1    2    0  503  0.43346461768E+01  0.48608389225E+02 -0.15199940197E+03  0.23483449654E+03  0.17222618241E+03 0.  0.
        -24    2    3    3    0    0 -0.46236018717E+01 -0.12472446740E+02  0.51456299112E+01  0.65932839430E+02  0.64371749907E+02 0.  0.
          6    2    1    2  501    0 -0.43346461768E+01 -0.48608389225E+02  0.21600042257E+03  0.28425940983E+03  0.17822924806E+03 0.  0.
         24    2    5    5    0    0 -0.29503486803E+02  0.29699477643E+02  0.13345945832E+03  0.16763739933E+03  0.92403224699E+02 0.  0.
          5    1    5    5  501    0  0.25168840626E+02 -0.78307866868E+02  0.82540964253E+02  0.11662201049E+03  0.47000000000E+01 0. -1.
        -13    1    6    6    0    0 -0.57416472538E+01 -0.16203198371E+02  0.10919010948E+03  0.11053501780E+03  0.00000000000E+00 0.  1.
         14    1    6    6    0    0 -0.23761839549E+02  0.45902676015E+02  0.24269348833E+02  0.57102381534E+02  0.00000000000E+00 0. -1.
         -5    1    3    3    0  503  0.89582480485E+01  0.61080835965E+02 -0.15714503188E+03  0.16890165711E+03  0.47000000000E+01 0.  1.
         11    1    4    4    0    0  0.15348310956E+02 -0.22977700503E+02  0.23943540349E+02  0.36562802054E+02  0.00000000000E+00 0. -1.
        -12    1    4    4    0    0 -0.19971912828E+02  0.10505253763E+02 -0.18797910438E+02  0.29370037376E+02  0.00000000000E+00 0.  1.
</event>
<event>
12    1  0.8053217E-002  0.1729897E+03  0.7818608E-02  0.1175306E+00
         21   -1    0    0  501  502  0.00000000000E+00  0.00000000000E+00  0.64436230583E+03  0.64436230583E+03  0.00000000000E+00 0.  1.
         21   -1    0    0  502  503 -0.00000000000E+00 -0.00000000000E+00 -0.49499857223E+02  0.49499857223E+02  0.00000000000E+00 0.  1.
         -6    2    1    2    0  503  0.55449894720E+01  0.19614351195E+02  0.20528048333E+03  0.26845021100E+03  0.17178465958E+03 0.  0.
        -24    2    3    3    0    0  0.97852720951E+01  0.24064478368E+02  0.22832986418E+03  0.24413668418E+03  0.82421738741E+02 0.  0.
          6    2    1    2  501    0 -0.55449894720E+01 -0.19614351195E+02  0.38958196528E+03  0.42541195206E+03  0.16966364254E+03 0.  0.
         24    2    5    5    0    0 -0.41876645887E+01 -0.66502817390E+02  0.34608581579E+03  0.36126855323E+03  0.79368850354E+02 0.  0.
          5    1    5    5  501    0 -0.13573248833E+01  0.46888466194E+02  0.43496149496E+02  0.64143398834E+02  0.47000000000E+01 0. -1.
        -13    1    6    6    0    0  0.23915670723E+02 -0.30582972018E+02  0.26833115803E+03  0.27112522541E+03  0.00000000000E+00 0.  1.
         14    1    6    6    0    0 -0.28103335312E+02 -0.35919845372E+02  0.77754657757E+02  0.90143327818E+02  0.00000000000E+00 0. -1.
         -5    1    3    3    0  503 -0.42402826231E+01 -0.44501271724E+01 -0.23049380852E+02  0.24313526816E+02  0.47000000000E+01 0.  1.
         11    1    4    4    0    0  0.19914751526E+01  0.39665790656E+02  0.45164457651E+02  0.60142906120E+02  0.00000000000E+00 0. -1.
        -12    1    4    4    0    0  0.77937969426E+01 -0.15601312289E+02  0.18316540653E+03  0.18399377806E+03  0.00000000000E+00 0.  1.
</event>
<event>
12    1  0.8053217E-002  0.2148208E+03  0.7818608E-02  0.1138013E+00
         21   -1    0    0  501  502  0.00000000000E+00  0.00000000000E+00  0.86773006159E+02  0.86773006159E+02  0.00000000000E+00 0.  1.
         21   -1    0    0  502  503 -0.00000000000E+00 -0.00000000000E+00 -0.74581463373E+03  0.74581463373E+03  0.00000000000E+00 0.  1.
         -6    2    1    2    0  503  0.83178620997E+02 -0.96361577991E+02 -0.10455560163E+03  0.23794257743E+03  0.17169903791E+03 0.  0.
        -24    2    3    3    0    0 -0.10928420337E+02 -0.77611017554E+02 -0.83802337895E+02  0.13965470076E+03  0.79609692819E+02 0.  0.
          6    2    1    2  501    0 -0.83178620997E+02  0.96361577991E+02 -0.55448602594E+03  0.59464506246E+03  0.17304265555E+03 0.  0.
         24    2    5    5    0    0 -0.11219858271E+03  0.88772638660E+02 -0.33826293533E+03  0.37630068976E+03  0.81922477713E+02 0.  0.
          5    1    5    5  501    0  0.29019961717E+02  0.75889393311E+01 -0.21622309061E+03  0.21834437270E+03  0.47000000000E+01 0. -1.
        -11    1    6    6    0    0 -0.69711604831E+02  0.78940746507E+01 -0.11040755920E+03  0.13081228303E+03  0.00000000000E+00 0.  1.
         12    1    6    6    0    0 -0.42486977884E+02  0.80878564009E+02 -0.22785537613E+03  0.24548840673E+03  0.00000000000E+00 0. -1.
         -5    1    3    3    0  503  0.94107041334E+02 -0.18750560437E+02 -0.20753263740E+02  0.98287876675E+02  0.47000000000E+01 0.  1.
         13    1    4    4    0    0 -0.12209948522E+02 -0.15625526622E+02 -0.74338300971E+02  0.76937786012E+02  0.00000000000E+00 0. -1.
        -14    1    4    4    0    0  0.12815281856E+01 -0.61985490933E+02 -0.94640369243E+01  0.62716914748E+02  0.00000000000E+00 0.  1.
</event>
<event>
12    1  0.8053217E-002  0.1782907E+03  0.7818608E-02  0.1169727E+00
         21   -1    0    0  503  502  0.00000000000E+00  0.00000000000E+00  0.55230960136E+03  0.55230960136E+03  0.00000000000E+00 0.  1.
         21   -1    0    0  501  503 -0.00000000000E+00 -0.00000000000E+00 -0.23707040093E+03  0.23707040093E+03  0.00000000000E+00 0.  1.
          6    2    1    2  501    0  0.60687772284E+01  0.45980458406E+02 -0.18627343566E+03  0.25711832187E+03  0.17105848707E+03 0.  0.
         24    2    3    3    0    0 -0.60497674499E+02  0.88286980781E+01 -0.96607532934E+02  0.13933288176E+03  0.79641207866E+02 0.  0.
         -6    2    1    2    0  502 -0.60687772284E+01 -0.45980458406E+02  0.50151263609E+03  0.53226168041E+03  0.17215266383E+03 0.  0.
        -24    2    5    5    0    0 -0.29346087099E+02 -0.45788755720E+02  0.14151235905E+03  0.17147897659E+03  0.80134191651E+02 0.  0.
          5    1    3    3  501    0  0.66566451728E+02  0.37151760328E+02 -0.89665902725E+02  0.11778544011E+03  0.47000000000E+01 0. -1.
        -11    1    4    4    0    0 -0.53115882855E+02 -0.59958265464E+01 -0.10712087862E+03  0.11971687259E+03  0.00000000000E+00 0.  1.
         12    1    4    4    0    0 -0.73817916438E+01  0.14824524625E+02  0.10513345683E+02  0.19616009168E+02  0.00000000000E+00 0. -1.
         -5    1    5    5    0  502  0.23277309871E+02 -0.19170268635E+00  0.36000027704E+03  0.36078270382E+03  0.47000000000E+01 0.  1.
         13    1    6    6    0    0 -0.25159550442E+02  0.16408896009E+02  0.72522073299E+02  0.78496534715E+02  0.00000000000E+00 0. -1.
        -14    1    6    6    0    0 -0.41865366572E+01 -0.62197651729E+02  0.68990285750E+02  0.92982441878E+02  0.00000000000E+00 0.  1.
</event>
<event>
12    1  0.8053217E-002  0.2481169E+03  0.7818608E-02  0.1114744E+00
         21   -1    0    0  501  502  0.00000000000E+00  0.00000000000E+00  0.10302566445E+03  0.10302566445E+03  0.00000000000E+00 0.  1.
         21   -1    0    0  502  503 -0.00000000000E+00 -0.00000000000E+00 -0.77376925033E+03  0.77376925033E+03  0.00000000000E+00 0.  1.
         -6    2    1    2    0  503 -0.70198835481E+02 -0.16303164121E+03 -0.54595762246E+03  0.59906566766E+03  0.17118047817E+03 0.  0.
        -24    2    3    3    0    0  0.23604925064E+02 -0.44243575041E+02 -0.17840327390E+03  0.20153826068E+03  0.79216513171E+02 0.  0.
          6    2    1    2  501    0  0.70198835481E+02  0.16303164121E+03 -0.12478596342E+03  0.27772924712E+03  0.17336321843E+03 0.  0.
         24    2    5    5    0    0 -0.15190760202E+02  0.28839329899E+02 -0.54867021109E+02  0.10391984589E+03  0.82015109700E+02 0.  0.
          5    1    5    5  501    0  0.85389595684E+02  0.13419231131E+03 -0.69918942307E+02  0.17380940124E+03  0.47000000000E+01 0. -1.
        -13    1    6    6    0    0 -0.98000156660E+01  0.49451183002E+02 -0.63373426019E+02  0.80979324107E+02  0.00000000000E+00 0.  1.
         14    1    6    6    0    0 -0.53907445362E+01 -0.20611853104E+02  0.85064049102E+01  0.22940521780E+02  0.00000000000E+00 0. -1.
         -5    1    3    3    0  503 -0.93803760546E+02 -0.11878806616E+03 -0.36755434856E+03  0.39752740698E+03  0.47000000000E+01 0.  1.
         11    1    4    4    0    0  0.18379121733E+02  0.15230603399E+02 -0.10101343212E+03  0.10379536051E+03  0.00000000000E+00 0. -1.
        -12    1    4    4    0    0  0.52258033312E+01 -0.59474178440E+02 -0.77389841779E+02  0.97742900163E+02  0.00000000000E+00 0.  1.
</event>
<event>
12    1  0.8053217E-002  0.2099617E+03  0.7818608E-02  0.1142712E+00
         21   -1    0    0  503  502  0.00000000000E+00  0.00000000000E+00  0.49276635819E+02  0.49276635819E+02  0.00000000000E+00 0. -1.
         21   -1    0    0  501  503 -0.00000000000E+00 -0.00000000000E+00 -0.16488791999E+04  0.16488791999E+04  0.00000000000E+00 0. -1.
          6    2    1    2  501    0 -0.29877608061E+02  0.11720649722E+03 -0.13885854889E+04  0.14043694641E+04  0.17162137747E+03 0.  0.
         24    2    3    3    0    0  0.45017071987E+02  0.44687777623E+02 -0.55011266905E+03  0.55942749127E+03  0.79445799755E+02 0.  0.
         -6    2    1    2    0  502  0.29877608061E+02 -0.11720649722E+03 -0.21101707522E+03  0.29378637167E+03  0.16477922107E+03 0.  0.
        -24    2    5    5    0    0 -0.41122561360E+02 -0.89712655453E+02 -0.12650058604E+03  0.17993531838E+03  0.81454864387E+02 0.  0.
          5    1    3    3  501    0 -0.74894680048E+02  0.72518719594E+02 -0.83847281985E+03  0.84494197281E+03  0.47000000000E+01 0. -1.
        -11    1    4    4    0    0  0.27390326210E+02  0.22648579248E+01 -0.42924505545E+03  0.43012402534E+03  0.00000000000E+00 0.  1.
         12    1    4    4    0    0  0.17626745776E+02  0.42422919699E+02 -0.12086761361E+03  0.12930346593E+03  0.00000000000E+00 0. -1.
         -5    1    5    5    0  502  0.71000169421E+02 -0.27493841764E+02 -0.84516489181E+02  0.11385105329E+03  0.47000000000E+01 0.  1.
         13    1    6    6    0    0  0.11419497043E+02 -0.49834141941E+02 -0.92589681573E+02  0.10576717709E+03  0.00000000000E+00 0. -1.
        -14    1    6    6    0    0 -0.52542058403E+02 -0.39878513512E+02 -0.33910904462E+02  0.74168141291E+02  0.00000000000E+00 0.  1.
</event>
<event>
12    1  0.8053217E-002  0.1772608E+03  0.7818608E-02  0.1170707E+00
         21   -1    0    0  503  502  0.00000000000E+00  0.00000000000E+00  0.15320940031E+02  0.15320940031E+02  0.00000000000E+00 0. -1.
         21   -1    0    0  501  503 -0.00000000000E+00 -0.00000000000E+00 -0.20707595400E+04  0.20707595400E+04  0.00000000000E+00 0.  1.
          6    2    1    2  501    0 -0.33970742528E+02  0.17349972626E+02 -0.11568631026E+04  0.11703647428E+04  0.17310794362E+03 0.  0.
         24    2    3    3    0    0  0.47343638304E+02  0.13065817902E+02 -0.56503153193E+03  0.57293936624E+03  0.81158792723E+02 0.  0.
         -6    2    1    2    0  502  0.33970742528E+02 -0.17349972626E+02 -0.89857549732E+03  0.91571573718E+03  0.17216955025E+03 0.  0.
        -24    2    5    5    0    0 -0.42962363688E+02 -0.15617836065E+02 -0.35298452981E+03  0.36470457852E+03  0.79508929164E+02 0.  0.
          5    1    3    3  501    0 -0.81314380833E+02  0.42841547236E+01 -0.59183157068E+03  0.59742537657E+03  0.47000000000E+01 0. -1.
        -11    1    4    4    0    0  0.45662255893E+02  0.39722087243E+02 -0.48029316534E+03  0.48409132454E+03  0.00000000000E+00 0.  1.
         12    1    4    4    0    0  0.16813824114E+01 -0.26656269341E+02 -0.84738366591E+02  0.88848041703E+02  0.00000000000E+00 0. -1.
         -5    1    5    5    0  502  0.76933106217E+02 -0.17321365607E+01 -0.54559096751E+03  0.55101115865E+03  0.47000000000E+01 0.  1.
         13    1    6    6    0    0  0.15352764957E+02 -0.20896840385E+02 -0.52339677697E+02  0.58410848234E+02  0.00000000000E+00 0. -1.
        -14    1    6    6    0    0 -0.58315128645E+02  0.52790043202E+01 -0.30064485211E+03  0.30629373029E+03  0.00000000000E+00 0.  1.
</event>
<event>
12    1  0.8053217E-002  0.2028782E+03  0.7818608E-02  0.1148632E+00
         21   -1    0    0  503  502  0.00000000000E+00  0.00000000000E+00  0.87502601924E+03  0.87502601924E+03  0.00000000000E+00 0. -1.
         21   -1    0    0  501  503 -0.00000000000E+00 -0.00000000000E+00 -0.46889250552E+02  0.46889250552E+02  0.00000000000E+00 0. -1.
          6    2    1    2  501    0 -0.11038817645E+03  0.52189260082E+01  0.48371756769E+03  0.52218519857E+03  0.16273263231E+03 0.  0.
         24    2    3    3    0    0 -0.13338553812E+03  0.23577128674E+02  0.45308177702E+03  0.47944711346E+03  0.78986423878E+02 0.  0.
         -6    2    1    2    0  502  0.11038817645E+03 -0.52189260082E+01  0.34441920100E+03  0.39973007123E+03  0.17013746542E+03 0.  0.
        -24    2    5    5    0    0  0.11197914553E+03 -0.56614240984E+02  0.28275851277E+03  0.31930532344E+03  0.79113916087E+02 0.  0.
          5    1    3    3  501    0  0.22997361668E+02 -0.18358202666E+02  0.30635790671E+02  0.42738085110E+02  0.47000000000E+01 0. -1.
        -13    1    4    4    0    0 -0.10589951155E+03  0.47953558597E+02  0.29334587579E+03  0.31554088985E+03  0.00000000000E+00 0.  1.
         14    1    4    4    0    0 -0.27486026568E+02 -0.24376429923E+02  0.15973590123E+03  0.16390622360E+03  0.00000000000E+00 0. -1.
         -5    1    5    5    0  502 -0.15909690754E+01  0.51395314976E+02  0.61660688227E+02  0.80424747788E+02  0.47000000000E+01 0.  1.
         13    1    6    6    0    0  0.48119232189E+02 -0.48230550581E+01  0.39230396491E+02  0.62271553500E+02  0.00000000000E+00 0. -1.
        -14    1    6    6    0    0  0.63859913338E+02 -0.51791185926E+02  0.24352811628E+03  0.25703376994E+03  0.00000000000E+00 0.  1.
</event>
<event>
12    1  0.8053217E-002  0.1737623E+03  0.7818608E-02  0.1174858E+00
         21   -1    0    0  503  502  0.00000000000E+00  0.00000000000E+00  0.26547402318E+02  0.26547402318E+02  0.00000000000E+00 0. -1.
         21   -1    0    0  501  503 -0.00000000000E+00 -0.00000000000E+00 -0.13579473274E+04  0.13579473274E+04  0.00000000000E+00 0. -1.
          6    2    1    2  501    0 -0.20239734367E+02  0.28053033017E+02 -0.95303534594E+03  0.96813780375E+03  0.16678674089E+03 0.  0.
         24    2    3    3    0    0 -0.62937747655E+02  0.70742444048E+01 -0.83069725871E+03  0.83679121073E+03  0.78424420448E+02 0.  0.
         -6    2    1    2    0  502  0.20239734367E+02 -0.28053033017E+02 -0.37836457914E+03  0.41635692596E+03  0.17028421988E+03 0.  0.
        -24    2    5    5    0    0  0.19675309176E+02  0.49210188856E+02 -0.20590398605E+03  0.22732076487E+03  0.80433315196E+02 0.  0.
          5    1    3    3  501    0  0.42698013288E+02  0.20978788612E+02 -0.12233808723E+03  0.13134659302E+03  0.47000000000E+01 0. -1.
        -11    1    4    4    0    0 -0.59306546004E+02  0.30503608622E+02 -0.40671896412E+03  0.41215052143E+03  0.00000000000E+00 0.  1.
         12    1    4    4    0    0 -0.36312016501E+01 -0.23429364217E+02 -0.42397829458E+03  0.42464068930E+03  0.00000000000E+00 0. -1.
         -5    1    5    5    0  502  0.56442519055E+00 -0.77263221873E+02 -0.17246059309E+03  0.18903616109E+03  0.47000000000E+01 0.  1.
         13    1    6    6    0    0  0.20537483060E+02 -0.58044156002E+01 -0.95098311280E+01  0.23364852642E+02  0.00000000000E+00 0. -1.
        -14    1    6    6    0    0 -0.86217388364E+00  0.55014604456E+02 -0.19639415492E+03  0.20395591223E+03  0.00000000000E+00 0.  1.
</event>
<event>
12    1  0.8053217E-002  0.1901714E+03  0.7818608E-02  0.1158318E+00
         21   -1    0    0  501  502  0.00000000000E+00  0.00000000000E+00  0.23227349727E+03  0.23227349727E+03  0.00000000000E+00 0.  1.
         21   -1    0    0  502  503 -0.00000000000E+00 -0.00000000000E+00 -0.17373379056E+03  0.17373379056E+03  0.00000000000E+00 0.  1.
         -6    2    1    2    0  503 -0.57249795699E+02 -0.58110366338E+02 -0.36201515791E+02  0.19358643092E+03  0.17178708539E+03 0.  0.
        -24    2    3    3    0    0 -0.66066525338E+02 -0.81814738143E+02  0.18259633757E+02  0.13335571804E+03  0.79949334966E+02 0.  0.
          6    2    1    2  501    0  0.57249795699E+02  0.58110366338E+02  0.94741222500E+02  0.21242085691E+03  0.17173341966E+03 0.  0.
         24    2    5    5    0    0 -0.14213952186E+02  0.75987993228E+02  0.77247381279E+02  0.13656045034E+03  0.81886428242E+02 0.  0.
          5    1    5    5  501    0  0.71463747886E+02 -0.17877626890E+02  0.17493841221E+02  0.75860406575E+02  0.47000000000E+01 0. -1.
        -11    1    6    6    0    0 -0.51829071545E+01  0.83624653136E+02  0.31828570644E+02  0.89627021862E+02  0.00000000000E+00 0.  1.
         12    1    6    6    0    0 -0.90310450319E+01 -0.76366599078E+01  0.45418810635E+02  0.46933428475E+02  0.00000000000E+00 0. -1.
         -5    1    3    3    0  503  0.88167296388E+01  0.23704371805E+02 -0.54461149548E+02  0.60230712882E+02  0.47000000000E+01 0.  1.
         11    1    4    4    0    0 -0.41892870040E+02  0.53781575450E+00 -0.98573252484E+01  0.43040314439E+02  0.00000000000E+00 0. -1.
        -12    1    4    4    0    0 -0.24173655298E+02 -0.82352553897E+02  0.28116959006E+02  0.90315403601E+02  0.00000000000E+00 0.  1.
</event>
<event>
12    1  0.8053217E-002  0.2455703E+03  0.7818608E-02  0.1116163E+00
         21   -1    0    0  503  502  0.00000000000E+00  0.00000000000E+00  0.16918393417E+03  0.16918393417E+03  0.00000000000E+00 0. -1.
         21   -1    0    0  501  503 -0.00000000000E+00 -0.00000000000E+00 -0.43757139903E+03  0.43757139903E+03  0.00000000000E+00 0.  1.
          6    2    1    2  501    0 -0.13644007016E+03  0.11001552985E+03 -0.26497583434E+03  0.36116135086E+03  0.17177316152E+03 0.  0.
         24    2    3    3    0    0 -0.16287390238E+03  0.11640820831E+03 -0.21491532261E+03  0.30399703806E+03  0.78401685023E+02 0.  0.
         -6    2    1    2    0  502  0.13644007016E+03 -0.11001552985E+03 -0.34116305212E+01  0.24559398233E+03  0.17200423071E+03 0.  0.
        -24    2    5    5    0    0  0.16245407647E+03 -0.68262411535E+02  0.10194860378E+02  0.19433700225E+03  0.81313292132E+02 0.  0.
          5    1    3    3  501    0  0.26433832219E+02 -0.63926784649E+01 -0.50060511733E+02  0.57164312807E+02  0.47000000000E+01 0. -1.
        -13    1    4    4    0    0 -0.13481026695E+03  0.52385670356E+02 -0.13533232977E+03  0.19807298154E+03  0.00000000000E+00 0.  1.
         14    1    4    4    0    0 -0.28063635431E+02  0.64022537955E+02 -0.79582992842E+02  0.10592405652E+03  0.00000000000E+00 0. -1.
         -5    1    5    5    0  502 -0.26014006303E+02 -0.41753118311E+02 -0.13606490899E+02  0.51256980083E+02  0.47000000000E+01 0.  1.
         13    1    6    6    0    0  0.54702044147E+02  0.33830286335E+01  0.31475557957E+02  0.63201813781E+02  0.00000000000E+00 0. -1.
        -14    1    6    6    0    0  0.10775203232E+03 -0.71645440168E+02 -0.21280697579E+02  0.13113518847E+03  0.00000000000E+00 0.  1.
</event>
<event>
12    1  0.8053217E-002  0.1888622E+03  0.7818608E-02  0.1160565E+00
         21   -1    0    0  503  502  0.00000000000E+00  0.00000000000E+00  0.64028364582E+02  0.64028364582E+02  0.00000000000E+00 0.  1.
         21   -1    0    0  501  503 -0.00000000000E+00 -0.00000000000E+00 -0.54753260962E+03  0.54753260962E+03  0.00000000000E+00 0.  1.
          6    2    1    2  501    0  0.65832228829E+02 -0.19650640328E+02 -0.21823122074E+03  0.28860661936E+03  0.17592295192E+03 0.  0.
         24    2    3    3    0    0  0.11199961378E+03 -0.86929688191E+01 -0.13990707212E+03  0.19691005315E+03  0.81117809428E+02 0.  0.
         -6    2    1    2    0  502 -0.65832228829E+02  0.19650640328E+02 -0.26527302429E+03  0.32295435484E+03  0.17090847807E+03 0.  0.
        -24    2    5    5    0    0  0.12116239739E+02  0.30928699749E+02 -0.20842129257E+03  0.22570535600E+03  0.80000529963E+02 0.  0.
          5    1    3    3  501    0 -0.46167384952E+02 -0.10957671509E+02 -0.78324148619E+02  0.91696566212E+02  0.47000000000E+01 0. -1.
        -13    1    4    4    0    0  0.53695761910E+02 -0.10344143480E+02 -0.12540233858E+03  0.13680636927E+03  0.00000000000E+00 0.  1.
         14    1    4    4    0    0  0.58303851871E+02  0.16511746611E+01 -0.14504733546E+02  0.60103683880E+02  0.00000000000E+00 0. -1.
         -5    1    5    5    0  502 -0.77948468568E+02 -0.11278059421E+02 -0.56851731719E+02  0.97248998843E+02  0.47000000000E+01 0.  1.
         13    1    6    6    0    0  0.13716662438E+01  0.36297051370E+01 -0.19208904486E+03  0.19212823162E+03  0.00000000000E+00 0. -1.
        -14    1    6    6    0    0  0.10744573496E+02  0.27298994612E+02 -0.16332247710E+02  0.33577124381E+02  0.00000000000E+00 0.  1.
</event>
<event>
12    1  0.8053217E-002  0.3392540E+03  0.7818608E-02  0.1067263E+00
         21   -1    0    0  501  502  0.00000000000E+00  0.00000000000E+00  0.25235859790E+03  0.25235859790E+03  0.00000000000E+00 0.  1.
         21   -1    0    0  502  503 -0.00000000000E+00 -0.00000000000E+00 -0.73783678988E+03  0.73783678988E+03  0.00000000000E+00 0.  1.
         -6    2    1    2    0  503 -0.65272370754E+02 -0.28557511070E+03 -0.55000951724E+03  0.64622267246E+03  0.17111296596E+03 0.  0.
        -24    2    3    3    0    0 -0.25392349695E+02 -0.24754574793E+03 -0.33390188067E+03  0.42315037679E+03  0.75113958261E+02 0.  0.
          6    2    1    2  501    0  0.65272370754E+02  0.28557511070E+03  0.64531325262E+02  0.34397271531E+03  0.16834283682E+03 0.  0.
         24    2    5    5    0    0  0.73275516136E+02  0.27896837878E+03  0.92726644447E+02  0.31356276190E+03  0.80812854413E+02 0.  0.
          5    1    5    5  501    0 -0.80031453818E+01  0.66067319186E+01 -0.28195319185E+02  0.30409953413E+02  0.47000000000E+01 0. -1.
        -11    1    6    6    0    0 -0.57803959511E+00  0.10447091071E+03  0.45595202997E+01  0.10457195866E+03  0.00000000000E+00 0.  1.
         12    1    6    6    0    0  0.73853555731E+02  0.17449746807E+03  0.88167124147E+02  0.20899080324E+03  0.00000000000E+00 0. -1.
         -5    1    3    3    0  503 -0.39880021059E+02 -0.38029362769E+02 -0.21610763657E+03  0.22307229567E+03  0.47000000000E+01 0.  1.
         13    1    4    4    0    0  0.10415194638E+02 -0.87738455561E+02 -0.70708966633E+02  0.11316479499E+03  0.00000000000E+00 0. -1.
        -14    1    4    4    0    0 -0.35807544332E+02 -0.15980729237E+03 -0.26319291404E+03  0.30998558180E+03  0.00000000000E+00 0.  1.
</event>
<event>
12    1  0.8053217E-002  0.2325002E+03  0.7818608E-02  0.1125123E+00
         21   -1    0    0  501  502  0.00000000000E+00  0.00000000000E+00  0.19401556531E+03  0.19401556531E+03  0.00000000000E+00 0. -1.
         21   -1    0    0  502  503 -0.00000000000E+00 -0.00000000000E+00 -0.44662068969E+03  0.44662068969E+03  0.00000000000E+00 0. -1.
         -6    2    1    2    0  503  0.13795588403E+03 -0.73479194780E+02 -0.32346157439E+03  0.39757868794E+03  0.17032441103E+03 0.  0.
        -24    2    3    3    0    0  0.16149736078E+02  0.44130690632E+00 -0.16758927817E+03  0.18634601770E+03  0.79860274406E+02 0.  0.
          6    2    1    2  501    0 -0.13795588403E+03  0.73479194780E+02  0.70856450010E+02  0.24305756706E+03  0.17212009294E+03 0.  0.
         24    2    5    5    0    0 -0.12542319645E+03  0.11337731003E+03  0.72232877773E+02  0.20095160060E+03  0.81108350456E+02 0.  0.
          5    1    5    5  501    0 -0.12532687572E+02 -0.39898115246E+02 -0.13764277631E+01  0.42105966458E+02  0.47000000000E+01 0. -1.
        -11    1    6    6    0    0 -0.77658453407E+01  0.43912015109E+02 -0.35049097067E+01  0.44730949205E+02  0.00000000000E+00 0.  1.
         12    1    6    6    0    0 -0.11765735111E+03  0.69465294917E+02  0.75737787480E+02  0.15622065139E+03  0.00000000000E+00 0. -1.
         -5    1    3    3    0  503  0.12180614795E+03 -0.73920501686E+02 -0.15587229622E+03  0.21123267024E+03  0.47000000000E+01 0.  1.
         11    1    4    4    0    0  0.14490668896E+02 -0.32011786238E+02 -0.34122790276E+02  0.48980595744E+02  0.00000000000E+00 0. -1.
        -12    1    4    4    0    0  0.16590671821E+01  0.32453093144E+02 -0.13346648790E+03  0.13736542196E+03  0.00000000000E+00 0.  1.
</event>
<event>
12    1  0.8053217E-002  0.3546220E+03  0.7818608E-02  0.1060808E+00
         21   -1    0    0  501  502  0.00000000000E+00  0.00000000000E+00  0.14811942453E+03  0.14811942453E+03  0.00000000000E+00 0.  1.
         21   -1    0    0  502  503 -0.00000000000E+00 -0.00000000000E+00 -0.84727776672E+03  0.84727776672E+03  0.00000000000E+00 0. -1.
         -6    2    1    2    0  503  0.12975322605E+03 -0.28067264749E+03 -0.34894131621E+03  0.49699103370E+03  0.17212498571E+03 0.  0.
        -24    2    3    3    0    0  0.67179393970E+02 -0.53917136463E+02 -0.13016374669E+03  0.17571348833E+03  0.80700064728E+02 0.  0.
          6    2    1    2  501    0 -0.12975322605E+03  0.28067264749E+03 -0.35021702598E+03  0.49840615754E+03  0.17361940524E+03 0.  0.
         24    2    5    5    0    0 -0.19995961941E+02  0.32909019312E+02 -0.69215839423E+02  0.10799966513E+03  0.73418343729E+02 0.  0.
          5    1    5    5  501    0 -0.10975726411E+03  0.24776362818E+03 -0.28100118656E+03  0.39040649241E+03  0.47000000000E+01 0. -1.
        -11    1    6    6    0    0 -0.27135821048E+02 -0.36032139152E+01  0.22123897720E+01  0.27463259147E+02  0.00000000000E+00 0.  1.
         12    1    6    6    0    0  0.71398591070E+01  0.36512233227E+02 -0.71428229195E+02  0.80536405986E+02  0.00000000000E+00 0. -1.
         -5    1    3    3    0  503  0.62573832078E+02 -0.22675551102E+03 -0.21877756952E+03  0.32127754538E+03  0.47000000000E+01 0.  1.
         13    1    4    4    0    0  0.55941965144E+02 -0.74830469139E+02 -0.94652145459E+02  0.13299673385E+03  0.00000000000E+00 0. -1.
        -14    1    4    4    0    0  0.11237428827E+02  0.20913332676E+02 -0.35511601236E+02  0.42716754471E+02  0.00000000000E+00 0.  1.
</event>
<event>
12    1  0.8053217E-002  0.1911344E+03  0.7818608E-02  0.1157614E+00
         21   -1    0    0  503  502  0.00000000000E+00  0.00000000000E+00  0.31007933404E+03  0.31007933404E+03  0.00000000000E+00 0.  1.
         21   -1    0    0  501  503 -0.00000000000E+00 -0.00000000000E+00 -0.19657411323E+03  0.19657411323E+03  0.00000000000E+00 0. -1.
          6    2    1    2  501    0 -0.78725554227E+02  0.24210650774E+02 -0.10414328789E+03  0.21699286808E+03  0.17162812091E+03 0.  0.
         24    2    3    3    0    0 -0.44202989724E+02 -0.57049766752E+01  0.12157672999E+02  0.91953851256E+02  0.79506293390E+02 0.  0.
         -6    2    1    2    0  502  0.78725554227E+02 -0.24210650774E+02  0.21764850870E+03  0.28966057918E+03  0.17247756172E+03 0.  0.
        -24    2    5    5    0    0 -0.13311430985E+02  0.37091944207E+01  0.48883220564E+02  0.95356341244E+02  0.80698886266E+02 0.  0.
          5    1    3    3  501    0 -0.34522564503E+02  0.29915627449E+02 -0.11630096089E+03  0.12503901682E+03  0.47000000000E+01 0. -1.
        -13    1    4    4    0    0  0.68144486517E+01 -0.43119389030E+01 -0.26647012940E+02  0.27840488971E+02  0.00000000000E+00 0.  1.
         14    1    4    4    0    0 -0.51017438375E+02 -0.13930377723E+01  0.38804685939E+02  0.64113362285E+02  0.00000000000E+00 0. -1.
         -5    1    5    5    0  502  0.92036985212E+02 -0.27919845195E+02  0.16876528813E+03  0.19430423794E+03  0.47000000000E+01 0.  1.
         13    1    6    6    0    0 -0.19308508315E+02 -0.36047279665E+02  0.31186343614E+02  0.51427744385E+02  0.00000000000E+00 0. -1.
        -14    1    6    6    0    0  0.59970773293E+01  0.39756474085E+02  0.17696876950E+02  0.43928596859E+02  0.00000000000E+00 0.  1.
</event>
<event>
12    1  0.8053217E-002  0.1724033E+03  0.7818608E-02  0.1175381E+00
         21   -1    0    0  501  502  0.00000000000E+00  0.00000000000E+00  0.14182262573E+04  0.14182262573E+04  0.00000000000E+00 0.  1.
         21   -1    0    0  502  503 -0.00000000000E+00 -0.00000000000E+00 -0.69684095252E+02  0.69684095252E+02  0.00000000000E+00 0.  1.
         -6    2    1    2    0  503 -0.61667306113E+01  0.30630510760E+02  0.52157131225E+02  0.18012017782E+03  0.16954838650E+03 0.  0.
        -24    2    3    3    0    0  0.35211741523E+02 -0.33062277651E+02  0.44776171714E+02  0.10366419169E+03  0.80052346257E+02 0.  0.
          6    2    1    2  501    0  0.61667306113E+01 -0.30630510760E+02  0.12963850308E+04  0.13077901747E+04  0.16948373439E+03 0.  0.
         24    2    5    5    0    0 -0.16911922120E+02 -0.52374444643E+02  0.12341222737E+04  0.12377604397E+04  0.77227093151E+02 0.  0.
          5    1    5    5  501    0  0.23078652731E+02  0.21743933883E+02  0.62262757078E+02  0.70029735052E+02  0.47000000000E+01 0. -1.
        -11    1    6    6    0    0 -0.36318933044E+02 -0.45362357695E+02  0.50276107991E+03  0.50610820174E+03  0.00000000000E+00 0.  1.
         12    1    6    6    0    0  0.19407010924E+02 -0.70120869482E+01  0.73136119381E+03  0.73165223791E+03  0.00000000000E+00 0. -1.
         -5    1    3    3    0  503 -0.41378472135E+02  0.63692788411E+02  0.73809595112E+01  0.76455986130E+02  0.47000000000E+01 0.  1.
         13    1    4    4    0    0 -0.18599608468E+02 -0.33342597822E+02  0.95768087001E+01  0.39362285625E+02  0.00000000000E+00 0. -1.
        -14    1    4    4    0    0  0.53811349992E+02  0.28032017147E+00  0.35199363013E+02  0.64301906067E+02  0.00000000000E+00 0.  1.
</event>
<event>
12    1  0.8053217E-002  0.1836266E+03  0.7818608E-02  0.1165569E+00
         21   -1    0    0  501  502  0.00000000000E+00  0.00000000000E+00  0.59287316268E+02  0.59287316268E+02  0.00000000000E+00 0.  1.
         21   -1    0    0  502  503 -0.00000000000E+00 -0.00000000000E+00 -0.10852153224E+04  0.10852153224E+04  0.00000000000E+00 0.  1.
         -6    2    1    2    0  503 -0.27832588733E+02  0.49654179209E+02 -0.91743292873E+03  0.93562914992E+03  0.17458103264E+03 0.  0.
        -24    2    3    3    0    0 -0.28134973929E+02 -0.21653589444E+02 -0.26568884811E+03  0.27997884226E+03  0.80852541162E+02 0.  0.
          6    2    1    2  501    0  0.27832588733E+02 -0.49654179209E+02 -0.10849507744E+03  0.20887348879E+03  0.16916489583E+03 0.  0.
         24    2    5    5    0    0  0.24501915459E+02 -0.94912935050E+02 -0.10294337410E+03  0.16291307349E+03  0.79589711267E+02 0.  0.
          5    1    5    5  501    0  0.33306732740E+01  0.45258755840E+02 -0.55517033383E+01  0.45960415301E+02  0.47000000000E+01 0. -1.
        -13    1    6    6    0    0  0.46080523247E+01 -0.48674489193E+02 -0.63959756046E+00  0.48896309978E+02  0.00000000000E+00 0.  1.
         14    1    6    6    0    0  0.19893863134E+02 -0.46238445857E+02 -0.10230377654E+03  0.11401676351E+03  0.00000000000E+00 0. -1.
         -5    1    3    3    0  503  0.30238519551E+00  0.71307768653E+02 -0.65174408062E+03  0.65565030766E+03  0.47000000000E+01 0.  1.
         11    1    4    4    0    0  0.89879470436E+01 -0.29182239718E+02 -0.21248901161E+03  0.21467176424E+03  0.00000000000E+00 0. -1.
        -12    1    4    4    0    0 -0.37122920972E+02  0.75286502743E+01 -0.53199836497E+02  0.65307078022E+02  0.00000000000E+00 0.  1.
</event>
<event>
12    1  0.8053217E-002  0.2958405E+03  0.7818608E-02  0.1087653E+00
         21   -1    0    0  503  502  0.00000000000E+00  0.00000000000E+00  0.14379850630E+04  0.14379850630E+04  0.00000000000E+00 0.  1.
         21   -1    0    0  501  503 -0.00000000000E+00 -0.00000000000E+00 -0.60378489792E+02  0.60378489792E+02  0.00000000000E+00 0. -1.
          6    2    1    2  501    0  0.15989821140E+03 -0.17627215046E+03  0.69935936395E+03  0.75840351495E+03  0.17156066709E+03 0.  0.
         24    2    3    3    0    0  0.97444789098E+02 -0.38322336258E+02  0.42579388951E+03  0.44568840497E+03  0.79835014915E+02 0.  0.
         -6    2    1    2    0  502 -0.15989821140E+03  0.17627215046E+03  0.67824720920E+03  0.73996003780E+03  0.17573352470E+03 0.  0.
        -24    2    5    5    0    0 -0.18372788304E+03  0.17789709000E+03  0.58137859207E+03  0.64007954588E+03  0.79356462271E+02 0.  0.
          5    1    3    3  501    0  0.62453422306E+02 -0.13794981420E+03  0.27356547444E+03  0.31271510997E+03  0.47000000000E+01 0. -1.
        -11    1    4    4    0    0  0.23897584316E+02 -0.50255318437E+02  0.14938323340E+03  0.15941154911E+03  0.00000000000E+00 0.  1.
         12    1    4    4    0    0  0.73547204782E+02  0.11932982180E+02  0.27641065611E+03  0.28627685587E+03  0.00000000000E+00 0. -1.
         -5    1    5    5    0  502  0.23829671640E+02 -0.16249395408E+01  0.96868617136E+02  0.99880491913E+02  0.47000000000E+01 0.  1.
         11    1    6    6    0    0 -0.16378914312E+03  0.11090441453E+03  0.43586773547E+03  0.47865160127E+03  0.00000000000E+00 0. -1.
        -12    1    6    6    0    0 -0.19938739919E+02  0.66992675472E+02  0.14551085659E+03  0.16142794462E+03  0.00000000000E+00 0.  1.
</event>
<event>
12    1  0.8053217E-002  0.1732864E+03  0.7818608E-02  0.1174500E+00
         21   -1    0    0  503  502  0.00000000000E+00  0.00000000000E+00  0.38463084174E+03  0.38463084174E+03  0.00000000000E+00 0. -1.
         21   -1    0    0  501  503 -0.00000000000E+00 -0.00000000000E+00 -0.78044787020E+02  0.78044787020E+02  0.00000000000E+00 0. -1.
          6    2    1    2  501    0 -0.25807085836E+02  0.15573548163E+02  0.14801745891E+03  0.22778806190E+03  0.17049836340E+03 0.  0.
         24    2    3    3    0    0 -0.46215196651E+02  0.38875995695E+02  0.28509395474E+02  0.10424146230E+03  0.80039423970E+02 0.  0.
         -6    2    1    2    0  502  0.25807085836E+02 -0.15573548163E+02  0.15856859581E+03  0.23488756685E+03  0.17064474326E+03 0.  0.
        -24    2    5    5    0    0  0.63474609241E+02 -0.51977398236E+02  0.13800766221E+03  0.17841700275E+03  0.77819252738E+02 0.  0.
          5    1    3    3  501    0  0.20408110815E+02 -0.23302447532E+02  0.11950806343E+03  0.12354659960E+03  0.47000000000E+01 0. -1.
        -11    1    4    4    0    0 -0.34009923202E+02  0.21253558472E+01  0.49575836635E+02  0.60157755873E+02  0.00000000000E+00 0.  1.
         12    1    4    4    0    0 -0.12205273450E+02  0.36750639848E+02 -0.21066441161E+02  0.44083706427E+02  0.00000000000E+00 0. -1.
         -5    1    5    5    0  502 -0.37667523405E+02  0.36403850073E+02  0.20560933604E+02  0.56470564104E+02  0.47000000000E+01 0.  1.
         11    1    6    6    0    0 -0.12760311188E+02 -0.12614114031E+02  0.59410644458E+02  0.62060986854E+02  0.00000000000E+00 0. -1.
        -12    1    6    6    0    0  0.76234920429E+02 -0.39363284205E+02  0.78597017750E+02  0.11635601590E+03  0.00000000000E+00 0.  1.
</event>
<event>
12    1  0.8053217E-002  0.2482093E+03  0.7818608E-02  0.1114482E+00
         21   -1    0    0  503  502  0.00000000000E+00  0.00000000000E+00  0.42742531676E+03  0.42742531676E+03  0.00000000000E+00 0.  1.
         21   -1    0    0  501  503 -0.00000000000E+00 -0.00000000000E+00 -0.17330698518E+03  0.17330698518E+03  0.00000000000E+00 0. -1.
          6    2    1    2  501    0 -0.36053495474E+02  0.17505148245E+03  0.34644720311E+01  0.24797854779E+03  0.17186762800E+03 0.  0.
         24    2    3    3    0    0  0.23143791848E+02  0.16912842838E+03  0.28907045401E+01  0.18829755748E+03  0.79420108243E+02 0.  0.
         -6    2    1    2    0  502  0.36053495474E+02 -0.17505148245E+03  0.25065385955E+03  0.35275375414E+03  0.17223523945E+03 0.  0.
        -24    2    5    5    0    0  0.42068106668E+02 -0.81806305112E+02  0.22621896278E+03  0.25605839321E+03  0.76999249717E+02 0.  0.
          5    1    3    3  501    0 -0.59197287322E+02  0.59230540749E+01  0.57376749105E+00  0.59680990315E+02  0.47000000000E+01 0. -1.
        -11    1    4    4    0    0 -0.28201757136E+02  0.78121522767E+02  0.94938558451E+01  0.83596918148E+02  0.00000000000E+00 0.  1.
         12    1    4    4    0    0  0.51345548983E+02  0.91006905611E+02 -0.66031513050E+01  0.10470063933E+03  0.00000000000E+00 0. -1.
         -5    1    5    5    0  502 -0.60146111932E+01 -0.93245177342E+02  0.24434896772E+02  0.96695360931E+02  0.47000000000E+01 0.  1.
         13    1    6    6    0    0  0.18672393458E+02 -0.10033549161E+01  0.49576149476E+01  0.19345359767E+02  0.00000000000E+00 0. -1.
        -14    1    6    6    0    0  0.23395713210E+02 -0.80802950196E+02  0.22126134783E+03  0.23671303344E+03  0.00000000000E+00 0.  1.
</event>
<event>
12    1  0.8053217E-002  0.2047542E+03  0.7818608E-02  0.1145814E+00
         21   -1    0    0  503  502  0.00000000000E+00  0.00000000000E+00  0.44014797946E+03  0.44014797946E+03  0.00000000000E+00 0.  1.
         21   -1    0    0  501  503 -0.00000000000E+00 -0.00000000000E+00 -0.41953921702E+03  0.41953921702E+03  0.00000000000E+00 0.  1.
          6    2    1    2  501    0 -0.31597190694E+02  0.10565921334E+03 -0.36764033559E+03  0.42081315463E+03  0.17251679031E+03 0.  0.
         24    2    3    3    0    0 -0.47572012452E+02  0.79921260292E+01 -0.10683055804E+03  0.14181873724E+03  0.79829917034E+02 0.  0.
         -6    2    1    2    0  502  0.31597190694E+02 -0.10565921334E+03  0.38824909802E+03  0.43887404185E+03  0.17236824148E+03 0.  0.
        -24    2    5    5    0    0  0.74493334829E+02 -0.57370377631E+02  0.16521822551E+03  0.20663117129E+03  0.80986182415E+02 0.  0.
          5    1    3    3  501    0  0.15974821758E+02  0.97667087307E+02 -0.26080977755E+03  0.27899441739E+03  0.47000000000E+01 0. -1.
        -11    1    4    4    0    0 -0.22250431537E+02  0.26516450700E+02 -0.10481168279E+03  0.11037976585E+03  0.00000000000E+00 0.  1.
         12    1    4    4    0    0 -0.25321580916E+02 -0.18524324671E+02 -0.20188752555E+01  0.31438971387E+02  0.00000000000E+00 0. -1.
         -5    1    5    5    0  502 -0.42896144135E+02 -0.48288835705E+02  0.22303087251E+03  0.23224287056E+03  0.47000000000E+01 0.  1.
         13    1    6    6    0    0  0.27404313447E+02  0.19216033368E+02  0.35365420505E+02  0.48692558994E+02  0.00000000000E+00 0. -1.
        -14    1    6    6    0    0  0.47089021383E+02 -0.76586410999E+02  0.12985280501E+03  0.15793861229E+03  0.00000000000E+00 0.  1.
</event>
<event>
12    1  0.8053217E-002  0.2524428E+03  0.7818608E-02  0.1112093E+00
         21   -1    0    0  503  502  0.00000000000E+00  0.00000000000E+00  0.14494342460E+03  0.14494342460E+03  0.00000000000E+00 0. -1.
         21   -1    0    0  501  503 -0.00000000000E+00 -0.00000000000E+00 -0.56019129073E+03  0.56019129073E+03  0.00000000000E+00 0. -1.
          6    2    1    2  501    0  0.18727635817E+02  0.18099918075E+03 -0.37289980789E+03  0.44916459709E+03  0.17199750226E+03 0.  0.
         24    2    3    3    0    0  0.16795422768E+02  0.32848732897E+02 -0.75638373143E+02  0.11699184199E+03  0.81269933685E+02 0.  0.
         -6    2    1    2    0  502 -0.18727635817E+02 -0.18099918075E+03 -0.42348058242E+02  0.25597011824E+03  0.17497404270E+03 0.  0.
        -24    2    5    5    0    0  0.56633591229E+02 -0.91065623214E+02 -0.21902097278E+02  0.13677495629E+03  0.82020579215E+02 0.  0.
          5    1    3    3  501    0  0.19322130482E+01  0.14815044785E+03 -0.29726143475E+03  0.33217275510E+03  0.47000000000E+01 0. -1.
        -11    1    4    4    0    0  0.34728366119E+02 -0.45783247578E+01 -0.54479006315E+01  0.35449966039E+02  0.00000000000E+00 0.  1.
         12    1    4    4    0    0 -0.17932943351E+02  0.37427057654E+02 -0.70190472511E+02  0.81541875949E+02  0.00000000000E+00 0. -1.
         -5    1    5    5    0  502 -0.75361227046E+02 -0.89933557537E+02 -0.20445960964E+02  0.11919516195E+03  0.47000000000E+01 0.  1.
         11    1    6    6    0    0  0.52553851070E+02 -0.61952904470E+02  0.21791435696E+02  0.84112640573E+02  0.00000000000E+00 0. -1.
        -12    1    6    6    0    0  0.40797401599E+01 -0.29112718744E+02 -0.43693532974E+02  0.52662315712E+02  0.00000000000E+00 0.  1.
</event>
<event>
12    1  0.8053217E-002  0.1799192E+03  0.7818608E-02  0.1168178E+00
         21   -1    0    0  503  502  0.00000000000E+00  0.00000000000E+00  0.80388227279E+02  0.80388227279E+02  0.00000000000E+00 0. -1.
         21   -1    0    0  501  503 -0.00000000000E+00 -0.00000000000E+00 -0.44059258717E+03  0.44059258717E+03  0.00000000000E+00 0.  1.
          6    2    1    2  501    0 -0.43616468323E+02  0.64428469662E+00 -0.25976851764E+03  0.31599145916E+03  0.17455116181E+03 0.  0.
         24    2    3    3    0    0  0.52543360067E+01  0.48124669787E+02 -0.77600561460E+02  0.12144070294E+03  0.79889957457E+02 0.  0.
         -6    2    1    2    0  502  0.43616468323E+02 -0.64428469662E+00 -0.10043584224E+03  0.20498935529E+03  0.17329300610E+03 0.  0.
        -24    2    5    5    0    0  0.51713804115E+02  0.59077766754E+02 -0.62160628251E+02  0.13343956645E+03  0.88191122740E+02 0.  0.
          5    1    3    3  501    0 -0.48870804330E+02 -0.47480385090E+02 -0.18216795618E+03  0.19455075622E+03  0.47000000000E+01 0. -1.
        -11    1    4    4    0    0 -0.10703683795E+02  0.38373877588E+02 -0.90393047666E+02  0.98782723157E+02  0.00000000000E+00 0.  1.
         12    1    4    4    0    0  0.15958019802E+02  0.97507921991E+01  0.12792486206E+02  0.22657979782E+02  0.00000000000E+00 0. -1.
         -5    1    5    5    0  502 -0.80973357921E+01 -0.59722051450E+02 -0.38275213991E+02  0.71549788835E+02  0.47000000000E+01 0.  1.
         13    1    6    6    0    0  0.18013918401E+02 -0.43780341472E+01  0.17967028856E+02  0.25816323617E+02  0.00000000000E+00 0. -1.
        -14    1    6    6    0    0  0.33699885714E+02  0.63455800901E+02 -0.80127657108E+02  0.10762324284E+03  0.00000000000E+00 0.  1.
</event>
<event>
12    1  0.8053217E-002  0.1953218E+03  0.7818608E-02  0.1154215E+00
         21   -1    0    0  503  502  0.00000000000E+00  0.00000000000E+00  0.30563040124E+03  0.30563040124E+03  0.00000000000E+00 0.  1.
         21   -1    0    0  501  503 -0.00000000000E+00 -0.00000000000E+00 -0.94516156690E+03  0.94516156690E+03  0.00000000000E+00 0.  1.
          6    2    1    2  501    0 -0.58298411477E+02  0.68404687734E+02 -0.90265506676E+03  0.92309576760E+03  0.17100210682E+03 0.  0.
         24    2    3    3    0    0 -0.18757329914E+02  0.40394153883E+02 -0.83395230314E+03  0.83889216396E+03  0.79247042497E+02 0.  0.
         -6    2    1    2    0  502  0.58298411477E+02 -0.68404687734E+02  0.26312390110E+03  0.32769620054E+03  0.17341483913E+03 0.  0.
        -24    2    5    5    0    0 -0.76945950439E+01 -0.72754542221E+02  0.22932389079E+03  0.25327490761E+03  0.78780084612E+02 0.  0.
          5    1    3    3  501    0 -0.39541081563E+02  0.28010533850E+02 -0.68702763613E+02  0.84203603639E+02  0.47000000000E+01 0. -1.
        -11    1    4    4    0    0  0.16718889416E+02  0.45225336251E+02 -0.31098483020E+03  0.31470051941E+03  0.00000000000E+00 0.  1.
         12    1    4    4    0    0 -0.35476219329E+02 -0.48311823676E+01 -0.52296747295E+03  0.52419164456E+03  0.00000000000E+00 0. -1.
         -5    1    5    5    0  502  0.65993006521E+02  0.43498544870E+01  0.33800010308E+02  0.74421292924E+02  0.47000000000E+01 0.  1.
         13    1    6    6    0    0 -0.16790318505E+02 -0.80844941056E+02  0.13558268148E+03  0.15874659936E+03  0.00000000000E+00 0. -1.
        -14    1    6    6    0    0  0.90957234608E+01  0.80903988353E+01  0.93741209309E+02  0.94528308253E+02  0.00000000000E+00 0.  1.
</event>
<event>
12    1  0.8053217E-002  0.1754316E+03  0.7818608E-02  0.1172950E+00
         21   -1    0    0  501  502  0.00000000000E+00  0.00000000000E+00  0.25570734562E+02  0.25570734562E+02  0.00000000000E+00 0.  1.
         21   -1    0    0  502  503 -0.00000000000E+00 -0.00000000000E+00 -0.12670445406E+04  0.12670445406E+04  0.00000000000E+00 0.  1.
         -6    2    1    2    0  503 -0.15419616213E+02  0.54696132749E+01 -0.77995748044E+03  0.79888096294E+03  0.17207393884E+03 0.  0.
        -24    2    3    3    0    0 -0.41981994185E+02  0.41089860563E+02 -0.70431410887E+03  0.71102669951E+03  0.77780068092E+02 0.  0.
          6    2    1    2  501    0  0.15419616213E+02 -0.54696132749E+01 -0.46151632557E+03  0.49373431219E+03  0.17466702903E+03 0.  0.
         24    2    5    5    0    0 -0.33952366113E+02 -0.50139226277E+02 -0.18547659358E+03  0.20973961048E+03  0.76957340519E+02 0.  0.
          5    1    5    5  501    0  0.49371982327E+02  0.44669613002E+02 -0.27603973199E+03  0.28399470171E+03  0.47000000000E+01 0. -1.
        -13    1    6    6    0    0 -0.38726557394E+02  0.12841779584E+01 -0.41483008548E+02  0.56764736931E+02  0.00000000000E+00 0.  1.
         14    1    6    6    0    0  0.47741912808E+01 -0.51423404235E+02 -0.14399358503E+03  0.15297487354E+03  0.00000000000E+00 0. -1.
         -5    1    3    3    0  503  0.26562377972E+02 -0.35620247288E+02 -0.75643371570E+02  0.87854263430E+02  0.47000000000E+01 0.  1.
         11    1    4    4    0    0 -0.49467573390E+01  0.56436073552E+02 -0.45434224721E+03  0.45786065392E+03  0.00000000000E+00 0. -1.
        -12    1    4    4    0    0 -0.37035236846E+02 -0.15346212989E+02 -0.24997186166E+03  0.25316604559E+03  0.00000000000E+00 0.  1.
</event>
<event>
12    1  0.8053217E-002  0.3836550E+03  0.7818608E-02  0.1050004E+00
         21   -1    0    0  503  502  0.00000000000E+00  0.00000000000E+00  0.19659825430E+03  0.19659825430E+03  0.00000000000E+00 0.  1.
         21   -1    0    0  501  503 -0.00000000000E+00 -0.00000000000E+00 -0.75345054962E+03  0.75345054962E+03  0.00000000000E+00 0. -1.
          6    2    1    2  501    0 -0.89142844998E+02  0.33097672471E+03 -0.34361855554E+03  0.51503868849E+03  0.17233426768E+03 0.  0.
         24    2    3    3    0    0 -0.48166555542E+02  0.28137422642E+03 -0.33884135982E+03  0.45035193766E+03  0.80696519542E+02 0.  0.
         -6    2    1    2    0  502  0.89142844998E+02 -0.33097672471E+03 -0.21323373978E+03  0.43501011543E+03  0.16208989367E+03 0.  0.
        -24    2    5    5    0    0  0.61140759081E+02 -0.10981667912E+03 -0.41730030739E+02  0.15370690749E+03  0.78016168267E+02 0.  0.
          5    1    3    3  501    0 -0.40976289456E+02  0.49602498292E+02 -0.47771957269E+01  0.64686750834E+02  0.47000000000E+01 0. -1.
        -11    1    4    4    0    0 -0.30254411309E+01  0.63740117036E+02 -0.13252761028E+03  0.14709018764E+03  0.00000000000E+00 0.  1.
         12    1    4    4    0    0 -0.45141114411E+02  0.21763410938E+03 -0.20631374954E+03  0.30326175002E+03  0.00000000000E+00 0. -1.
         -5    1    5    5    0  502  0.28002085917E+02 -0.22116004559E+03 -0.17150370904E+03  0.28130320794E+03  0.47000000000E+01 0.  1.
         11    1    6    6    0    0  0.40910161256E+02 -0.70349086351E+02 -0.64511180963E+02  0.10384761776E+03  0.00000000000E+00 0. -1.
        -12    1    6    6    0    0  0.20230597824E+02 -0.39467592774E+02  0.22781150223E+02  0.49859289738E+02  0.00000000000E+00 0.  1.
</event>
<event>
12    1  0.8053217E-002  0.1857983E+03  0.7818608E-02  0.1162369E+00
         21   -1    0    0  503  502  0.00000000000E+00  0.00000000000E+00  0.38997215906E+03  0.38997215906E+03  0.00000000000E+00 0. -1.
         21   -1    0    0  501  503 -0.00000000000E+00 -0.00000000000E+00 -0.10072038074E+03  0.10072038074E+03  0.00000000000E+00 0.  1.
          6    2    1    2  501    0 -0.76537591818E+01 -0.69545677264E+02  0.58698719037E+02  0.19459168044E+03  0.17182898831E+03 0.  0.
         24    2    3    3    0    0 -0.48973145139E+01 -0.11454621422E+03  0.46759589074E+02  0.14771653630E+03  0.80553690445E+02 0.  0.
         -6    2    1    2    0  502  0.76537591818E+01  0.69545677264E+02  0.23055305928E+03  0.29610085936E+03  0.17212153995E+03 0.  0.
        -24    2    5    5    0    0 -0.26062264148E+02  0.27296354134E+01  0.19776032627E+03  0.21425584109E+03  0.78164738024E+02 0.  0.
          5    1    3    3  501    0 -0.27564446679E+01  0.45000536958E+02  0.11939129963E+02  0.46875144139E+02  0.47000000000E+01 0. -1.
        -11    1    4    4    0    0 -0.30919181706E+02 -0.10894777929E+03  0.41294602939E+02  0.12054401122E+03  0.00000000000E+00 0.  1.
         12    1    4    4    0    0  0.26021867192E+02 -0.55984349355E+01  0.54649861358E+01  0.27172525082E+02  0.00000000000E+00 0. -1.
         -5    1    5    5    0  502  0.33716023330E+02  0.66816041851E+02  0.32792733004E+02  0.81845018270E+02  0.47000000000E+01 0.  1.
         11    1    6    6    0    0 -0.46262660587E+02  0.12350041708E+02  0.71656109412E+02  0.86182105514E+02  0.00000000000E+00 0. -1.
        -12    1    6    6    0    0  0.20200396439E+02 -0.96204062945E+01  0.12610421686E+03  0.12807373557E+03  0.00000000000E+00 0.  1.
</event>
<event>
12    1  0.8053217E-002  0.1833682E+03  0.7818608E-02  0.1164756E+00
         21   -1    0    0  501  502  0.00000000000E+00  0.00000000000E+00  0.11566457692E+03  0.11566457692E+03  0.00000000000E+00 0.  1.
         21   -1    0    0  502  503 -0.00000000000E+00 -0.00000000000E+00 -0.13763611094E+04  0.13763611094E+04  0.00000000000E+00 0.  1.
         -6    2    1    2    0  503  0.36814424457E+02 -0.50242591856E+02 -0.12929992596E+04  0.13058339114E+04  0.17168430083E+03 0.  0.
        -24    2    3    3    0    0 -0.24876921696E+02  0.76494922441E+01 -0.39320265739E+03  0.40205665410E+03  0.79773726048E+02 0.  0.
          6    2    1    2  501    0 -0.36814424457E+02  0.50242591856E+02  0.32302727112E+02  0.18619177486E+03  0.17246533263E+03 0.  0.
         24    2    5    5    0    0  0.31209330408E+02 -0.90220435494E+01 -0.11475683508E+02  0.85801698294E+02  0.78580026368E+02 0.  0.
          5    1    5    5  501    0 -0.68023754864E+02  0.59264635405E+02  0.43778410620E+02  0.10039007656E+03  0.47000000000E+01 0. -1.
        -11    1    6    6    0    0 -0.56671349416E+01 -0.25331021608E+02  0.21506144887E+02  0.33708920808E+02  0.00000000000E+00 0.  1.
         12    1    6    6    0    0  0.36876465349E+02  0.16308978058E+02 -0.32981828395E+02  0.52092777486E+02  0.00000000000E+00 0. -1.
         -5    1    3    3    0  503  0.61691346152E+02 -0.57892084100E+02 -0.89979660219E+03  0.90377725735E+03  0.47000000000E+01 0.  1.
         13    1    4    4    0    0 -0.34206246642E+02 -0.16189584375E+02 -0.34845384602E+03  0.35050285699E+03  0.00000000000E+00 0. -1.
        -14    1    4    4    0    0  0.93293249459E+01  0.23839076619E+02 -0.44748811361E+02  0.51553797108E+02  0.00000000000E+00 0.  1.
</event>
<event>
12    1  0.8053217E-002  0.2008682E+03  0.7818608E-02  0.1149125E+00
         21   -1    0    0  503  502  0.00000000000E+00  0.00000000000E+00  0.10247708943E+04  0.10247708943E+04  0.00000000000E+00 0. -1.
         21   -1    0    0  501  503 -0.00000000000E+00 -0.00000000000E+00 -0.50025027986E+02  0.50025027986E+02  0.00000000000E+00 0.  1.
          6    2    1    2  501    0  0.73014412040E+02 -0.74742461992E+02  0.73714747361E+03  0.76402515718E+03  0.17155320737E+03 0.  0.
         24    2    3    3    0    0  0.36738680981E+02 -0.48416852234E+02  0.18764163697E+03  0.21267434246E+03  0.79542879965E+02 0.  0.
         -6    2    1    2    0  502 -0.73014412040E+02  0.74742461992E+02  0.23759839266E+03  0.31077076507E+03  0.17090328328E+03 0.  0.
        -24    2    5    5    0    0 -0.68666293556E+02  0.39098708275E+02  0.55081574144E+02  0.12469588134E+03  0.79191629310E+02 0.  0.
          5    1    3    3  501    0  0.36275731058E+02 -0.26325609759E+02  0.54950583664E+03  0.55135081472E+03  0.47000000000E+01 0. -1.
        -11    1    4    4    0    0  0.51109903572E+02 -0.24997107894E+02  0.17175824056E+03  0.18093637237E+03  0.00000000000E+00 0.  1.
         12    1    4    4    0    0 -0.14371222591E+02 -0.23419744340E+02  0.15883396416E+02  0.31737970090E+02  0.00000000000E+00 0. -1.
         -5    1    5    5    0  502 -0.43481184836E+01  0.35643753718E+02  0.18251681852E+03  0.18607488373E+03  0.47000000000E+01 0.  1.
         13    1    6    6    0    0 -0.24379832694E+02  0.28442153574E+02  0.67749528432E+02  0.77416606389E+02  0.00000000000E+00 0. -1.
        -14    1    6    6    0    0 -0.44286460862E+02  0.10656554701E+02 -0.12667954288E+02  0.47279274948E+02  0.00000000000E+00 0.  1.
</event>
<event>
12    1  0.8053217E-002  0.4005059E+03  0.7818608E-02  0.1043750E+00
         21   -1    0    0  501  502  0.00000000000E+00  0.00000000000E+00  0.39021393509E+03  0.39021393509E+03  0.00000000000E+00 0.  1.
         21   -1    0    0  502  503 -0.00000000000E+00 -0.00000000000E+00 -0.46228076054E+03  0.46228076054E+03  0.00000000000E+00 0. -1.
         -6    2    1    2    0  503 -0.35604289176E+03  0.59539776000E+02  0.10827018476E+03  0.41326076806E+03  0.16955973523E+03 0.  0.
        -24    2    3    3    0    0 -0.91783932164E+02 -0.81108514452E+01  0.64458640626E+02  0.13694401772E+03  0.78157990779E+02 0.  0.
          6    2    1    2  501    0  0.35604289176E+03 -0.59539776000E+02 -0.18033701021E+03  0.43923392756E+03  0.17347472488E+03 0.  0.
         24    2    5    5    0    0  0.15295036050E+03 -0.78076292458E+02 -0.44020344652E+02  0.19388824897E+03  0.78518419007E+02 0.  0.
          5    1    5    5  501    0  0.20309253126E+03  0.18536516458E+02 -0.13631666556E+03  0.24534567860E+03  0.47000000000E+01 0. -1.
        -13    1    6    6    0    0 -0.51808801152E+01 -0.16031011415E+02  0.40940091629E+01  0.17337697563E+02  0.00000000000E+00 0.  1.
         14    1    6    6    0    0  0.15813124062E+03 -0.62045281042E+02 -0.48114353815E+02  0.17655055140E+03  0.00000000000E+00 0. -1.
         -5    1    3    3    0  503 -0.26425895960E+03  0.67650627445E+02  0.43811544136E+02  0.27631675034E+03  0.47000000000E+01 0.  1.
         11    1    4    4    0    0  0.10791898234E+02  0.12148512502E+02  0.78651284326E+01  0.18053023812E+02  0.00000000000E+00 0. -1.
        -12    1    4    4    0    0 -0.10257583040E+03 -0.20259363948E+02  0.56593512193E+02  0.11889099390E+03  0.00000000000E+00 0.  1.
</event>
<event>
12    1  0.8053217E-002  0.2665460E+03  0.7818608E-02  0.1103343E+00
         21   -1    0    0  501  502  0.00000000000E+00  0.00000000000E+00  0.11182540717E+03  0.11182540717E+03  0.00000000000E+00 0. -1.
         21   -1    0    0  502  503 -0.00000000000E+00 -0.00000000000E+00 -0.11048070700E+04  0.11048070700E+04  0.00000000000E+00 0.  1.
         -6    2    1    2    0  503  0.12918454129E+03  0.15636856593E+03 -0.89377883431E+03  0.93267753858E+03  0.17293643972E+03 0.  0.
        -24    2    3    3    0    0  0.11271999384E+03  0.11082312458E+03 -0.40843339562E+03  0.44489915303E+03  0.78293395342E+02 0.  0.
          6    2    1    2  501    0 -0.12918454129E+03 -0.15636856593E+03 -0.99202828485E+02  0.28395493856E+03  0.17219010375E+03 0.  0.
         24    2    5    5    0    0 -0.33497197921E+02 -0.13998491570E+03 -0.36419274230E+02  0.16824687332E+03  0.79137904652E+02 0.  0.
          5    1    5    5  501    0 -0.95687343373E+02 -0.16383650228E+02 -0.62783554255E+02  0.11570806524E+03  0.47000000000E+01 0. -1.
        -11    1    6    6    0    0 -0.12122423502E+02 -0.11519896876E+03 -0.57494490447E+02  0.12931887714E+03  0.00000000000E+00 0.  1.
         12    1    6    6    0    0 -0.21374774418E+02 -0.24785946947E+02  0.21075216217E+02  0.38927996174E+02  0.00000000000E+00 0. -1.
         -5    1    3    3    0  503  0.16464547449E+02  0.45545441357E+02 -0.48534543870E+03  0.48777838555E+03  0.47000000000E+01 0.  1.
         13    1    4    4    0    0  0.49979677407E+02  0.17599805881E+01 -0.13285261760E+03  0.14195380829E+03  0.00000000000E+00 0. -1.
        -14    1    4    4    0    0  0.62740316438E+02  0.10906314399E+03 -0.27558077802E+03  0.30294534474E+03  0.00000000000E+00 0.  1.
</event>
<event>
12    1  0.8053217E-002  0.1805206E+03  0.7818608E-02  0.1168563E+00
         21   -1    0    0  501  502  0.00000000000E+00  0.00000000000E+00  0.18709030732E+03  0.18709030732E+03  0.00000000000E+00 0.  1.
         21   -1    0    0  502  503 -0.00000000000E+00 -0.00000000000E+00 -0.16994441274E+03  0.16994441274E+03  0.00000000000E+00 0.  1.
         -6    2    1    2    0  503 -0.41533348672E+02  0.93529781959E+01  0.20183722121E+02  0.18164545539E+03  0.17542859394E+03 0.  0.
        -24    2    3    3    0    0  0.99493199045E+01 -0.54615356488E+02  0.20635901001E+02  0.99397613641E+02  0.79826180270E+02 0.  0.
          6    2    1    2  501    0  0.41533348672E+02 -0.93529781959E+01 -0.30378275440E+01  0.17538926468E+03  0.17011663209E+03 0.  0.
         24    2    5    5    0    0  0.42002763198E+02 -0.33602330506E+02 -0.58021908172E+02  0.11510999328E+03  0.83608731562E+02 0.  0.
          5    1    5    5  501    0 -0.46941452548E+00  0.24249352310E+02  0.54984080628E+02  0.60279271395E+02  0.47000000000E+01 0. -1.
        -13    1    6    6    0    0  0.31095971167E+01 -0.41299848172E+02 -0.62745447015E+02  0.75182033588E+02  0.00000000000E+00 0.  1.
         14    1    6    6    0    0  0.38893166081E+02  0.76975176663E+01  0.47235388428E+01  0.39927959693E+02  0.00000000000E+00 0. -1.
         -5    1    3    3    0  503 -0.51482668577E+02  0.63968334684E+02 -0.45217888078E+00  0.82247841746E+02  0.47000000000E+01 0.  1.
         11    1    4    4    0    0  0.43373177914E+02 -0.16398102059E+02  0.12001559688E+02  0.47897471212E+02  0.00000000000E+00 0. -1.
        -12    1    4    4    0    0 -0.33423858010E+02 -0.38217254429E+02  0.86343413138E+01  0.51500142430E+02  0.00000000000E+00 0.  1.
</event>
<event>
12    1  0.8053217E-002  0.2080607E+03  0.7818608E-02  0.1143279E+00
         21   -1    0    0  501  502  0.00000000000E+00  0.00000000000E+00  0.40468172232E+03  0.40468172232E+03  0.00000000000E+00 0.  1.
         21   -1    0    0  502  503 -0.00000000000E+00 -0.00000000000E+00 -0.11224679884E+03  0.11224679884E+03  0.00000000000E+00 0.  1.
         -6    2    1    2    0  503  0.42740036515E+02 -0.10872927662E+03  0.88229960295E+02  0.22599507881E+03  0.17216411774E+03 0.  0.
        -24    2    3    3    0    0 -0.12691711508E+02  0.54783186923E+01  0.39373311594E+02  0.89888078116E+02  0.79614806442E+02 0.  0.
          6    2    1    2  501    0 -0.42740036515E+02  0.10872927662E+03  0.20420496319E+03  0.29093344234E+03  0.17115441732E+03 0.  0.
         24    2    5    5    0    0 -0.12449377788E+02  0.57639197294E+02  0.20862015014E+03  0.23118978922E+03  0.80306210994E+02 0.  0.
          5    1    5    5  501    0 -0.30290658728E+02  0.51090079330E+02 -0.44151869558E+01  0.59743653119E+02  0.47000000000E+01 0. -1.
        -13    1    6    6    0    0  0.27768439015E+02 -0.16815627308E+01  0.64024570767E+02  0.69807302773E+02  0.00000000000E+00 0.  1.
         14    1    6    6    0    0 -0.40217816803E+02  0.59320760025E+02  0.14459557938E+03  0.16138248645E+03  0.00000000000E+00 0. -1.
         -5    1    3    3    0  503  0.55431748023E+02 -0.11420759532E+03  0.48856648702E+02  0.13610700070E+03  0.47000000000E+01 0.  1.
         13    1    4    4    0    0 -0.98559214228E+01 -0.36134617469E+02  0.27672724130E+02  0.46568545473E+02  0.00000000000E+00 0. -1.
        -14    1    4    4    0    0 -0.28357900852E+01  0.41612936161E+02  0.11700587464E+02  0.43319532643E+02  0.00000000000E+00 0.  1.
</event>
<event>
12    1  0.8053217E-002  0.2509132E+03  0.7818608E-02  0.1112845E+00
         21   -1    0    0  501  502  0.00000000000E+00  0.00000000000E+00  0.37905873831E+03  0.37905873831E+03  0.00000000000E+00 0. -1.
         21   -1    0    0  502  503 -0.00000000000E+00 -0.00000000000E+00 -0.18489944506E+03  0.18489944506E+03  0.00000000000E+00 0. -1.
         -6    2    1    2    0  503  0.16730531787E+03  0.73424581269E+02  0.61131562380E+01  0.25098766134E+03  0.17197440782E+03 0.  0.
        -24    2    3    3    0    0  0.81427361024E+02  0.72166249888E+02 -0.54489349259E+02  0.14576712845E+03  0.80253247959E+02 0.  0.
          6    2    1    2  501    0 -0.16730531787E+03 -0.73424581269E+02  0.18804613701E+03  0.31297052203E+03  0.17090043738E+03 0.  0.
         24    2    5    5    0    0 -0.15644633385E+03 -0.69192262678E+02  0.80933156729E+02  0.20512289527E+03  0.79134074303E+02 0.  0.
          5    1    5    5  501    0 -0.10858984018E+02 -0.42323185913E+01  0.10711298028E+03  0.10784762676E+03  0.47000000000E+01 0. -1.
        -11    1    6    6    0    0 -0.80663136898E+01  0.15013381340E+02  0.20673666272E+01  0.17168023782E+02  0.00000000000E+00 0.  1.
         12    1    6    6    0    0 -0.14838002016E+03 -0.84205644018E+02  0.78865790102E+02  0.18795487149E+03  0.00000000000E+00 0. -1.
         -5    1    3    3    0  503  0.85877956843E+02  0.12583313809E+01  0.60602505497E+02  0.10522053289E+03  0.47000000000E+01 0.  1.
         13    1    4    4    0    0  0.64683858203E+02  0.19123756613E+02  0.63775264242E+00  0.67454624063E+02  0.00000000000E+00 0. -1.
        -14    1    4    4    0    0  0.16743502821E+02  0.53042493275E+02 -0.55127101901E+02  0.78312504388E+02  0.00000000000E+00 0.  1.
</event>
<event>
12    1  0.8053217E-002  0.2596992E+03  0.7818608E-02  0.1107439E+00
         21   -1    0    0  501  502  0.00000000000E+00  0.00000000000E+00  0.37161402963E+03  0.37161402963E+03  0.00000000000E+00 0.  1.
         21   -1    0    0  502  503 -0.00000000000E+00 -0.00000000000E+00 -0.18238501196E+03  0.18238501196E+03  0.00000000000E+00 0. -1.
         -6    2    1    2    0  503  0.18729036663E+03  0.49801761477E+02  0.11901231808E+03  0.28497481513E+03  0.17172308094E+03 0.  0.
        -24    2    3    3    0    0  0.16216153324E+03  0.67861658429E+02  0.14727690729E+03  0.24280142129E+03  0.79752587483E+02 0.  0.
          6    2    1    2  501    0 -0.18729036663E+03 -0.49801761477E+02  0.70216699590E+02  0.26902422647E+03  0.17287496246E+03 0.  0.
         24    2    5    5    0    0 -0.18972882038E+03 -0.38007447191E+01  0.30326979867E+02  0.20790696754E+03  0.79335430282E+02 0.  0.
          5    1    5    5  501    0  0.24384537523E+01 -0.46001016758E+02  0.39889719723E+02  0.61117258930E+02  0.47000000000E+01 0. -1.
        -13    1    6    6    0    0 -0.11691072299E+03 -0.40622797968E+02  0.23917026952E+02  0.12605694365E+03  0.00000000000E+00 0.  1.
         14    1    6    6    0    0 -0.72818097394E+02  0.36822053249E+02  0.64099529143E+01  0.81850023885E+02  0.00000000000E+00 0. -1.
         -5    1    3    3    0  503  0.25128833389E+02 -0.18059896952E+02 -0.28264589209E+02  0.42173393847E+02  0.47000000000E+01 0.  1.
         13    1    4    4    0    0  0.60753572355E+02  0.67703434967E+02  0.59652445728E+02  0.10878035641E+03  0.00000000000E+00 0. -1.
        -14    1    4    4    0    0  0.10140796089E+03  0.15822346220E+00  0.87624461561E+02  0.13402106487E+03  0.00000000000E+00 0.  1.
</event>
<event>
12    1  0.8053217E-002  0.2344124E+03  0.7818608E-02  0.1123669E+00
         21   -1    0    0  503  502  0.00000000000E+00  0.00000000000E+00  0.97681074380E+03  0.97681074380E+03  0.00000000000E+00 0. -1.
         21   -1    0    0  501  503 -0.00000000000E+00 -0.00000000000E+00 -0.70184179395E+02  0.70184179395E+02  0.00000000000E+00 0. -1.
          6    2    1    2  501    0 -0.31506659736E+02 -0.15551854035E+03  0.21939156387E+03  0.32106359687E+03  0.17254126734E+03 0.  0.
         24    2    3    3    0    0  0.29332763376E+02 -0.10706602371E+03  0.70695329826E+02  0.15318941245E+03  0.78394017553E+02 0.  0.
         -6    2    1    2    0  502  0.31506659736E+02  0.15551854035E+03  0.68723500053E+03  0.72593132633E+03  0.17177211236E+03 0.  0.
        -24    2    5    5    0    0  0.57134246275E+02  0.11118987737E+03  0.63666955572E+03  0.65381504687E+03  0.80613159009E+02 0.  0.
          5    1    3    3  501    0 -0.60839423112E+02 -0.48452516646E+02  0.14869623405E+03  0.16787418442E+03  0.47000000000E+01 0. -1.
        -13    1    4    4    0    0  0.17415353740E+02  0.87260554239E+01  0.92579665500E+01  0.21567302423E+02  0.00000000000E+00 0.  1.
         14    1    4    4    0    0  0.11917409636E+02 -0.11579207913E+03  0.61437363276E+02  0.13162211003E+03  0.00000000000E+00 0. -1.
         -5    1    5    5    0  502 -0.25627586539E+02  0.44328662985E+02  0.50565444811E+02  0.72116279457E+02  0.47000000000E+01 0.  1.
         11    1    6    6    0    0  0.43134099941E+02  0.11494653709E+03  0.44583152683E+03  0.46242729946E+03  0.00000000000E+00 0. -1.
        -12    1    6    6    0    0  0.14000146334E+02 -0.37566597186E+01  0.19083802889E+03  0.19138774741E+03  0.00000000000E+00 0.  1.
</event>
<event>
12    1  0.8053217E-002  0.2881976E+03  0.7818608E-02  0.1091411E+00
         21   -1    0    0  503  502  0.00000000000E+00  0.00000000000E+00  0.18737826742E+03  0.18737826742E+03  0.00000000000E+00 0.  1.
         21   -1    0    0  501  503 -0.00000000000E+00 -0.00000000000E+00 -0.71048527297E+03  0.71048527297E+03  0.00000000000E+00 0. -1.
          6    2    1    2  501    0 -0.13551445808E+03 -0.18698732725E+03 -0.53782499288E+03  0.61017501971E+03  0.17242216453E+03 0.  0.
         24    2    3    3    0    0 -0.46167619662E+02 -0.46266994703E+02 -0.10878402255E+03  0.14986717300E+03  0.79712747267E+02 0.  0.
         -6    2    1    2    0  502  0.13551445808E+03  0.18698732725E+03  0.14717987327E+02  0.28768852067E+03  0.17093752331E+03 0.  0.
        -24    2    5    5    0    0  0.81159637239E+02  0.16186220503E+03 -0.45008492507E+02  0.20298279059E+03  0.79937405159E+02 0.  0.
          5    1    3    3  501    0 -0.89346838420E+02 -0.14072033255E+03 -0.42904097033E+03  0.46030784672E+03  0.47000000000E+01 0. -1.
        -11    1    4    4    0    0 -0.56690198386E+02 -0.40729657486E+01 -0.44166328117E+02  0.71979387204E+02  0.00000000000E+00 0.  1.
         12    1    4    4    0    0  0.10522578724E+02 -0.42194028954E+02 -0.64617694430E+02  0.77887785793E+02  0.00000000000E+00 0. -1.
         -5    1    5    5    0  502  0.54354820843E+02  0.25125122219E+02  0.59726479833E+02  0.84705730082E+02  0.47000000000E+01 0.  1.
         13    1    6    6    0    0 -0.43763560334E+00  0.57403003082E+02 -0.40686412948E+02  0.70361072237E+02  0.00000000000E+00 0. -1.
        -14    1    6    6    0    0  0.81597272842E+02  0.10445920195E+03 -0.43220795587E+01  0.13262171835E+03  0.00000000000E+00 0.  1.
</event>
<event>
12    1  0.8053217E-002  0.1995882E+03  0.7818608E-02  0.1150498E+00
         21   -1    0    0  501  502  0.00000000000E+00  0.00000000000E+00  0.18912697165E+03  0.18912697165E+03  0.00000000000E+00 0. -1.
         21   -1    0    0  502  503 -0.00000000000E+00 -0.00000000000E+00 -0.24478580714E+03  0.24478580714E+03  0.00000000000E+00 0.  1.
         -6    2    1    2    0  503 -0.95640801058E+02  0.31560368867E+02 -0.11136962150E+03  0.22855771401E+03  0.17231429520E+03 0.  0.
        -24    2    3    3    0    0  0.15654608159E+02  0.33546877470E+02 -0.56860075593E+02  0.10452548060E+03  0.79511308340E+02 0.  0.
          6    2    1    2  501    0  0.95640801058E+02 -0.31560368867E+02  0.55710786005E+02  0.20535506478E+03  0.17006995985E+03 0.  0.
         24    2    5    5    0    0  0.58589573499E+02 -0.81772910713E+02  0.39552301500E+02  0.14072318841E+03  0.90105960691E+02 0.  0.
          5    1    5    5  501    0  0.37051227558E+02  0.50212541846E+02  0.16158484505E+02  0.64631876375E+02  0.47000000000E+01 0. -1.
        -13    1    6    6    0    0  0.61857002592E+02 -0.99419315901E+02  0.33647846742E+02  0.12183048360E+03  0.00000000000E+00 0.  1.
         14    1    6    6    0    0 -0.32674290926E+01  0.17646405188E+02  0.59044547581E+01  0.18892704807E+02  0.00000000000E+00 0. -1.
         -5    1    3    3    0  503 -0.11129540922E+03 -0.19865086035E+01 -0.54509545906E+02  0.12403223341E+03  0.47000000000E+01 0.  1.
         11    1    4    4    0    0  0.23395935562E+02 -0.17313339148E+02 -0.41773319730E+02  0.50912982181E+02  0.00000000000E+00 0. -1.
        -12    1    4    4    0    0 -0.77413274028E+01  0.50860216619E+02 -0.15086755863E+02  0.53612498421E+02  0.00000000000E+00 0.  1.
</event>
<event>
12    1  0.8053217E-002  0.2163869E+03  0.7818608E-02  0.1136808E+00
         21   -1    0    0  501  502  0.00000000000E+00  0.00000000000E+00  0.27508681965E+03  0.27508681965E+03  0.00000000000E+00 0. -1.
         21   -1    0    0  502  503 -0.00000000000E+00 -0.00000000000E+00 -0.20019102314E+03  0.20019102314E+03  0.00000000000E+00 0.  1.
         -6    2    1    2    0  503 -0.10550510654E+03 -0.77221866362E+02 -0.55856171632E+02  0.22245500213E+03  0.17108995269E+03 0.  0.
        -24    2    3    3    0    0 -0.59984141203E+02 -0.92072759574E+02 -0.89904507432E+02  0.16351362036E+03  0.81107295199E+02 0.  0.
          6    2    1    2  501    0  0.10550510654E+03  0.77221866362E+02  0.13075196815E+03  0.25282284067E+03  0.17242032201E+03 0.  0.
         24    2    5    5    0    0  0.87270423270E+02 -0.46263280093E+01  0.31343455937E+02  0.12268532534E+03  0.80198174145E+02 0.  0.
          5    1    5    5  501    0  0.18234683266E+02  0.81848194371E+02  0.99408512208E+02  0.13013751533E+03  0.47000000000E+01 0. -1.
        -11    1    6    6    0    0  0.25511173010E+02  0.28097408941E+02 -0.12762077775E+02  0.40039417662E+02  0.00000000000E+00 0.  1.
         12    1    6    6    0    0  0.61759250260E+02 -0.32723736950E+02  0.44105533712E+02  0.82645907683E+02  0.00000000000E+00 0. -1.
         -5    1    3    3    0  503 -0.45520965334E+02  0.14850893212E+02  0.34048335800E+02  0.58941381769E+02  0.47000000000E+01 0.  1.
         13    1    4    4    0    0 -0.10903275281E+01 -0.66720285294E+01  0.14706929474E+02  0.16186369370E+02  0.00000000000E+00 0. -1.
        -14    1    4    4    0    0 -0.58893813675E+02 -0.85400731045E+02 -0.10461143691E+03  0.14732725099E+03  0.00000000000E+00 0.  1.
</event>
<event>
12    1  0.8053217E-002  0.2361932E+03  0.7818608E-02  0.1122621E+00
         21   -1    0    0  501  502  0.00000000000E+00  0.00000000000E+00  0.17265611809E+04  0.17265611809E+04  0.00000000000E+00 0. -1.
         21   -1    0    0  502  503 -0.00000000000E+00 -0.00000000000E+00 -0.32106040359E+02  0.32106040359E+02  0.00000000000E+00 0.  1.
         -6    2    1    2    0  503 -0.82199617387E+02  0.13632053828E+03  0.83609103795E+03  0.86881266717E+03  0.17449114773E+03 0.  0.
        -24    2    3    3    0    0 -0.52422307717E+02 -0.95376034872E+01  0.27720360798E+03  0.29041960439E+03  0.68283542019E+02 0.  0.
          6    2    1    2  501    0  0.82199617387E+02 -0.13632053828E+03  0.85836410260E+03  0.88985455410E+03  0.17237206433E+03 0.  0.
         24    2    5    5    0    0  0.66304287074E+02 -0.86365376001E+02  0.30749011084E+03  0.33647184334E+03  0.82509977835E+02 0.  0.
          5    1    5    5  501    0  0.15895330312E+02 -0.49955162283E+02  0.55087399176E+03  0.55338271076E+03  0.47000000000E+01 0. -1.
        -13    1    6    6    0    0  0.40481459865E+02 -0.83210714285E+02  0.29173311768E+03  0.30605715727E+03  0.00000000000E+00 0.  1.
         14    1    6    6    0    0  0.25822827209E+02 -0.31546617162E+01  0.15756993163E+02  0.30414686077E+02  0.00000000000E+00 0. -1.
         -5    1    3    3    0  503 -0.29777309670E+02  0.14585814177E+03  0.55888742997E+03  0.57839306278E+03  0.47000000000E+01 0.  1.
         11    1    4    4    0    0 -0.69404973266E+01  0.24812019682E+02  0.13079159961E+03  0.13330509875E+03  0.00000000000E+00 0. -1.
        -12    1    4    4    0    0 -0.45481810390E+02 -0.34349623169E+02  0.14641200837E+03  0.15711450564E+03  0.00000000000E+00 0.  1.
</event>
<event>
12    1  0.8053217E-002  0.1882946E+03  0.7818608E-02  0.1160067E+00
         21   -1    0    0  503  502  0.00000000000E+00  0.00000000000E+00  0.76629742125E+03  0.76629742125E+03  0.00000000000E+00 0.  1.
         21   -1    0    0  501  503 -0.00000000000E+00 -0.00000000000E+00 -0.10907204834E+03  0.10907204834E+03  0.00000000000E+00 0.  1.
          6    2    1    2  501    0 -0.62138688967E+02 -0.43912828787E+02 -0.35826903377E+01  0.18832865173E+03  0.17223615240E+03 0.  0.
         24    2    3    3    0    0 -0.39433749524E+02  0.36614519929E+02  0.25774686053E+02  0.99536119868E+02  0.79670954846E+02 0.  0.
         -6    2    1    2    0  502  0.62138688967E+02  0.43912828787E+02  0.66080806325E+03  0.68704081787E+03  0.17195416761E+03 0.  0.
        -24    2    5    5    0    0  0.10227138910E+03  0.40900545358E+02  0.45245168551E+03  0.47478112405E+03  0.92586696658E+02 0.  0.
          5    1    3    3  501    0 -0.22704939443E+02 -0.80527348716E+02 -0.29357376390E+02  0.88792531864E+02  0.47000000000E+01 0. -1.
        -11    1    4    4    0    0 -0.32147338359E+02 -0.19388024182E+02  0.20608129580E+02  0.42825714823E+02  0.00000000000E+00 0.  1.
         12    1    4    4    0    0 -0.72864111642E+01  0.56002544111E+02  0.51665564724E+01  0.56710405045E+02  0.00000000000E+00 0. -1.
         -5    1    5    5    0  502 -0.40132700138E+02  0.30122834293E+01  0.20835637774E+03  0.21225969381E+03  0.47000000000E+01 0.  1.
         13    1    6    6    0    0  0.12432363438E+02  0.26109370418E+02  0.26555345623E+02  0.39261294750E+02  0.00000000000E+00 0. -1.
        -14    1    6    6    0    0  0.89839025667E+02  0.14791174940E+02  0.42589633988E+03  0.43551982930E+03  0.00000000000E+00 0.  1.
</event>
<event>
12    1  0.8053217E-002  0.2566231E+03  0.7818608E-02  0.1109356E+00
         21   -1    0    0  503  502  0.00000000000E+00  0.00000000000E+00  0.68510338399E+03  0.68510338399E+03  0.00000000000E+00 0. -1.
         21   -1    0    0  501  503 -0.00000000000E+00 -0.00000000000E+00 -0.15035576178E+03  0.15035576178E+03  0.00000000000E+00 0.  1.
          6    2    1    2  501    0 -0.18803405182E+03 -0.29305530061E+02  0.15919233760E+02  0.25711638794E+03  0.17216212188E+03 0.  0.
         24    2    3    3    0    0 -0.17424577329E+03  0.30897846936E+02 -0.12011004631E+02  0.18916970706E+03  0.65762051240E+02 0.  0.
         -6    2    1    2    0  502  0.18803405182E+03  0.29305530061E+02  0.51882838846E+03  0.57834275783E+03  0.17053395592E+03 0.  0.
        -24    2    5    5    0    0  0.14198266313E+03 -0.44382240027E+02  0.33610254562E+03  0.37595342633E+03  0.79039216463E+02 0.  0.
          5    1    3    3  501    0 -0.13788278533E+02 -0.60203376997E+02  0.27930238391E+02  0.67946680885E+02  0.47000000000E+01 0. -1.
        -11    1    4    4    0    0 -0.79642463022E+02  0.23545828950E+02  0.25889597982E+02  0.86991949402E+02  0.00000000000E+00 0.  1.
         12    1    4    4    0    0 -0.94603310264E+02  0.73520179860E+01 -0.37900602613E+02  0.10217775766E+03  0.00000000000E+00 0. -1.
         -5    1    5    5    0  502  0.46051388686E+02  0.73687770088E+02  0.18272584284E+03  0.20238933149E+03  0.47000000000E+01 0.  1.
         13    1    6    6    0    0  0.11595619229E+03 -0.89808680965E+01  0.28907126732E+03  0.31159058412E+03  0.00000000000E+00 0. -1.
        -14    1    6    6    0    0  0.26026470845E+02 -0.35401371931E+02  0.47031278297E+02  0.64362842211E+02  0.00000000000E+00 0.  1.
</event>
<event>
12    1  0.8053217E-002  0.2304688E+03  0.7818608E-02  0.1126549E+00
         21   -1    0    0  503  502  0.00000000000E+00  0.00000000000E+00  0.21971414791E+03  0.21971414791E+03  0.00000000000E+00 0.  1.
         21   -1    0    0  501  503 -0.00000000000E+00 -0.00000000000E+00 -0.24778772320E+03  0.24778772320E+03  0.00000000000E+00 0. -1.
          6    2    1    2  501    0  0.83828191209E+02  0.12675223062E+03  0.26561757083E+02  0.23064556660E+03  0.17146007362E+03 0.  0.
         24    2    3    3    0    0 -0.31931538834E+01  0.22585291355E+02 -0.18485395005E+02  0.87555379486E+02  0.82486017185E+02 0.  0.
         -6    2    1    2    0  502 -0.83828191209E+02 -0.12675223062E+03 -0.54635332376E+02  0.23685630451E+03  0.17327029704E+03 0.  0.
        -24    2    5    5    0    0  0.38282272020E+01 -0.11590606042E+03 -0.34048226273E+02  0.14604217547E+03  0.81976613355E+02 0.  0.
          5    1    3    3  501    0  0.87021345092E+02  0.10416693926E+03  0.45047152088E+02  0.14309018711E+03  0.47000000000E+01 0. -1.
        -11    1    4    4    0    0  0.28341424320E+01  0.26542103507E+02  0.29064392457E+02  0.39462064452E+02  0.00000000000E+00 0.  1.
         12    1    4    4    0    0 -0.60272963155E+01 -0.39568121524E+01 -0.47549787462E+02  0.48093315034E+02  0.00000000000E+00 0. -1.
         -5    1    5    5    0  502 -0.87656418411E+02 -0.10846170193E+02 -0.20587106103E+02  0.90814129045E+02  0.47000000000E+01 0.  1.
         11    1    6    6    0    0 -0.23117625568E+02 -0.40250501063E+02 -0.45405518038E+02  0.64932183977E+02  0.00000000000E+00 0. -1.
        -12    1    6    6    0    0  0.26945852770E+02 -0.75655559360E+02  0.11357291765E+02  0.81109991492E+02  0.00000000000E+00 0.  1.
</event>
<event>
12    1  0.8053217E-002  0.4221226E+03  0.7818608E-02  0.1036458E+00
         21   -1    0    0  503  502  0.00000000000E+00  0.00000000000E+00  0.70837535835E+03  0.70837535835E+03  0.00000000000E+00 0. -1.
         21   -1    0    0  501  503 -0.00000000000E+00 -0.00000000000E+00 -0.40791116492E+03  0.40791116492E+03  0.00000000000E+00 0.  1.
          6    2    1    2  501    0  0.38129438328E+03  0.49091395231E+02 -0.19588169917E+03  0.46535703460E+03  0.17433346718E+03 0.  0.
         24    2    3    3    0    0  0.38497243115E+03  0.43101259905E+02 -0.21077478448E+03  0.44823092157E+03  0.80146477946E+02 0.  0.
         -6    2    1    2    0  502 -0.38129438328E+03 -0.49091395231E+02  0.49634589260E+03  0.65092948866E+03  0.17191446219E+03 0.  0.
        -24    2    5    5    0    0 -0.34567238714E+03 -0.83569510641E+02  0.46798603601E+03  0.59362295748E+03  0.83090453145E+02 0.  0.
          5    1    3    3  501    0 -0.36780478754E+01  0.59901353266E+01  0.14893085313E+02  0.17126113031E+02  0.47000000000E+01 0. -1.
        -13    1    4    4    0    0  0.21661890895E+03  0.63648061507E+02 -0.11323838008E+03  0.25258218102E+03  0.00000000000E+00 0.  1.
         14    1    4    4    0    0  0.16835352221E+03 -0.20546801602E+02 -0.97536404397E+02  0.19564874055E+03  0.00000000000E+00 0. -1.
         -5    1    5    5    0  502 -0.35621996136E+02  0.34478115410E+02  0.28359856589E+02  0.57306531187E+02  0.47000000000E+01 0.  1.
         13    1    6    6    0    0 -0.23920136473E+03 -0.49823434810E+02  0.25522049501E+03  0.35332303720E+03  0.00000000000E+00 0. -1.
        -14    1    6    6    0    0 -0.10647102241E+03 -0.33746075831E+02  0.21276554100E+03  0.24029992027E+03  0.00000000000E+00 0.  1.
</event>
<event>
12    1  0.8053217E-002  0.2075425E+03  0.7818608E-02  0.1144237E+00
         21   -1    0    0  501  502  0.00000000000E+00  0.00000000000E+00  0.16489759982E+03  0.16489759982E+03  0.00000000000E+00 0.  1.
         21   -1    0    0  502  503 -0.00000000000E+00 -0.00000000000E+00 -0.25684133240E+03  0.25684133240E+03  0.00000000000E+00 0.  1.
         -6    2    1    2    0  503  0.11604908342E+03 -0.87544797019E+01 -0.47009357459E+02  0.20938787402E+03  0.16759884074E+03 0.  0.
        -24    2    3    3    0    0  0.34867738197E+02 -0.54649110988E+01  0.35529018622E+02  0.93474520166E+02  0.78927500504E+02 0.  0.
          6    2    1    2  501    0 -0.11604908342E+03  0.87544797019E+01 -0.44934375114E+02  0.21235105820E+03  0.17184249525E+03 0.  0.
         24    2    5    5    0    0 -0.15338136864E+02  0.49677863020E+02 -0.13985579110E+01  0.95155173296E+02  0.79683138268E+02 0.  0.
          5    1    5    5  501    0 -0.10071094656E+03 -0.40923383318E+02 -0.43535817203E+02  0.11719588491E+03  0.47000000000E+01 0. -1.
        -13    1    6    6    0    0 -0.98463270190E+01 -0.16840915428E+02  0.17048395639E+02  0.25907805428E+02  0.00000000000E+00 0.  1.
         14    1    6    6    0    0 -0.54918098450E+01  0.66518778447E+02 -0.18446953550E+02  0.69247367869E+02  0.00000000000E+00 0. -1.
         -5    1    3    3    0  503  0.81181345227E+02 -0.32895686031E+01 -0.82538376081E+02  0.11591335385E+03  0.47000000000E+01 0.  1.
         11    1    4    4    0    0  0.27535833546E+01  0.11269574323E+02 -0.22360943860E+02  0.25191215473E+02  0.00000000000E+00 0. -1.
        -12    1    4    4    0    0  0.32114154843E+02 -0.16734485422E+02  0.57889962482E+02  0.68283304693E+02  0.00000000000E+00 0.  1.
</event>
<event>
12    1  0.8053217E-002  0.2388941E+03  0.7818608E-02  0.1120613E+00
         21   -1    0    0  501  502  0.00000000000E+00  0.00000000000E+00  0.38840597460E+03  0.38840597460E+03  0.00000000000E+00 0. -1.
         21   -1    0    0  502  503 -0.00000000000E+00 -0.00000000000E+00 -0.22149392737E+03  0.22149392737E+03  0.00000000000E+00 0.  1.
         -6    2    1    2    0  503 -0.83033755945E+02 -0.14314103175E+03 -0.93768559301E+02  0.25663779396E+03  0.17229757683E+03 0.  0.
        -24    2    3    3    0    0  0.21081722139E+01 -0.83965441578E+02 -0.99063343753E+02  0.15270982302E+03  0.80324991138E+02 0.  0.
          6    2    1    2  501    0  0.83033755945E+02  0.14314103175E+03  0.26068060653E+03  0.35326210801E+03  0.17162685903E+03 0.  0.
         24    2    5    5    0    0  0.10568400007E+03  0.51407543311E+02  0.14502765741E+03  0.20384403313E+03  0.81899481381E+02 0.  0.
          5    1    5    5  501    0 -0.22650244126E+02  0.91733488437E+02  0.11565294912E+03  0.14941807488E+03  0.47000000000E+01 0. -1.
        -11    1    6    6    0    0  0.17962214974E+02  0.41449533223E+02  0.16871694208E+02  0.48221976698E+02  0.00000000000E+00 0.  1.
         12    1    6    6    0    0  0.87721785096E+02  0.99580100880E+01  0.12815596320E+03  0.15562205644E+03  0.00000000000E+00 0. -1.
         -5    1    3    3    0  503 -0.85141928159E+02 -0.59175590170E+02  0.52947844515E+01  0.10392797095E+03  0.47000000000E+01 0.  1.
         11    1    4    4    0    0  0.96806546611E+00 -0.27649119880E+02  0.10438443633E+02  0.29569783333E+02  0.00000000000E+00 0. -1.
        -12    1    4    4    0    0  0.11401067478E+01 -0.56316321698E+02 -0.10950178739E+03  0.12314003969E+03  0.00000000000E+00 0.  1.
</event>
<event>
12    1  0.8053217E-002  0.1971836E+03  0.7818608E-02  0.1152923E+00
         21   -1    0    0  501  502  0.00000000000E+00  0.00000000000E+00  0.12506519231E+03  0.12506519231E+03  0.00000000000E+00 0. -1.
         21   -1    0    0  502  503 -0.00000000000E+00 -0.00000000000E+00 -0.31714059202E+03  0.31714059202E+03  0.00000000000E+00 0. -1.
         -6    2    1    2    0  503  0.87191524407E+02 -0.27215221604E+02 -0.54002193345E+02  0.20444466142E+03  0.17475226030E+03 0.  0.
        -24    2    3    3    0    0  0.87572195081E+02  0.41996192720E+02 -0.13690838671E+02  0.12421087739E+03  0.76212423167E+02 0.  0.
          6    2    1    2  501    0 -0.87191524407E+02  0.27215221604E+02 -0.13807320636E+03  0.23776112291E+03  0.17065494730E+03 0.  0.
         24    2    5    5    0    0  0.84651369399E+01 -0.13153962161E+02 -0.96798185865E+02  0.12593274917E+03  0.79022042885E+02 0.  0.
          5    1    5    5  501    0 -0.95656661347E+02  0.40369183765E+02 -0.41275020497E+02  0.11182837375E+03  0.47000000000E+01 0. -1.
        -13    1    6    6    0    0  0.21222198750E+02  0.18568844129E+02 -0.58905340843E+01  0.28807674045E+02  0.00000000000E+00 0.  1.
         14    1    6    6    0    0 -0.12757061810E+02 -0.31722806290E+02 -0.90907651780E+02  0.97125075121E+02  0.00000000000E+00 0. -1.
         -5    1    3    3    0  503 -0.38067067417E+00 -0.69211414324E+02 -0.40311354673E+02  0.80233784022E+02  0.47000000000E+01 0.  1.
         13    1    4    4    0    0  0.45345656273E+02 -0.18872557020E+02 -0.93806413302E+01  0.50003983672E+02  0.00000000000E+00 0. -1.
        -14    1    4    4    0    0  0.42226538808E+02  0.60868749740E+02 -0.43101973412E+01  0.74206893721E+02  0.00000000000E+00 0.  1.
</event>
<event>
12    1  0.8053217E-002  0.1932868E+03  0.7818608E-02  0.1155659E+00
         21   -1    0    0  501  502  0.00000000000E+00  0.00000000000E+00  0.27839171547E+02  0.27839171547E+02  0.00000000000E+00 0.  1.
         21   -1    0    0  502  503 -0.00000000000E+00 -0.00000000000E+00 -0.15646030309E+04  0.15646030309E+04  0.00000000000E+00 0.  1.
         -6    2    1    2    0  503  0.31012548370E+01  0.87795947772E+02 -0.10704523096E+04  0.10876588174E+04  0.17151037755E+03 0.  0.
        -24    2    3    3    0    0 -0.38296810895E+02  0.11287944110E+03 -0.79660470365E+03  0.80952650573E+03  0.80905473566E+02 0.  0.
          6    2    1    2  501    0 -0.31012548370E+01 -0.87795947772E+02 -0.46631154968E+03  0.50478338502E+03  0.17216869112E+03 0.  0.
         24    2    5    5    0    0 -0.63737728378E+02 -0.38367100863E+02 -0.20774097084E+03  0.23459673274E+03  0.79654149919E+02 0.  0.
          5    1    5    5  501    0  0.60636473541E+02 -0.49428846909E+02 -0.25857057884E+03  0.27018665228E+03  0.47000000000E+01 0. -1.
        -13    1    6    6    0    0 -0.46613122519E+02 -0.53806078989E+02 -0.19639571251E+03  0.20889986410E+03  0.00000000000E+00 0.  1.
         14    1    6    6    0    0 -0.17124605859E+02  0.15438978126E+02 -0.11345258325E+02  0.25696868639E+02  0.00000000000E+00 0. -1.
         -5    1    3    3    0  503  0.41398065732E+02 -0.25083493327E+02 -0.27384760599E+03  0.27813231167E+03  0.47000000000E+01 0.  1.
         13    1    4    4    0    0 -0.29051882768E+02 -0.11092705239E+01 -0.13312359857E+03  0.13626127428E+03  0.00000000000E+00 0. -1.
        -14    1    4    4    0    0 -0.92449281269E+01  0.11398871162E+03 -0.66348110508E+03  0.67326523145E+03  0.00000000000E+00 0.  1.
</event>
<event>
12    1  0.8053217E-002  0.1741108E+03  0.7818608E-02  0.1173636E+00
         21   -1    0    0  503  502  0.00000000000E+00  0.00000000000E+00  0.35895524794E+02  0.35895524794E+02  0.00000000000E+00 0.  1.
         21   -1    0    0  501  503 -0.00000000000E+00 -0.00000000000E+00 -0.84466746506E+03  0.84466746506E+03  0.00000000000E+00 0.  1.
          6    2    1    2  501    0 -0.22660461406E+02 -0.91932474304E+01 -0.41278604801E+03  0.44799000974E+03  0.17235055870E+03 0.  0.
         24    2    3    3    0    0  0.34712068452E+02 -0.34401892380E+02 -0.33711518960E+03  0.34962715204E+03  0.78765960206E+02 0.  0.
         -6    2    1    2    0  502  0.22660461406E+02  0.91932474304E+01 -0.39598589225E+03  0.43257298011E+03  0.17238487159E+03 0.  0.
        -24    2    5    5    0    0 -0.13753172666E+02 -0.30624589139E+02 -0.35330921768E+03  0.36361791208E+03  0.79142703176E+02 0.  0.
          5    1    3    3  501    0 -0.57372529858E+02  0.25208644949E+02 -0.75670858414E+02  0.98362857704E+02  0.47000000000E+01 0. -1.
        -13    1    4    4    0    0 -0.12672783093E+02  0.13996816380E+02 -0.13847884787E+03  0.13976015744E+03  0.00000000000E+00 0.  1.
         14    1    4    4    0    0  0.47384851545E+02 -0.48398708760E+02 -0.19863634173E+03  0.20986699460E+03  0.00000000000E+00 0. -1.
         -5    1    5    5    0  502  0.36413634073E+02  0.39817836569E+02 -0.42676674568E+02  0.68955068035E+02  0.47000000000E+01 0.  1.
         11    1    6    6    0    0  0.19626581531E+02  0.18237974251E+02 -0.11071968743E+03  0.11391521229E+03  0.00000000000E+00 0. -1.
        -12    1    6    6    0    0 -0.33379754197E+02 -0.48862563390E+02 -0.24258953025E+03  0.24970269978E+03  0.00000000000E+00 0.  1.
</event>
<event>
12    1  0.8053217E-002  0.1886071E+03  0.7818608E-02  0.1161105E+00
         21   -1    0    0  501  502  0.00000000000E+00  0.00000000000E+00  0.30255696575E+03  0.30255696575E+03  0.00000000000E+00 0.  1.
         21   -1    0    0  502  503 -0.00000000000E+00 -0.00000000000E+00 -0.12401649594E+03  0.12401649594E+03  0.00000000000E+00 0.  1.
         -6    2    1    2    0  503  0.47004397950E+02 -0.61368857240E+02  0.27001160067E+02  0.18462968162E+03  0.16547962600E+03 0.  0.
        -24    2    3    3    0    0  0.46275679977E+02  0.20056323816E+02  0.39554397072E+02  0.10210535248E+03  0.79481180130E+02 0.  0.
          6    2    1    2  501    0 -0.47004397950E+02  0.61368857240E+02  0.15153930974E+03  0.24194378007E+03  0.17203801980E+03 0.  0.
         24    2    5    5    0    0 -0.22279019400E+02  0.50111424322E+02  0.10093317383E+02  0.97835720295E+02  0.80389324893E+02 0.  0.
          5    1    5    5  501    0 -0.24725378549E+02  0.11257432919E+02  0.14144599235E+03  0.14410805978E+03  0.47000000000E+01 0. -1.
        -11    1    6    6    0    0 -0.49974792389E+02  0.14926001152E+02  0.97314154908E+01  0.53056251584E+02  0.00000000000E+00 0.  1.
         12    1    6    6    0    0  0.27695772988E+02  0.35185423170E+02  0.36190189231E+00  0.44779468711E+02  0.00000000000E+00 0. -1.
         -5    1    3    3    0  503  0.72871797268E+00 -0.81425181056E+02 -0.12553237005E+02  0.82524329135E+02  0.47000000000E+01 0.  1.
         11    1    4    4    0    0  0.39072210844E+01 -0.50148074330E+01  0.51136970465E+02  0.51530616322E+02  0.00000000000E+00 0. -1.
        -12    1    4    4    0    0  0.42368458892E+02  0.25071131249E+02 -0.11582573393E+02  0.50574736158E+02  0.00000000000E+00 0.  1.
</event>
<event>
12    1  0.8053217E-002  0.2476015E+03  0.7818608E-02  0.1114851E+00
         21   -1    0    0  503  502  0.00000000000E+00  0.00000000000E+00  0.32796507700E+03  0.32796507700E+03  0.00000000000E+00 0. -1.
         21   -1    0    0  501  503 -0.00000000000E+00 -0.00000000000E+00 -0.22069053578E+03  0.22069053578E+03  0.00000000000E+00 0.  1.
          6    2    1    2  501    0 -0.49871870917E+02  0.17130123233E+03  0.16110333463E+03  0.29539938604E+03  0.17168342126E+03 0.  0.
         24    2    3    3    0    0 -0.42152159730E+02  0.19269755818E+03  0.11076862305E+03  0.23996410945E+03  0.80024574167E+02 0.  0.
         -6    2    1    2    0  502  0.49871870917E+02 -0.17130123233E+03 -0.53828793405E+02  0.25325622674E+03  0.17149303682E+03 0.  0.
        -24    2    5    5    0    0 -0.49144958127E+01 -0.17498613708E+03 -0.38852608258E+02  0.19614667742E+03  0.79496499628E+02 0.  0.
          5    1    3    3  501    0 -0.77197111872E+01 -0.21396325854E+02  0.50334711582E+02  0.55435276593E+02  0.47000000000E+01 0. -1.
        -11    1    4    4    0    0 -0.46004095231E+02  0.67965921848E+02  0.16859013405E+02  0.83785259107E+02  0.00000000000E+00 0.  1.
         12    1    4    4    0    0  0.38519355013E+01  0.12473163633E+03  0.93909609642E+02  0.15617885034E+03  0.00000000000E+00 0. -1.
         -5    1    5    5    0  502  0.54786366729E+02  0.36849047531E+01 -0.14976185147E+02  0.57109549324E+02  0.47000000000E+01 0.  1.
         13    1    6    6    0    0 -0.22244827200E+02 -0.17506744413E+02 -0.23836178285E+02  0.37006510675E+02  0.00000000000E+00 0. -1.
        -14    1    6    6    0    0  0.17330331387E+02 -0.15747939267E+03 -0.15016429974E+02  0.15914016674E+03  0.00000000000E+00 0.  1.
</event>
<event>
12    1  0.8053217E-002  0.1875610E+03  0.7818608E-02  0.1161050E+00
         21   -1    0    0  503  502  0.00000000000E+00  0.00000000000E+00  0.21347181178E+03  0.21347181178E+03  0.00000000000E+00 0.  1.
         21   -1    0    0  501  503 -0.00000000000E+00 -0.00000000000E+00 -0.34873588083E+03  0.34873588083E+03  0.00000000000E+00 0.  1.
          6    2    1    2  501    0 -0.69489985484E+02 -0.21908400050E+02 -0.27270166557E+03  0.33097630872E+03  0.17283021278E+03 0.  0.
         24    2    3    3    0    0  0.25970090427E+00 -0.46755540210E+02 -0.22316960565E+03  0.24176916727E+03  0.80383514284E+02 0.  0.
         -6    2    1    2    0  502  0.69489985484E+02  0.21908400050E+02  0.13743759652E+03  0.23123138390E+03  0.17108484412E+03 0.  0.
        -24    2    5    5    0    0  0.69101670568E+02  0.29128299206E+02  0.21667522713E+02  0.11514056720E+03  0.84642601478E+02 0.  0.
          5    1    3    3  501    0 -0.69749686388E+02  0.24847140160E+02 -0.49532059923E+02  0.89207141450E+02  0.47000000000E+01 0. -1.
        -11    1    4    4    0    0 -0.29938339202E+02 -0.52580370301E+02 -0.16862072954E+03  0.17914784377E+03  0.00000000000E+00 0.  1.
         12    1    4    4    0    0  0.30198040107E+02  0.58248300903E+01 -0.54548876107E+02  0.62621323496E+02  0.00000000000E+00 0. -1.
         -5    1    5    5    0  502  0.38831491559E+00 -0.72198991557E+01  0.11577007380E+03  0.11609081670E+03  0.47000000000E+01 0.  1.
         11    1    6    6    0    0 -0.31136042759E+01 -0.19153753260E+02  0.20550459756E+02  0.28264504095E+02  0.00000000000E+00 0. -1.
        -12    1    6    6    0    0  0.72215274844E+02  0.48282052466E+02  0.11170629565E+01  0.86876063106E+02  0.00000000000E+00 0.  1.
</event>
<event>
12    1  0.8053217E-002  0.1755840E+03  0.7818608E-02  0.1172170E+00
         21   -1    0    0  501  502  0.00000000000E+00  0.00000000000E+00  0.38661850010E+02  0.38661850010E+02  0.00000000000E+00 0. -1.
         21   -1    0    0  502  503 -0.00000000000E+00 -0.00000000000E+00 -0.83060214954E+03  0.83060214954E+03  0.00000000000E+00 0. -1.
         -6    2    1    2    0  503  0.21058822098E+02 -0.25451773245E+02 -0.30845565979E+03  0.35488365322E+03  0.17235500144E+03 0.  0.
        -24    2    3    3    0    0 -0.25939249569E+02 -0.47247198562E+02 -0.70179391046E+02  0.11099529854E+03  0.67004976904E+02 0.  0.
          6    2    1    2  501    0 -0.21058822098E+02  0.25451773245E+02 -0.48348463974E+03  0.51438034633E+03  0.17244847657E+03 0.  0.
         24    2    5    5    0    0 -0.64396553638E+02  0.37622021513E+02 -0.14872516576E+03  0.17657527037E+03  0.59138131139E+02 0.  0.
          5    1    5    5  501    0  0.43337731540E+02 -0.12170248268E+02 -0.33475947399E+03  0.33780507595E+03  0.47000000000E+01 0. -1.
        -11    1    6    6    0    0 -0.40295968042E+02 -0.85015786119E+01 -0.48352731384E+02  0.63514002484E+02  0.00000000000E+00 0.  1.
         12    1    6    6    0    0 -0.24100585596E+02  0.46123600125E+02 -0.10037243437E+03  0.11306126789E+03  0.00000000000E+00 0. -1.
         -5    1    3    3    0  503  0.46998071667E+02  0.21795425316E+02 -0.23827626874E+03  0.24388835468E+03  0.47000000000E+01 0.  1.
         11    1    4    4    0    0 -0.37209137814E+02 -0.28365225977E+02 -0.75080932746E+02  0.88466109011E+02  0.00000000000E+00 0. -1.
        -12    1    4    4    0    0  0.11269888244E+02 -0.18881972585E+02  0.49015416997E+01  0.22529189527E+02  0.00000000000E+00 0.  1.
</event>
<event>
12    1  0.8053217E-002  0.1734767E+03  0.7818608E-02  0.1174462E+00
         21   -1    0    0  503  502  0.00000000000E+00  0.00000000000E+00  0.43412774068E+03  0.43412774068E+03  0.00000000000E+00 0. -1.
         21   -1    0    0  501  503 -0.00000000000E+00 -0.00000000000E+00 -0.96242450378E+02  0.96242450378E+02  0.00000000000E+00 0. -1.
          6    2    1    2  501    0  0.27754827729E+02  0.94342921104E+01  0.27641804525E+02  0.17491950748E+03  0.17021582891E+03 0.  0.
         24    2    3    3    0    0  0.75535455634E+02  0.18172769417E+02 -0.65909900142E+01  0.11530974645E+03  0.84953174578E+02 0.  0.
         -6    2    1    2    0  502 -0.27754827729E+02 -0.94342921104E+01  0.31024348578E+03  0.35545068357E+03  0.17098196295E+03 0.  0.
        -24    2    5    5    0    0 -0.27283870712E+02  0.20432727383E+02  0.50577730619E+02  0.94030227113E+02  0.71565849587E+02 0.  0.
          5    1    3    3  501    0 -0.47780627905E+02 -0.87384773068E+01  0.34232794540E+02  0.59609761035E+02  0.47000000000E+01 0. -1.
        -11    1    4    4    0    0  0.82969216539E+02  0.25300313191E+01  0.18285646625E+02  0.84997981294E+02  0.00000000000E+00 0.  1.
         12    1    4    4    0    0 -0.74337609054E+01  0.15642738098E+02 -0.24876636639E+02  0.30311765156E+02  0.00000000000E+00 0. -1.
         -5    1    5    5    0  502 -0.47095701649E+00 -0.29867019494E+02  0.25966575516E+03  0.26142045646E+03  0.47000000000E+01 0.  1.
         13    1    6    6    0    0  0.22442335582E+02  0.17417167862E+01  0.29862704481E+01  0.22707043289E+02  0.00000000000E+00 0. -1.
        -14    1    6    6    0    0 -0.49726206295E+02  0.18691010597E+02  0.47591460171E+02  0.71323183824E+02  0.00000000000E+00 0.  1.
</event>
<event>
12    1  0.8053217E-002  0.2558315E+03  0.7818608E-02  0.1109832E+00
         21   -1    0    0  503  502  0.00000000000E+00  0.00000000000E+00  0.62647801255E+03  0.62647801255E+03  0.00000000000E+00 0. -1.
         21   -1    0    0  501  503 -0.00000000000E+00 -0.00000000000E+00 -0.14855389960E+03  0.14855389960E+03  0.00000000000E+00 0.  1.
          6    2    1    2  501    0 -0.71006172093E+02  0.17187961907E+03  0.26529440540E+02  0.25618037993E+03  0.17418408630E+03 0.  0.
         24    2    3    3    0    0 -0.97045843646E+02  0.10357414857E+03 -0.24573554453E+02  0.16686460365E+03  0.84228477096E+02 0.  0.
         -6    2    1    2    0  502  0.71006172093E+02 -0.17187961907E+03  0.45139467241E+03  0.51885153221E+03  0.17568517943E+03 0.  0.
        -24    2    5    5    0    0  0.30035334535E+02 -0.17482938131E+03  0.43034482934E+03  0.47245652687E+03  0.80938641879E+02 0.  0.
          5    1    3    3  501    0  0.26039671553E+02  0.68305470504E+02  0.51102994993E+02  0.89315776281E+02  0.47000000000E+01 0. -1.
        -13    1    4    4    0    0 -0.83502813985E+02  0.42655680340E+02  0.11999588534E+02  0.94531566864E+02  0.00000000000E+00 0.  1.
         14    1    4    4    0    0 -0.13543029661E+02  0.60918468225E+02 -0.36573142987E+02  0.72333036790E+02  0.00000000000E+00 0. -1.
         -5    1    5    5    0  502  0.40970837559E+02  0.29497622449E+01  0.21049843073E+02  0.46395005345E+02  0.47000000000E+01 0.  1.
         13    1    6    6    0    0  0.28950080621E+02 -0.64682946650E+02  0.26091618742E+03  0.27036872528E+03  0.00000000000E+00 0. -1.
        -14    1    6    6    0    0  0.10852539140E+01 -0.11014643467E+03  0.16942864192E+03  0.20208780158E+03  0.00000000000E+00 0.  1.
</event>
<event>
12    1  0.8053217E-002  0.1859294E+03  0.7818608E-02  0.1162364E+00
         21   -1    0    0  501  502  0.00000000000E+00  0.00000000000E+00  0.49800257708E+03  0.49800257708E+03  0.00000000000E+00 0.  1.
         21   -1    0    0  502  503 -0.00000000000E+00 -0.00000000000E+00 -0.12636266370E+03  0.12636266370E+03  0.00000000000E+00 0.  1.
         -6    2    1    2    0  503  0.34186082607E+02  0.59750636029E+02 -0.24067370097E+02  0.18748066168E+03  0.17271633812E+03 0.  0.
        -24    2    3    3    0    0  0.11072298389E+02 -0.21143072078E+02  0.28902327505E+02  0.87952183869E+02  0.79565173434E+02 0.  0.
          6    2    1    2  501    0 -0.34186082607E+02 -0.59750636029E+02  0.39570728348E+03  0.43688457910E+03  0.17188674907E+03 0.  0.
         24    2    5    5    0    0 -0.85197511558E+02 -0.48907231481E+02  0.27038741930E+03  0.30106520027E+03  0.88771420139E+02 0.  0.
          5    1    5    5  501    0  0.51011428952E+02 -0.10843404548E+02  0.12531986418E+03  0.13581937883E+03  0.47000000000E+01 0. -1.
        -13    1    6    6    0    0 -0.87629482392E+02 -0.17448013340E+02  0.24429265567E+03  0.26011970507E+03  0.00000000000E+00 0.  1.
         14    1    6    6    0    0  0.24319708340E+01 -0.31459218141E+02  0.26094763627E+02  0.40945495197E+02  0.00000000000E+00 0. -1.
         -5    1    3    3    0  503  0.23113784218E+02  0.80893708106E+02 -0.52969697601E+02  0.99528477814E+02  0.47000000000E+01 0.  1.
         13    1    4    4    0    0 -0.32678063707E+02 -0.13412239101E+02  0.70321104074E+00  0.35330419062E+02  0.00000000000E+00 0. -1.
        -14    1    4    4    0    0  0.43750362096E+02 -0.77308329764E+01  0.28199116464E+02  0.52621764807E+02  0.00000000000E+00 0.  1.
</event>
<event>
12    1  0.8053217E-002  0.1836584E+03  0.7818608E-02  0.1164390E+00
         21   -1    0    0  503  502  0.00000000000E+00  0.00000000000E+00  0.19504510071E+03  0.19504510071E+03  0.00000000000E+00 0.  1.
         21   -1    0    0  501  503 -0.00000000000E+00 -0.00000000000E+00 -0.34889833636E+03  0.34889833636E+03  0.00000000000E+00 0.  1.
          6    2    1    2  501    0  0.14242081429E+02 -0.61546675155E+02 -0.27021426209E+03  0.32652610951E+03  0.17208347583E+03 0.  0.
         24    2    3    3    0    0 -0.42312708433E+02  0.40052887718E+01 -0.10683229202E+03  0.14156324196E+03  0.82586955523E+02 0.  0.
         -6    2    1    2    0  502 -0.14242081429E+02  0.61546675155E+02  0.11636102644E+03  0.21741732756E+03  0.17245166204E+03 0.  0.
        -24    2    5    5    0    0  0.18007174410E+02  0.51235819816E+02  0.14356930627E+03  0.17372855633E+03  0.81363984767E+02 0.  0.
          5    1    3    3  501    0  0.56554789862E+02 -0.65551963927E+02 -0.16338197007E+03  0.18496286756E+03  0.47000000000E+01 0. -1.
        -11    1    4    4    0    0  0.24285126428E+02 -0.71314020116E+01 -0.31191875091E+02  0.40169109175E+02  0.00000000000E+00 0.  1.
         12    1    4    4    0    0 -0.66597834861E+02  0.11136690783E+02 -0.75640416928E+02  0.10139413278E+03  0.00000000000E+00 0. -1.
         -5    1    5    5    0  502 -0.32249255839E+02  0.10310855339E+02 -0.27208279834E+02  0.43688771229E+02  0.47000000000E+01 0.  1.
         11    1    6    6    0    0  0.31530841085E+02  0.11545032144E+02  0.12030624117E+02  0.35668159798E+02  0.00000000000E+00 0. -1.
        -12    1    6    6    0    0 -0.13523666675E+02  0.39690787672E+02  0.13153868216E+03  0.13806039653E+03  0.00000000000E+00 0.  1.
</event>
<event>
12    1  0.8053217E-002  0.2124807E+03  0.7818608E-02  0.1139914E+00
         21   -1    0    0  501  502  0.00000000000E+00  0.00000000000E+00  0.11064927901E+04  0.11064927901E+04  0.00000000000E+00 0. -1.
         21   -1    0    0  502  503 -0.00000000000E+00 -0.00000000000E+00 -0.47835555363E+02  0.47835555363E+02  0.00000000000E+00 0.  1.
         -6    2    1    2    0  503  0.11781038062E+03 -0.38265552035E+02  0.75356084672E+03  0.78253292587E+03  0.17076384897E+03 0.  0.
        -24    2    3    3    0    0  0.11272785353E+03 -0.17572283293E+02  0.74689186789E+03  0.75971607395E+03  0.79402119669E+02 0.  0.
          6    2    1    2  501    0 -0.11781038062E+03  0.38265552035E+02  0.30509638805E+03  0.37179541962E+03  0.17263976886E+03 0.  0.
         24    2    5    5    0    0 -0.12101443891E+03  0.76648837940E+02  0.28104213518E+03  0.32614194541E+03  0.82851361023E+02 0.  0.
          5    1    5    5  501    0  0.32040582898E+01 -0.38383285905E+02  0.24054252866E+02  0.45653474209E+02  0.47000000000E+01 0. -1.
        -11    1    6    6    0    0 -0.74384877101E+02  0.34696279019E+02  0.76511360262E+02  0.11220931320E+03  0.00000000000E+00 0.  1.
         12    1    6    6    0    0 -0.46629561813E+02  0.41952558921E+02  0.20453077492E+03  0.21393263221E+03  0.00000000000E+00 0. -1.
         -5    1    3    3    0  503  0.50825270952E+01 -0.20693268742E+02  0.66689788310E+01  0.22816851920E+02  0.47000000000E+01 0.  1.
         13    1    4    4    0    0  0.56763204742E+02 -0.48667421475E+02  0.42293609802E+03  0.42949449628E+03  0.00000000000E+00 0. -1.
        -14    1    4    4    0    0  0.55964648787E+02  0.31095138182E+02  0.32395576986E+03  0.33022157767E+03  0.00000000000E+00 0.  1.
</event>
<event>
12    1  0.8053217E-002  0.2841479E+03  0.7818608E-02  0.1095163E+00
         21   -1    0    0  501  502  0.00000000000E+00  0.00000000000E+00  0.11962550347E+03  0.11962550347E+03  0.00000000000E+00 0.  1.
         21   -1    0    0  502  503 -0.00000000000E+00 -0.00000000000E+00 -0.87505272504E+03  0.87505272504E+03  0.00000000000E+00 0.  1.
         -6    2    1    2    0  503 -0.17805402989E+03 -0.10989131311E+03 -0.62610086807E+03  0.68248387430E+03  0.17321259602E+03 0.  0.
        -24    2    3    3    0    0 -0.44697034916E+02 -0.23408184008E+02 -0.36385401280E+03  0.37579360248E+03  0.79280016555E+02 0.  0.
          6    2    1    2  501    0  0.17805402989E+03  0.10989131311E+03 -0.12932635350E+03  0.31219435421E+03  0.19225158213E+03 0.  0.
         24    2    5    5    0    0  0.87004826961E+02  0.13894043257E+03 -0.11459678679E+03  0.21538082813E+03  0.79888634158E+02 0.  0.
          5    1    5    5  501    0  0.91049202934E+02 -0.29049119456E+02 -0.14729566716E+02  0.96813526079E+02  0.47000000000E+01 0. -1.
        -11    1    6    6    0    0  0.60017740407E+02  0.13118908645E+03 -0.64664810399E+02  0.15809567758E+03  0.00000000000E+00 0.  1.
         12    1    6    6    0    0  0.26987086554E+02  0.77513461233E+01 -0.49931976390E+02  0.57285150551E+02  0.00000000000E+00 0. -1.
         -5    1    3    3    0  503 -0.13335699498E+03 -0.86483129105E+02 -0.26224685527E+03  0.30669027182E+03  0.47000000000E+01 0.  1.
         11    1    4    4    0    0 -0.49182056818E+02  0.15118213800E+02 -0.15351280010E+03  0.16190619165E+03  0.00000000000E+00 0. -1.
        -12    1    4    4    0    0  0.44850219018E+01 -0.38526397808E+02 -0.21034121270E+03  0.21388741083E+03  0.00000000000E+00 0.  1.
</event>
<event>
12    1  0.8053217E-002  0.1769676E+03  0.7818608E-02  0.1171050E+00
         21   -1    0    0  503  502  0.00000000000E+00  0.00000000000E+00  0.63694597912E+03  0.63694597912E+03  0.00000000000E+00 0. -1.
         21   -1    0    0  501  503 -0.00000000000E+00 -0.00000000000E+00 -0.51183256832E+02  0.51183256832E+02  0.00000000000E+00 0.  1.
          6    2    1    2  501    0 -0.15839304320E+02 -0.32011273411E+02  0.22040049829E+03  0.28265513247E+03  0.17332610617E+03 0.  0.
         24    2    3    3    0    0  0.11493566865E+02  0.29714757903E+02  0.90957702375E+02  0.13659104995E+03  0.96792264092E+02 0.  0.
         -6    2    1    2    0  502  0.15839304320E+02  0.32011273411E+02  0.36536222400E+03  0.40547410348E+03  0.17217458779E+03 0.  0.
        -24    2    5    5    0    0  0.38282791374E+02  0.77861475014E+02  0.32294018487E+03  0.33893336031E+03  0.55294469151E+02 0.  0.
          5    1    3    3  501    0 -0.27332871185E+02 -0.61726031314E+02  0.12944279591E+03  0.14606408252E+03  0.47000000000E+01 0. -1.
        -11    1    4    4    0    0 -0.34099651186E+02 -0.15512237735E+02  0.29247298389E+02  0.47527046969E+02  0.00000000000E+00 0.  1.
         12    1    4    4    0    0  0.45593218051E+02  0.45226995638E+02  0.61710403986E+02  0.89064002980E+02  0.00000000000E+00 0. -1.
         -5    1    5    5    0  502 -0.22443487054E+02 -0.45850201603E+02  0.42422039126E+02  0.66540743171E+02  0.47000000000E+01 0.  1.
         11    1    6    6    0    0 -0.13843744474E+02  0.20514699390E+02  0.95399189281E+02  0.98557127939E+02  0.00000000000E+00 0. -1.
        -12    1    6    6    0    0  0.52126535848E+02  0.57346775624E+02  0.22754099559E+03  0.24037623237E+03  0.00000000000E+00 0.  1.
</event>
<event>
12    1  0.8053217E-002  0.2119772E+03  0.7818608E-02  0.1141554E+00
         21   -1    0    0  503  502  0.00000000000E+00  0.00000000000E+00  0.93727481876E+02  0.93727481876E+02  0.00000000000E+00 0. -1.
         21   -1    0    0  501  503 -0.00000000000E+00 -0.00000000000E+00 -0.50438144147E+03  0.50438144147E+03  0.00000000000E+00 0. -1.
          6    2    1    2  501    0 -0.11221895259E+03  0.51507818677E+02 -0.28843217750E+03  0.35342037628E+03  0.16268587107E+03 0.  0.
         24    2    3    3    0    0 -0.30369163198E+02 -0.39208108047E+01 -0.21253499817E+03  0.22870392660E+03  0.78719132134E+02 0.  0.
         -6    2    1    2    0  502  0.11221895259E+03 -0.51507818677E+02 -0.12222178209E+03  0.24468854706E+03  0.17230256046E+03 0.  0.
        -24    2    5    5    0    0  0.11237025231E+03 -0.17963711828E+02 -0.25085961952E+02  0.14181635670E+03  0.80825769368E+02 0.  0.
          5    1    3    3  501    0 -0.81849789396E+02  0.55428629482E+02 -0.75897179330E+02  0.12471644968E+03  0.47000000000E+01 0. -1.
        -13    1    4    4    0    0 -0.17553255659E+02  0.37310428378E+02 -0.10793867283E+03  0.11554627620E+03  0.00000000000E+00 0.  1.
         14    1    4    4    0    0 -0.12815907538E+02 -0.41231239183E+02 -0.10459632534E+03  0.11315765040E+03  0.00000000000E+00 0. -1.
         -5    1    5    5    0  502 -0.15129971756E+00 -0.33544106849E+02 -0.97135820139E+02  0.10287219036E+03  0.47000000000E+01 0.  1.
         11    1    6    6    0    0  0.87141613078E+02 -0.46783603208E+02 -0.29621737053E+02  0.10324637313E+03  0.00000000000E+00 0. -1.
        -12    1    6    6    0    0  0.25228639233E+02  0.28819891381E+02  0.45357751011E+01  0.38569983569E+02  0.00000000000E+00 0.  1.
</event>
<event>
12    1  0.8053217E-002  0.2008037E+03  0.7818608E-02  0.1149822E+00
         21   -1    0    0  503  502  0.00000000000E+00  0.00000000000E+00  0.59394764276E+02  0.59394764276E+02  0.00000000000E+00 0. -1.
         21   -1    0    0  501  503 -0.00000000000E+00 -0.00000000000E+00 -0.69538247562E+03  0.69538247562E+03  0.00000000000E+00 0. -1.
          6    2    1    2  501    0  0.21285248595E+02  0.99083173319E+02 -0.23877020740E+03  0.30968861133E+03  0.16919009133E+03 0.  0.
         24    2    3    3    0    0  0.54427869655E+02  0.42689947853E+02 -0.21454865065E+03  0.23977864766E+03  0.81718123664E+02 0.  0.
         -6    2    1    2    0  502 -0.21285248595E+02 -0.99083173319E+02 -0.39721750395E+03  0.44508862857E+03  0.17335398697E+03 0.  0.
        -24    2    5    5    0    0  0.33882356024E+02  0.78606211318E+00 -0.18062665919E+03  0.20023966938E+03  0.79506623868E+02 0.  0.
          5    1    3    3  501    0 -0.33142621060E+02  0.56393225467E+02 -0.24221556756E+02  0.69909963674E+02  0.47000000000E+01 0. -1.
        -13    1    4    4    0    0 -0.24043210076E+00 -0.22108767140E+02 -0.39033708068E+02  0.44860737372E+02  0.00000000000E+00 0.  1.
         14    1    4    4    0    0  0.54668301756E+02  0.64798714993E+02 -0.17551494258E+03  0.19491791028E+03  0.00000000000E+00 0. -1.
         -5    1    5    5    0  502 -0.55167604619E+02 -0.99869235432E+02 -0.21659084475E+03  0.24484895919E+03  0.47000000000E+01 0.  1.
         11    1    6    6    0    0  0.21918277195E+02 -0.35176876143E+02 -0.13337145329E+03  0.13966305182E+03  0.00000000000E+00 0. -1.
        -12    1    6    6    0    0  0.11964078829E+02  0.35962938256E+02 -0.47255205898E+02  0.60576617557E+02  0.00000000000E+00 0.  1.
</event>
<event>
12    1  0.8053217E-002  0.1833948E+03  0.7818608E-02  0.1165004E+00
         21   -1    0    0  503  502  0.00000000000E+00  0.00000000000E+00  0.17066228724E+03  0.17066228724E+03  0.00000000000E+00 0. -1.
         21   -1    0    0  501  503 -0.00000000000E+00 -0.00000000000E+00 -0.19813865937E+03  0.19813865937E+03  0.00000000000E+00 0. -1.
          6    2    1    2  501    0  0.47064871373E+02 -0.43563242170E+02 -0.36783974699E+02  0.18704736764E+03  0.17181617723E+03 0.  0.
         24    2    3    3    0    0 -0.90377683168E+01 -0.89354417218E+01 -0.75890886752E+02  0.11024872628E+03  0.78954617212E+02 0.  0.
         -6    2    1    2    0  502 -0.47064871373E+02  0.43563242170E+02  0.93076025627E+01  0.18175357897E+03  0.16980834437E+03 0.  0.
        -24    2    5    5    0    0  0.50905679873E+01  0.84128590983E+02 -0.66436660635E+01  0.11361937060E+03  0.75905792759E+02 0.  0.
          5    1    3    3  501    0  0.56102639690E+02 -0.34627800448E+02  0.39106912053E+02  0.76798641358E+02  0.47000000000E+01 0. -1.
        -13    1    4    4    0    0  0.46716216414E+01  0.34170602516E+02 -0.28556477197E+02  0.44776405785E+02  0.00000000000E+00 0.  1.
         14    1    4    4    0    0 -0.13709389958E+02 -0.43106044238E+02 -0.47334409555E+02  0.65472320494E+02  0.00000000000E+00 0. -1.
         -5    1    5    5    0  502 -0.52155439361E+02 -0.40565348813E+02  0.15951268626E+02  0.68134208368E+02  0.47000000000E+01 0.  1.
         11    1    6    6    0    0  0.39824762456E+02  0.51546139541E+02  0.22242869618E+01  0.65176404156E+02  0.00000000000E+00 0. -1.
        -12    1    6    6    0    0 -0.34734194468E+02  0.32582451442E+02 -0.88679530253E+01  0.48442966447E+02  0.00000000000E+00 0.  1.
</event>
<event>
12    1  0.8053217E-002  0.1931506E+03  0.7818608E-02  0.1157413E+00
         21   -1    0    0  501  502  0.00000000000E+00  0.00000000000E+00  0.38671956334E+03  0.38671956334E+03  0.00000000000E+00 0.  1.
         21   -1    0    0  502  503 -0.00000000000E+00 -0.00000000000E+00 -0.24478245681E+03  0.24478245681E+03  0.00000000000E+00 0. -1.
         -6    2    1    2    0  503 -0.54415338059E+02 -0.50350039024E+02 -0.17741453600E+03  0.26226527420E+03  0.17835638766E+03 0.  0.
        -24    2    3    3    0    0  0.30716008330E+02 -0.20954369993E+01 -0.39246358451E+02  0.92888805811E+02  0.78359361721E+02 0.  0.
          6    2    1    2  501    0  0.54415338059E+02  0.50350039024E+02  0.31935164252E+03  0.36923674595E+03  0.16986508627E+03 0.  0.
         24    2    5    5    0    0  0.66052593255E+01 -0.32960162212E+02  0.16425384192E+03  0.18674342824E+03  0.82242213379E+02 0.  0.
          5    1    5    5  501    0  0.47810078734E+02  0.83310201236E+02  0.15509780061E+03  0.18249331772E+03  0.47000000000E+01 0. -1.
        -11    1    6    6    0    0 -0.26414034125E+02 -0.84956534310E+01  0.14210058999E+02  0.31173756635E+02  0.00000000000E+00 0.  1.
         12    1    6    6    0    0  0.33019293451E+02 -0.24464508781E+02  0.15004378292E+03  0.15556967160E+03  0.00000000000E+00 0. -1.
         -5    1    3    3    0  503 -0.85131346389E+02 -0.48254602025E+02 -0.13816817755E+03  0.16937646839E+03  0.47000000000E+01 0.  1.
         11    1    4    4    0    0 -0.20765835182E+02 -0.89406821577E+01 -0.33806390451E+02  0.40669739901E+02  0.00000000000E+00 0. -1.
        -12    1    4    4    0    0  0.51481843512E+02  0.68452451584E+01 -0.54399679997E+01  0.52219065910E+02  0.00000000000E+00 0.  1.
</event>
<event>
12    1  0.8053217E-002  0.1982693E+03  0.7818608E-02  0.1151900E+00
         21   -1    0    0  501  502  0.00000000000E+00  0.00000000000E+00  0.72487824687E+02  0.72487824687E+02  0.00000000000E+00 0. -1.
         21   -1    0    0  502  503 -0.00000000000E+00 -0.00000000000E+00 -0.57952546931E+03  0.57952546931E+03  0.00000000000E+00 0. -1.
         -6    2    1    2    0  503 -0.89467176449E+02 -0.24260982393E+02 -0.34344205796E+03  0.39496422239E+03  0.17161386560E+03 0.  0.
        -24    2    3    3    0    0  0.10202105246E+01 -0.57046478145E+02 -0.18427451691E+03  0.20890172736E+03  0.80171644698E+02 0.  0.
          6    2    1    2  501    0  0.89467176449E+02  0.24260982393E+02 -0.16359558667E+03  0.25704907161E+03  0.17526476631E+03 0.  0.
         24    2    5    5    0    0  0.99474961931E+02 -0.31781830373E+02 -0.14694694034E+03  0.19754932323E+03  0.80789721137E+02 0.  0.
          5    1    5    5  501    0 -0.10007785482E+02  0.56042812767E+02 -0.16648646335E+02  0.59499748385E+02  0.47000000000E+01 0. -1.
        -11    1    6    6    0    0  0.74577693733E+02 -0.58352040311E+02 -0.95198759594E+02  0.13427433425E+03  0.00000000000E+00 0.  1.
         12    1    6    6    0    0  0.24897268198E+02  0.26570209937E+02 -0.51748180742E+02  0.63274988976E+02  0.00000000000E+00 0. -1.
         -5    1    3    3    0  503 -0.90487386974E+02  0.32785495752E+02 -0.15916754105E+03  0.18606249503E+03  0.47000000000E+01 0.  1.
         13    1    4    4    0    0 -0.12253848001E+02 -0.53745744576E+02 -0.18699892283E+03  0.19495476140E+03  0.00000000000E+00 0. -1.
        -14    1    4    4    0    0  0.13274058525E+02 -0.33007335691E+01  0.27244059266E+01  0.13946965960E+02  0.00000000000E+00 0.  1.
</event>
<event>
12    1  0.8053217E-002  0.2067210E+03  0.7818608E-02  0.1145116E+00
         21   -1    0    0  501  502  0.00000000000E+00  0.00000000000E+00  0.97003137750E+02  0.97003137750E+02  0.00000000000E+00 0.  1.
         21   -1    0    0  502  503 -0.00000000000E+00 -0.00000000000E+00 -0.76104080938E+03  0.76104080938E+03  0.00000000000E+00 0. -1.
         -6    2    1    2    0  503 -0.79585335060E+02 -0.72310977046E+02 -0.61664947365E+03  0.65037692243E+03  0.17655272561E+03 0.  0.
        -24    2    3    3    0    0 -0.86427001568E+02  0.82789512279E+01 -0.27882382447E+03  0.30297254108E+03  0.80693667175E+02 0.  0.
          6    2    1    2  501    0  0.79585335060E+02  0.72310977046E+02 -0.47388197977E+02  0.20766702469E+03  0.17122280479E+03 0.  0.
         24    2    5    5    0    0  0.91666514394E+02  0.28153166448E+02  0.19548330837E+02  0.12643614374E+03  0.80053797930E+02 0.  0.
          5    1    5    5  501    0 -0.12081179334E+02  0.44157810598E+02 -0.66936528814E+02  0.81230880954E+02  0.47000000000E+01 0. -1.
        -11    1    6    6    0    0  0.18421241064E+02  0.45558354509E+02  0.22706124167E+01  0.49194120265E+02  0.00000000000E+00 0.  1.
         12    1    6    6    0    0  0.73245273330E+02 -0.17405188061E+02  0.17277718420E+02  0.77242023475E+02  0.00000000000E+00 0. -1.
         -5    1    3    3    0  503  0.68416665076E+01 -0.80589928274E+02 -0.33782564918E+03  0.34740438135E+03  0.47000000000E+01 0.  1.
         11    1    4    4    0    0 -0.10213767979E+03  0.63204509462E+01 -0.24896766374E+03  0.26917828910E+03  0.00000000000E+00 0. -1.
        -12    1    4    4    0    0  0.15710678221E+02  0.19585002816E+01 -0.29856160735E+02  0.33794251987E+02  0.00000000000E+00 0.  1.
</event>
<event>
12    1  0.8053217E-002  0.1858371E+03  0.7818608E-02  0.1162314E+00
         21   -1    0    0  501  502  0.00000000000E+00  0.00000000000E+00  0.64688443824E+02  0.64688443824E+02  0.00000000000E+00 0.  1.
         21   -1    0    0  502  503 -0.00000000000E+00 -0.00000000000E+00 -0.66247191723E+03  0.66247191723E+03  0.00000000000E+00 0.  1.
         -6    2    1    2    0  503  0.19699330353E+02  0.65693812534E+02 -0.45954229561E+03  0.49569601557E+03  0.17271849287E+03 0.  0.
        -24    2    3    3    0    0 -0.35428255153E+02  0.84941714571E+02 -0.25762832624E+03  0.28545597789E+03  0.81501562538E+02 0.  0.
          6    2    1    2  501    0 -0.19699330353E+02 -0.65693812534E+02 -0.13824117780E+03  0.23146434548E+03  0.17251486710E+03 0.  0.
         24    2    5    5    0    0 -0.31203987915E+02 -0.51275955850E+02 -0.81514457590E+01  0.99989404453E+02  0.79552010816E+02 0.  0.
          5    1    5    5  501    0  0.11504657561E+02 -0.14417856684E+02 -0.13008973204E+03  0.13147494103E+03  0.47000000000E+01 0. -1.
        -11    1    6    6    0    0 -0.44437382154E+02 -0.26838803147E+02 -0.33983533087E+02  0.62047423864E+02  0.00000000000E+00 0.  1.
         12    1    6    6    0    0  0.13233394239E+02 -0.24437152703E+02  0.25832087328E+02  0.37941980589E+02  0.00000000000E+00 0. -1.
         -5    1    3    3    0  503  0.55127585506E+02 -0.19247902037E+02 -0.20191396937E+03  0.21024003768E+03  0.47000000000E+01 0.  1.
         11    1    4    4    0    0  0.84839715301E+01  0.72875263957E+02 -0.12172772561E+03  0.14212818528E+03  0.00000000000E+00 0. -1.
        -12    1    4    4    0    0 -0.43912226683E+02  0.12066450614E+02 -0.13590060064E+03  0.14332779261E+03  0.00000000000E+00 0.  1.
</event>
<event>
12    1  0.8053217E-002  0.1799200E+03  0.7818608E-02  0.1168691E+00
         21   -1    0    0  503  502  0.00000000000E+00  0.00000000000E+00  0.26894054004E+03  0.26894054004E+03  0.00000000000E+00 0. -1.
         21   -1    0    0  501  503 -0.00000000000E+00 -0.00000000000E+00 -0.12039892294E+03  0.12039892294E+03  0.00000000000E+00 0. -1.
          6    2    1    2  501    0  0.16817316365E+02  0.51683670058E+02  0.47038140719E+02  0.18276224375E+03  0.16803400602E+03 0.  0.
         24    2    3    3    0    0  0.19365867334E+02  0.60644064228E+01 -0.34435066279E+02  0.89233714495E+02  0.79781377339E+02 0.  0.
         -6    2    1    2    0  502 -0.16817316365E+02 -0.51683670058E+02  0.10150347639E+03  0.20657721923E+03  0.17151433732E+03 0.  0.
        -24    2    5    5    0    0 -0.26366903618E+02 -0.21419044618E+02  0.13384334752E+03  0.16102395991E+03  0.82829251548E+02 0.  0.
          5    1    3    3  501    0 -0.25485509687E+01  0.45619263635E+02  0.81473206998E+02  0.93528529258E+02  0.47000000000E+01 0. -1.
        -13    1    4    4    0    0 -0.22937087314E+02  0.31045039020E+01 -0.40249803410E+02  0.46430535141E+02  0.00000000000E+00 0.  1.
         14    1    4    4    0    0  0.42302954648E+02  0.29599025209E+01  0.58147371314E+01  0.42803179354E+02  0.00000000000E+00 0. -1.
         -5    1    5    5    0  502  0.95495872527E+01 -0.30264625440E+02 -0.32339871130E+02  0.45553259318E+02  0.47000000000E+01 0.  1.
         11    1    6    6    0    0 -0.30167685968E+02  0.27263326887E+02  0.58659311332E+02  0.71374316638E+02  0.00000000000E+00 0. -1.
        -12    1    6    6    0    0  0.38007823504E+01 -0.48682371505E+02  0.75184036186E+02  0.89649643274E+02  0.00000000000E+00 0.  1.
</event>
<event>
12    1  0.8053217E-002  0.3011056E+03  0.7818608E-02  0.1084703E+00
         21   -1    0    0  503  502  0.00000000000E+00  0.00000000000E+00  0.97554007577E+02  0.97554007577E+02  0.00000000000E+00 0. -1.
         21   -1    0    0  501  503 -0.00000000000E+00 -0.00000000000E+00 -0.12336986503E+04  0.12336986503E+04  0.00000000000E+00 0.  1.
          6    2    1    2  501    0 -0.59647758193E+00 -0.24707022783E+03 -0.89893214742E+03  0.94802088871E+03  0.17210620704E+03 0.  0.
         24    2    3    3    0    0 -0.67603872923E+02 -0.14249628583E+03 -0.52224145488E+03  0.55135520047E+03  0.79880816148E+02 0.  0.
         -6    2    1    2    0  502  0.59647758193E+00  0.24707022783E+03 -0.23721249529E+03  0.38323176915E+03  0.17190918445E+03 0.  0.
        -24    2    5    5    0    0  0.22399259750E+02  0.92738534328E+02 -0.17619520469E+03  0.21578376922E+03  0.80098204183E+02 0.  0.
          5    1    3    3  501    0  0.67007395341E+02 -0.10457394200E+03 -0.37669069255E+03  0.39666568824E+03  0.47000000000E+01 0. -1.
        -11    1    4    4    0    0 -0.29930699339E+02 -0.11154003958E+03 -0.44714119617E+03  0.46181411467E+03  0.00000000000E+00 0.  1.
         12    1    4    4    0    0 -0.37673173585E+02 -0.30956246252E+02 -0.75100258706E+02  0.89541085808E+02  0.00000000000E+00 0. -1.
         -5    1    5    5    0  502 -0.21802782168E+02  0.15433169350E+03 -0.61017290591E+02  0.16744799993E+03  0.47000000000E+01 0.  1.
         13    1    6    6    0    0 -0.58245675284E+01  0.32682344798E+02 -0.68432478151E+01  0.33895298922E+02  0.00000000000E+00 0. -1.
        -14    1    6    6    0    0  0.28223827279E+02  0.60056189530E+02 -0.16935195688E+03  0.18188847029E+03  0.00000000000E+00 0.  1.
</event>
<event>
12    1  0.8053217E-002  0.1950197E+03  0.7818608E-02  0.1154026E+00
         21   -1    0    0  503  502  0.00000000000E+00  0.00000000000E+00  0.27720067445E+03  0.27720067445E+03  0.00000000000E+00 0. -1.
         21   -1    0    0  501  503 -0.00000000000E+00 -0.00000000000E+00 -0.37186531587E+03  0.37186531587E+03  0.00000000000E+00 0.  1.
          6    2    1    2  501    0 -0.23488205567E+02 -0.90501657980E+02 -0.30515932113E+03  0.36211532805E+03  0.17106447217E+03 0.  0.
         24    2    3    3    0    0 -0.79289025042E+02 -0.69574637440E+02 -0.23328508049E+03  0.26862913597E+03  0.81316076167E+02 0.  0.
         -6    2    1    2    0  502  0.23488205567E+02  0.90501657980E+02  0.21049467971E+03  0.28695066227E+03  0.17114446089E+03 0.  0.
        -24    2    5    5    0    0  0.49401901905E+02  0.53962550832E+02  0.21612199896E+03  0.24155922330E+03  0.79307219872E+02 0.  0.
          5    1    3    3  501    0  0.55800819476E+02 -0.20927020539E+02 -0.71874240634E+02  0.93486192080E+02  0.47000000000E+01 0. -1.
        -13    1    4    4    0    0  0.31630669664E+01 -0.19556673187E+02 -0.11169359777E+03  0.11343689101E+03  0.00000000000E+00 0.  1.
         14    1    4    4    0    0 -0.82452092009E+02 -0.50017964253E+02 -0.12159148272E+03  0.15519224496E+03  0.00000000000E+00 0. -1.
         -5    1    5    5    0  502 -0.25913696339E+02  0.36539107148E+02 -0.56273192554E+01  0.45391438962E+02  0.47000000000E+01 0.  1.
         13    1    6    6    0    0  0.57869843373E+01  0.57338033140E+02  0.80107681108E+02  0.98683229601E+02  0.00000000000E+00 0. -1.
        -14    1    6    6    0    0  0.43614917568E+02 -0.33754823076E+01  0.13601431785E+03  0.14287599370E+03  0.00000000000E+00 0.  1.
</event>
<event>
12    1  0.8053217E-002  0.2068451E+03  0.7818608E-02  0.1144217E+00
         21   -1    0    0  501  502  0.00000000000E+00  0.00000000000E+00  0.27164525973E+03  0.27164525973E+03  0.00000000000E+00 0. -1.
         21   -1    0    0  502  503 -0.00000000000E+00 -0.00000000000E+00 -0.29423093076E+03  0.29423093076E+03  0.00000000000E+00 0. -1.
         -6    2    1    2    0  503  0.82059287729E+02  0.79796986795E+02 -0.20449750819E+03  0.29041870462E+03  0.17152990215E+03 0.  0.
        -24    2    3    3    0    0  0.57701209136E+02  0.13732796292E+02 -0.19560969403E+03  0.21929292518E+03  0.79424274684E+02 0.  0.
          6    2    1    2  501    0 -0.82059287729E+02 -0.79796986795E+02  0.18191183716E+03  0.27545748588E+03  0.17228936190E+03 0.  0.
         24    2    5    5    0    0 -0.22045882750E+02 -0.85487128220E+02  0.47269867542E+02  0.12786163069E+03  0.79498969724E+02 0.  0.
          5    1    5    5  501    0 -0.60013404979E+02  0.56901414246E+01  0.13464196962E+03  0.14759585519E+03  0.47000000000E+01 0. -1.
        -11    1    6    6    0    0  0.12420872533E+01 -0.76585945819E+02  0.62314984579E+02  0.98742631020E+02  0.00000000000E+00 0.  1.
         12    1    6    6    0    0 -0.23287970003E+02 -0.89011824003E+01 -0.15045117036E+02  0.29118999667E+02  0.00000000000E+00 0. -1.
         -5    1    3    3    0  503  0.24358078593E+02  0.66064190503E+02 -0.88878141618E+01  0.71125779434E+02  0.47000000000E+01 0.  1.
         13    1    4    4    0    0  0.77413727297E+02  0.92783179748E+01 -0.14193850104E+03  0.16194292339E+03  0.00000000000E+00 0. -1.
        -14    1    4    4    0    0 -0.19712518161E+02  0.44544783173E+01 -0.53671192985E+02  0.57350001794E+02  0.00000000000E+00 0.  1.
</event>
<event>
12    1  0.8053217E-002  0.1984683E+03  0.7818608E-02  0.1152442E+00
         21   -1    0    0  501  502  0.00000000000E+00  0.00000000000E+00  0.35705397152E+02  0.35705397152E+02  0.00000000000E+00 0.  1.
         21   -1    0    0  502  503 -0.00000000000E+00 -0.00000000000E+00 -0.10714631697E+04  0.10714631697E+04  0.00000000000E+00 0. -1.
         -6    2    1    2    0  503  0.83615399328E+02  0.19844742129E+02 -0.49270728784E+03  0.53117806037E+03  0.17889748890E+03 0.  0.
        -24    2    3    3    0    0  0.12007750612E+02 -0.38522783226E+02 -0.35091686617E+03  0.36188235148E+03  0.78663831905E+02 0.  0.
          6    2    1    2  501    0 -0.83615399328E+02 -0.19844742129E+02 -0.54305048470E+03  0.57599050648E+03  0.17168542693E+03 0.  0.
         24    2    5    5    0    0 -0.60801798671E+02 -0.35744718524E+02 -0.14949448018E+03  0.18142531754E+03  0.74779693875E+02 0.  0.
          5    1    5    5  501    0 -0.22813600657E+02  0.15899976395E+02 -0.39355600452E+03  0.39456518893E+03  0.47000000000E+01 0. -1.
        -11    1    6    6    0    0  0.77106556790E+01  0.14830803081E+02 -0.34461936630E+02  0.38301853837E+02  0.00000000000E+00 0.  1.
         12    1    6    6    0    0 -0.68512454350E+02 -0.50575521606E+02 -0.11503254355E+03  0.14312346371E+03  0.00000000000E+00 0. -1.
         -5    1    3    3    0  503  0.71607648717E+02  0.58367525355E+02 -0.14179042168E+03  0.16929570889E+03  0.47000000000E+01 0.  1.
         11    1    4    4    0    0 -0.25770454445E+02  0.46885288587E+01 -0.61777481801E+02  0.67101087047E+02  0.00000000000E+00 0. -1.
        -12    1    4    4    0    0  0.37778205057E+02 -0.43211312084E+02 -0.28913938437E+03  0.29478126443E+03  0.00000000000E+00 0.  1.
</event>
<event>
12    1  0.8053217E-002  0.2958841E+03  0.7818608E-02  0.1087323E+00
         21   -1    0    0  503  502  0.00000000000E+00  0.00000000000E+00  0.37287192064E+03  0.37287192064E+03  0.00000000000E+00 0.  1.
         21   -1    0    0  501  503 -0.00000000000E+00 -0.00000000000E+00 -0.28848880952E+03  0.28848880952E+03  0.00000000000E+00 0. -1.
          6    2    1    2  501    0  0.20661680429E+03  0.12388408996E+03  0.18491117346E+03  0.34891192283E+03  0.17178363212E+03 0.  0.
         24    2    3    3    0    0  0.22787882215E+03  0.99066886887E+02  0.14265432214E+03  0.29528638362E+03  0.71419794615E+02 0.  0.
         -6    2    1    2    0  502 -0.20661680429E+03 -0.12388408996E+03 -0.10052806234E+03  0.31244880733E+03  0.17169913896E+03 0.  0.
        -24    2    5    5    0    0 -0.21515078700E+03 -0.95107073638E+02 -0.12085533571E+03  0.27589427858E+03  0.78590229545E+02 0.  0.
          5    1    3    3  501    0 -0.21262017865E+02  0.24817203076E+02  0.42256851322E+02  0.53625539213E+02  0.47000000000E+01 0. -1.
        -11    1    4    4    0    0  0.74639791555E+02 -0.62372018788E+00  0.29327879813E+02  0.80197331904E+02  0.00000000000E+00 0.  1.
         12    1    4    4    0    0  0.15323903060E+03  0.99690607075E+02  0.11332644232E+03  0.21508905172E+03  0.00000000000E+00 0. -1.
         -5    1    5    5    0  502  0.85339827120E+01 -0.28777016325E+02  0.20327273366E+02  0.36554528748E+02  0.47000000000E+01 0.  1.
         11    1    6    6    0    0 -0.12831137164E+03 -0.13937497359E+02 -0.66441769361E+02  0.14516394401E+03  0.00000000000E+00 0. -1.
        -12    1    6    6    0    0 -0.86839415360E+02 -0.81169576279E+02 -0.54413566346E+02  0.13073033457E+03  0.00000000000E+00 0.  1.
</event>
<event>
12    1  0.8053217E-002  0.2012854E+03  0.7818608E-02  0.1148777E+00
         21   -1    0    0  503  502  0.00000000000E+00  0.00000000000E+00  0.81273806295E+02  0.81273806295E+02  0.00000000000E+00 0.  1.
         21   -1    0    0  501  503 -0.00000000000E+00 -0.00000000000E+00 -0.11463801108E+04  0.11463801108E+04  0.00000000000E+00 0. -1.
          6    2    1    2  501    0  0.31519274328E+01 -0.10168163314E+03 -0.99482604686E+03  0.10149850558E+04  0.17368566677E+03 0.  0.
         24    2    3    3    0    0 -0.29985265229E+02 -0.63470095307E+02 -0.31463114702E+03  0.33289606827E+03  0.83063015004E+02 0.  0.
         -6    2    1    2    0  502 -0.31519274328E+01  0.10168163314E+03 -0.70280257638E+02  0.21266886128E+03  0.17303075097E+03 0.  0.
        -24    2    5    5    0    0  0.10469256659E+02  0.13871234424E+03 -0.49193201731E+02  0.16768481803E+03  0.79671245260E+02 0.  0.
          5    1    3    3  501    0  0.33137192662E+02 -0.38211537828E+02 -0.68019489984E+03  0.68208898754E+03  0.47000000000E+01 0. -1.
        -13    1    4    4    0    0  0.23719944325E+02 -0.45301293930E+02 -0.12774905509E+03  0.13760328509E+03  0.00000000000E+00 0.  1.
         14    1    4    4    0    0 -0.53705209554E+02 -0.18168801377E+02 -0.18688209194E+03  0.19529278318E+03  0.00000000000E+00 0. -1.
         -5    1    5    5    0  502 -0.13621184091E+02 -0.37030711101E+02 -0.21087055907E+02  0.44984043254E+02  0.47000000000E+01 0.  1.
         11    1    6    6    0    0 -0.15377628839E+02  0.69148362223E+02 -0.59820592874E+02  0.92717154824E+02  0.00000000000E+00 0. -1.
        -12    1    6    6    0    0  0.25846885498E+02  0.69563982013E+02  0.10627391143E+02  0.74967663202E+02  0.00000000000E+00 0.  1.
</event>
<event>
12    1  0.8053217E-002  0.2278634E+03  0.7818608E-02  0.1128454E+00
         21   -1    0    0  501  502  0.00000000000E+00  0.00000000000E+00  0.50124525390E+03  0.50124525390E+03  0.00000000000E+00 0. -1.
         21   -1    0    0  502  503 -0.00000000000E+00 -0.00000000000E+00 -0.10820122096E+03  0.10820122096E+03  0.00000000000E+00 0.  1.
         -6    2    1    2    0  503  0.14574803964E+03  0.33591329609E+02  0.12788203251E+03  0.25982864635E+03  0.16966508993E+03 0.  0.
        -24    2    3    3    0    0  0.55913019208E+02 -0.51454214042E+02  0.70842427197E+02  0.12352500750E+03  0.66827959167E+02 0.  0.
          6    2    1    2  501    0 -0.14574803964E+03 -0.33591329609E+02  0.26516200044E+03  0.34961782850E+03  0.17190366794E+03 0.  0.
         24    2    5    5    0    0 -0.44192823058E+01 -0.69386704462E+01  0.12948020781E+03  0.15184062876E+03  0.78884581025E+02 0.  0.
          5    1    5    5  501    0 -0.14132875733E+03 -0.26652659163E+02  0.13568179263E+03  0.19777719975E+03  0.47000000000E+01 0. -1.
        -13    1    6    6    0    0  0.15026960595E+02 -0.38748388016E+02  0.76445711614E+02  0.87012607953E+02  0.00000000000E+00 0.  1.
         14    1    6    6    0    0 -0.19446242901E+02  0.31809717570E+02  0.53034496193E+02  0.64828020803E+02  0.00000000000E+00 0. -1.
         -5    1    3    3    0  503  0.89835020430E+02  0.85045543651E+02  0.57039605312E+02  0.13630363885E+03  0.47000000000E+01 0.  1.
         13    1    4    4    0    0 -0.93309063460E+01  0.73849039390E+00  0.28216200050E+02  0.29728187408E+02  0.00000000000E+00 0. -1.
        -14    1    4    4    0    0  0.65243925554E+02 -0.52192704436E+02  0.42626227146E+02  0.93796820089E+02  0.00000000000E+00 0.  1.
</event>
<event>
12    1  0.8053217E-002  0.1890531E+03  0.7818608E-02  0.1159423E+00
         21   -1    0    0  503  502  0.00000000000E+00  0.00000000000E+00  0.62419964201E+03  0.62419964201E+03  0.00000000000E+00 0.  1.
         21   -1    0    0  501  503 -0.00000000000E+00 -0.00000000000E+00 -0.64218304373E+02  0.64218304373E+02  0.00000000000E+00 0. -1.
          6    2    1    2  501    0 -0.22009302056E+02  0.71005231568E+02  0.39412562041E+03  0.43692402622E+03  0.17332468878E+03 0.  0.
         24    2    3    3    0    0 -0.61255275394E+02  0.85979552040E+01  0.30546259854E+03  0.32151979748E+03  0.79002831994E+02 0.  0.
         -6    2    1    2    0  502  0.22009302056E+02 -0.71005231568E+02  0.16585571723E+03  0.25149392016E+03  0.17382439602E+03 0.  0.
        -24    2    5    5    0    0 -0.44068785295E+02 -0.15816958293E+02  0.12512009057E+03  0.15613386346E+03  0.80811584857E+02 0.  0.
          5    1    3    3  501    0  0.39245973338E+02  0.62407276364E+02  0.88663021863E+02  0.11540422875E+03  0.47000000000E+01 0. -1.
        -11    1    4    4    0    0  0.16672898363E+02  0.44210791870E+01  0.24795693448E+02  0.30205262696E+02  0.00000000000E+00 0.  1.
         12    1    4    4    0    0 -0.77928173757E+02  0.41768760170E+01  0.28066690510E+03  0.29131453478E+03  0.00000000000E+00 0. -1.
         -5    1    5    5    0  502  0.66078087351E+02 -0.55188273276E+02  0.40735626661E+02  0.95360056704E+02  0.47000000000E+01 0.  1.
         11    1    6    6    0    0 -0.30649182143E+01 -0.40329651451E+02  0.32372225075E+02  0.51805747424E+02  0.00000000000E+00 0. -1.
        -12    1    6    6    0    0 -0.41003867081E+02  0.24512693158E+02  0.92747865495E+02  0.10432811603E+03  0.00000000000E+00 0.  1.
</event>
<event>
12    1  0.8053217E-002  0.2661832E+03  0.7818608E-02  0.1103722E+00
         21   -1    0    0  501  502  0.00000000000E+00  0.00000000000E+00  0.19484918648E+03  0.19484918648E+03  0.00000000000E+00 0. -1.
         21   -1    0    0  502  503 -0.00000000000E+00 -0.00000000000E+00 -0.36147958776E+03  0.36147958776E+03  0.00000000000E+00 0. -1.
         -6    2    1    2    0  503 -0.91293310131E+02 -0.17887981177E+03 -0.86788400797E+02  0.27842909817E+03  0.17221521612E+03 0.  0.
        -24    2    3    3    0    0 -0.22977179973E+02 -0.17049772179E+03 -0.89906683589E+02  0.20936994411E+03  0.78454686340E+02 0.  0.
          6    2    1    2  501    0  0.91293310131E+02  0.17887981177E+03 -0.79842000477E+02  0.27789967607E+03  0.17470268855E+03 0.  0.
         24    2    5    5    0    0  0.30803153704E+02  0.83246809405E+02 -0.10857961478E+03  0.16105503288E+03  0.79185385755E+02 0.  0.
          5    1    5    5  501    0  0.60490156426E+02  0.95633002364E+02  0.28737614302E+02  0.11684464319E+03  0.47000000000E+01 0. -1.
        -13    1    6    6    0    0 -0.25501920294E+02  0.20884716205E+02 -0.18195783854E+02  0.37651107018E+02  0.00000000000E+00 0.  1.
         14    1    6    6    0    0  0.56305073998E+02  0.62362093200E+02 -0.90383830925E+02  0.12340392586E+03  0.00000000000E+00 0. -1.
         -5    1    3    3    0  503 -0.68316130157E+02 -0.83820899803E+01  0.31182827914E+01  0.69059154061E+02  0.47000000000E+01 0.  1.
         11    1    4    4    0    0 -0.44340849095E+02 -0.58072538142E+02 -0.22016968535E+02  0.76310402228E+02  0.00000000000E+00 0. -1.
        -12    1    4    4    0    0  0.21363669121E+02 -0.11242518365E+03 -0.67889715053E+02  0.13305954188E+03  0.00000000000E+00 0.  1.
</event>
<event>
12    1  0.8053217E-002  0.1805710E+03  0.7818608E-02  0.1167511E+00
         21   -1    0    0  503  502  0.00000000000E+00  0.00000000000E+00  0.39643461849E+03  0.39643461849E+03  0.00000000000E+00 0.  1.
         21   -1    0    0  501  503 -0.00000000000E+00 -0.00000000000E+00 -0.13140419036E+03  0.13140419036E+03  0.00000000000E+00 0.  1.
          6    2    1    2  501    0  0.47706198910E+02  0.21707875704E+02 -0.29947647431E+02  0.18198054923E+03  0.17167686340E+03 0.  0.
         24    2    3    3    0    0  0.67885019202E+02 -0.50679866428E+02 -0.23795304981E+02  0.10643512371E+03  0.59878162348E+02 0.  0.
         -6    2    1    2    0  502 -0.47706198910E+02 -0.21707875704E+02  0.29497807555E+03  0.34585825962E+03  0.17279686747E+03 0.  0.
        -24    2    5    5    0    0 -0.44402364887E+02  0.48967606107E+02  0.20548750351E+03  0.23168036538E+03  0.84150348475E+02 0.  0.
          5    1    3    3  501    0 -0.20178820292E+02  0.72387742132E+02 -0.61523424494E+01  0.75545425520E+02  0.47000000000E+01 0. -1.
        -11    1    4    4    0    0  0.23805954920E+02 -0.47096032513E+02  0.59987830786E+01  0.53110687875E+02  0.00000000000E+00 0.  1.
         12    1    4    4    0    0  0.44079064281E+02 -0.35838339151E+01 -0.29794088060E+02  0.53324435832E+02  0.00000000000E+00 0. -1.
         -5    1    5    5    0  502 -0.33038340233E+01 -0.70675481811E+02  0.89490572040E+02  0.11417789424E+03  0.47000000000E+01 0.  1.
         13    1    6    6    0    0 -0.95904634170E+01 -0.24166249796E+02  0.48477532980E+02  0.55009597541E+02  0.00000000000E+00 0. -1.
        -14    1    6    6    0    0 -0.34811901470E+02  0.73133855903E+02  0.15700997053E+03  0.17667076784E+03  0.00000000000E+00 0.  1.
</event>
<event>
12    1  0.8053217E-002  0.1726450E+03  0.7818608E-02  0.1176161E+00
         21   -1    0    0  501  502  0.00000000000E+00  0.00000000000E+00  0.67729825264E+02  0.67729825264E+02  0.00000000000E+00 0. -1.
         21   -1    0    0  502  503 -0.00000000000E+00 -0.00000000000E+00 -0.10385931771E+04  0.10385931771E+04  0.00000000000E+00 0. -1.
         -6    2    1    2    0  503  0.11052855064E+02 -0.11780712962E+02 -0.90653568907E+03  0.92208309956E+03  0.16783723111E+03 0.  0.
        -24    2    3    3    0    0 -0.21091302595E+02  0.42500959248E+02 -0.67887757298E+03  0.68579925621E+03  0.84821495750E+02 0.  0.
          6    2    1    2  501    0 -0.11052855064E+02  0.11780712962E+02 -0.64327662815E+02  0.18423990285E+03  0.17188758767E+03 0.  0.
         24    2    5    5    0    0 -0.14404484732E+02 -0.35410773242E+02 -0.92855353386E+02  0.12879453405E+03  0.80650500969E+02 0.  0.
          5    1    5    5  501    0  0.33516296687E+01  0.47191486204E+02  0.28527690572E+02  0.55445368796E+02  0.47000000000E+01 0. -1.
        -11    1    6    6    0    0  0.77586191772E+01 -0.31046107943E+02  0.12408786910E+01  0.32024939811E+02  0.00000000000E+00 0.  1.
         12    1    6    6    0    0 -0.22163103910E+02 -0.43646652988E+01 -0.94096232077E+02  0.96769594239E+02  0.00000000000E+00 0. -1.
         -5    1    3    3    0  503  0.32144157659E+02 -0.54281672210E+02 -0.22765811609E+03  0.23628384335E+03  0.47000000000E+01 0.  1.
         13    1    4    4    0    0  0.27601284382E+02 -0.14702162398E+01 -0.30119001781E+03  0.30245564842E+03  0.00000000000E+00 0. -1.
        -14    1    4    4    0    0 -0.48692586976E+02  0.43971175488E+02 -0.37768755517E+03  0.38334360779E+03  0.00000000000E+00 0.  1.
</event>
<event>
12    1  0.8053217E-002  0.2560697E+03  0.7818608E-02  0.1109933E+00
         21   -1    0    0  503  502  0.00000000000E+00  0.00000000000E+00  0.58695191539E+03  0.58695191539E+03  0.00000000000E+00 0. -1.
         21   -1    0    0  501  503 -0.00000000000E+00 -0.00000000000E+00 -0.11062779070E+03  0.11062779070E+03  0.00000000000E+00 0. -1.
          6    2    1    2  501    0 -0.18571758981E+03  0.41934939603E+02  0.23144181189E+03  0.34516229150E+03  0.17123706625E+03 0.  0.
         24    2    3    3    0    0 -0.86533293960E+02 -0.99158093547E-01  0.35723394940E+02  0.12170719837E+03  0.77771848330E+02 0.  0.
         -6    2    1    2    0  502  0.18571758981E+03 -0.41934939603E+02  0.24488231280E+03  0.35241741460E+03  0.16727559495E+03 0.  0.
        -24    2    5    5    0    0  0.47850089649E+02 -0.62595556319E+02  0.87979592369E+02  0.14247727465E+03  0.79696489057E+02 0.  0.
          5    1    3    3  501    0 -0.99184295848E+02  0.42034097697E+02  0.19571841695E+03  0.22345509313E+03  0.47000000000E+01 0. -1.
        -11    1    4    4    0    0 -0.20502542419E+02 -0.23029344374E+02  0.41352178509E+02  0.51582047414E+02  0.00000000000E+00 0.  1.
         12    1    4    4    0    0 -0.66030751541E+02  0.22930186280E+02 -0.56287835691E+01  0.70125150954E+02  0.00000000000E+00 0. -1.
         -5    1    5    5    0  502  0.13786750016E+03  0.20660616716E+02  0.15690272043E+03  0.20994013995E+03  0.47000000000E+01 0.  1.
         13    1    6    6    0    0  0.68322243576E+02 -0.48413588465E+02  0.51495864774E+02  0.98303756816E+02  0.00000000000E+00 0. -1.
        -14    1    6    6    0    0 -0.20472153927E+02 -0.14181967854E+02  0.36483727595E+02  0.44173517834E+02  0.00000000000E+00 0.  1.
</event>
<event>
12    1  0.8053217E-002  0.2552324E+03  0.7818608E-02  0.1110115E+00
         21   -1    0    0  503  502  0.00000000000E+00  0.00000000000E+00  0.37773615504E+03  0.37773615504E+03  0.00000000000E+00 0.  1.
         21   -1    0    0  501  503 -0.00000000000E+00 -0.00000000000E+00 -0.41567859895E+03  0.41567859895E+03  0.00000000000E+00 0. -1.
          6    2    1    2  501    0 -0.18891790321E+02  0.18764640616E+03 -0.32261764434E+03  0.41107520723E+03  0.17126765039E+03 0.  0.
         24    2    3    3    0    0  0.49765096037E+02  0.65843516360E+02 -0.14090052920E+03  0.18174376162E+03  0.79786604947E+02 0.  0.
         -6    2    1    2    0  502  0.18891790321E+02 -0.18764640616E+03  0.28467520043E+03  0.38233954677E+03  0.17197524763E+03 0.  0.
        -24    2    5    5    0    0  0.69628896576E+02 -0.43070489449E+02  0.13517831415E+03  0.16821841598E+03  0.57628192390E+02 0.  0.
          5    1    3    3  501    0 -0.68656886358E+02  0.12180288980E+03 -0.18171711514E+03  0.22933144560E+03  0.47000000000E+01 0. -1.
        -13    1    4    4    0    0  0.68872546243E+01  0.60409388033E+02 -0.42245639089E+02  0.74036629183E+02  0.00000000000E+00 0.  1.
         14    1    4    4    0    0  0.42877841413E+02  0.54341283268E+01 -0.98654890115E+02  0.10770713244E+03  0.00000000000E+00 0. -1.
         -5    1    5    5    0  502 -0.50737106255E+02 -0.14457591671E+03  0.14949688628E+03  0.21412113079E+03  0.47000000000E+01 0.  1.
         13    1    6    6    0    0  0.41750286997E+02  0.64697397987E+01  0.69722385349E+02  0.81523953634E+02  0.00000000000E+00 0. -1.
        -14    1    6    6    0    0  0.27878609579E+02 -0.49540229248E+02  0.65455928802E+02  0.86694462345E+02  0.00000000000E+00 0.  1.
</event>
<event>
12    1  0.8053217E-002  0.2141158E+03  0.7818608E-02  0.1138502E+00
         21   -1    0    0  501  502  0.00000000000E+00  0.00000000000E+00  0.68335604045E+03  0.68335604045E+03  0.00000000000E+00 0. -1.
         21   -1    0    0  502  503 -0.00000000000E+00 -0.00000000000E+00 -0.92329721772E+02  0.92329721772E+02  0.00000000000E+00 0. -1.
         -6    2    1    2    0  503 -0.63663227885E+01 -0.12674441268E+03  0.92127287349E+02  0.23309438701E+03  0.17245544344E+03 0.  0.
        -24    2    3    3    0    0 -0.26652302946E+02 -0.14047023470E+03  0.38418909320E+02  0.17387784328E+03  0.91188045836E+02 0.  0.
          6    2    1    2  501    0  0.63663227885E+01  0.12674441268E+03  0.49889903133E+03  0.54259137521E+03  0.17146568396E+03 0.  0.
         24    2    5    5    0    0 -0.15386669324E+02  0.14496922772E+03  0.30778500244E+03  0.34932472369E+03  0.77738846640E+02 0.  0.
          5    1    5    5  501    0  0.21752992113E+02 -0.18224815041E+02  0.19111402889E+03  0.19326665152E+03  0.47000000000E+01 0. -1.
        -13    1    6    6    0    0 -0.52086815489E-01 -0.81564998239E+01  0.36781174531E+02  0.37674739578E+02  0.00000000000E+00 0.  1.
         14    1    6    6    0    0 -0.15334582509E+02  0.15312572755E+03  0.27100382791E+03  0.31164998412E+03  0.00000000000E+00 0. -1.
         -5    1    3    3    0  503  0.20285980157E+02  0.13725822013E+02  0.53708378029E+02  0.59216543731E+02  0.47000000000E+01 0.  1.
         11    1    4    4    0    0  0.70124509779E+01 -0.12208856846E+03  0.52412927428E+02  0.13304851739E+03  0.00000000000E+00 0. -1.
        -12    1    4    4    0    0 -0.33664753924E+02 -0.18381666238E+02 -0.13994018108E+02  0.40829325897E+02  0.00000000000E+00 0.  1.
</event>
<event>
12    1  0.8053217E-002  0.2303511E+03  0.7818608E-02  0.1126762E+00
         21   -1    0    0  503  502  0.00000000000E+00  0.00000000000E+00  0.63460134178E+03  0.63460134178E+03  0.00000000000E+00 0.  1.
         21   -1    0    0  501  503 -0.00000000000E+00 -0.00000000000E+00 -0.38103675821E+03  0.38103675821E+03  0.00000000000E+00 0.  1.
          6    2    1    2  501    0 -0.22851322573E+02 -0.14943683592E+03 -0.32256792740E+03  0.39516221839E+03  0.17102502796E+03 0.  0.
         24    2    3    3    0    0 -0.47629203983E+02 -0.10661765478E+03 -0.11715591023E+03  0.18382454433E+03  0.80187844552E+02 0.  0.
         -6    2    1    2    0  502  0.22851322573E+02  0.14943683592E+03  0.57613251097E+03  0.62047588159E+03  0.17380477143E+03 0.  0.
        -24    2    5    5    0    0  0.73014692450E+02  0.63520457426E+02  0.26668940312E+03  0.29539879110E+03  0.82287387976E+02 0.  0.
          5    1    3    3  501    0  0.24777881410E+02 -0.42819181137E+02 -0.20541201717E+03  0.21133767406E+03  0.47000000000E+01 0. -1.
        -13    1    4    4    0    0 -0.20525077294E+02 -0.68569537371E+02 -0.11694370331E+03  0.13710904419E+03  0.00000000000E+00 0.  1.
         14    1    4    4    0    0 -0.27104126689E+02 -0.38048117409E+02 -0.21220691560E+00  0.46715500144E+02  0.00000000000E+00 0. -1.
         -5    1    5    5    0  502 -0.50163369878E+02  0.85916378492E+02  0.30944310785E+03  0.32507709049E+03  0.47000000000E+01 0.  1.
         13    1    6    6    0    0  0.17904546974E+02  0.33178531714E+02  0.20076273186E+03  0.20427203008E+03  0.00000000000E+00 0. -1.
        -14    1    6    6    0    0  0.55110145476E+02  0.30341925712E+02  0.65926671267E+02  0.91126761023E+02  0.00000000000E+00 0.  1.
</event>
<event>
12    1  0.8053217E-002  0.2669757E+03  0.7818608E-02  0.1103116E+00
         21   -1    0    0  501  502  0.00000000000E+00  0.00000000000E+00  0.27036026504E+03  0.27036026504E+03  0.00000000000E+00 0. -1.
         21   -1    0    0  502  503 -0.00000000000E+00 -0.00000000000E+00 -0.58891281530E+03  0.58891281530E+03  0.00000000000E+00 0.  1.
         -6    2    1    2    0  503 -0.10088000734E+02  0.20265935583E+03 -0.47880368605E+03  0.54789474422E+03  0.17251985017E+03 0.  0.
        -24    2    3    3    0    0  0.16361499089E+02  0.11084890834E+03 -0.14275946853E+03  0.19850021014E+03  0.80416966124E+02 0.  0.
          6    2    1    2  501    0  0.10088000734E+02 -0.20265935583E+03  0.16025113580E+03  0.31137833612E+03  0.17350348532E+03 0.  0.
         24    2    5    5    0    0 -0.41889117428E+02 -0.59700773402E+02  0.10184420728E+03  0.14836840881E+03  0.79511393361E+02 0.  0.
          5    1    5    5  501    0  0.51977118162E+02 -0.14295858242E+03  0.58406928518E+02  0.16300992731E+03  0.47000000000E+01 0. -1.
        -13    1    6    6    0    0 -0.22814144851E+01  0.12510534825E+02 -0.48268611067E+01  0.13602092553E+02  0.00000000000E+00 0.  1.
         14    1    6    6    0    0 -0.39607702943E+02 -0.72211308227E+02  0.10667106838E+03  0.13476631626E+03  0.00000000000E+00 0. -1.
         -5    1    3    3    0  503 -0.26449499822E+02  0.91810447487E+02 -0.33604421752E+03  0.34939453407E+03  0.47000000000E+01 0.  1.
         13    1    4    4    0    0  0.45395886023E+02  0.93868886295E+02 -0.10922370544E+03  0.15100321888E+03  0.00000000000E+00 0. -1.
        -14    1    4    4    0    0 -0.29034386935E+02  0.16980022045E+02 -0.33535763088E+02  0.47496991265E+02  0.00000000000E+00 0.  1.
</event>
<event>
12    1  0.8053217E-002  0.1910768E+03  0.7818608E-02  0.1158627E+00
         21   -1    0    0  503  502  0.00000000000E+00  0.00000000000E+00  0.31053119749E+02  0.31053119749E+02  0.00000000000E+00 0.  1.
         21   -1    0    0  501  503 -0.00000000000E+00 -0.00000000000E+00 -0.12346978923E+04  0.12346978923E+04  0.00000000000E+00 0.  1.
          6    2    1    2  501    0  0.84607909795E+02 -0.21369869072E+01 -0.77956386312E+03  0.80263950578E+03  0.17131052053E+03 0.  0.
         24    2    3    3    0    0 -0.15503761207E+02  0.24068295295E+02 -0.43583909730E+03  0.44364386775E+03  0.77746467493E+02 0.  0.
         -6    2    1    2    0  502 -0.84607909795E+02  0.21369869072E+01 -0.42408090946E+03  0.46311150630E+03  0.16572442302E+03 0.  0.
        -24    2    5    5    0    0 -0.23262311598E+02 -0.55638937310E+02 -0.20755689177E+03  0.23071942366E+03  0.80714079601E+02 0.  0.
          5    1    3    3  501    0  0.10011167100E+03 -0.26205282202E+02 -0.34372476581E+03  0.35899563802E+03  0.47000000000E+01 0. -1.
        -13    1    4    4    0    0  0.21735530224E+02 -0.48011381085E+01 -0.27882384604E+03  0.27971096031E+03  0.00000000000E+00 0.  1.
         14    1    4    4    0    0 -0.37239291431E+02  0.28869433404E+02 -0.15701525127E+03  0.16393290744E+03  0.00000000000E+00 0. -1.
         -5    1    5    5    0  502 -0.61345598197E+02  0.57775924217E+02 -0.21652401769E+03  0.23239208264E+03  0.47000000000E+01 0.  1.
         13    1    6    6    0    0 -0.23830294411E+02 -0.52910947070E+02 -0.61207114017E+02  0.84343120987E+02  0.00000000000E+00 0. -1.
        -14    1    6    6    0    0  0.56798281241E+00 -0.27279902402E+01 -0.14634977775E+03  0.14637630267E+03  0.00000000000E+00 0.  1.
</event>
<event>
12    1  0.8053217E-002  0.2689694E+03  0.7818608E-02  0.1101899E+00
         21   -1    0    0  503  502  0.00000000000E+00  0.00000000000E+00  0.57877523965E+03  0.57877523965E+03  0.00000000000E+00 0.  1.
         21   -1    0    0  501  503 -0.00000000000E+00 -0.00000000000E+00 -0.23886911471E+03  0.23886911471E+03  0.00000000000E+00 0. -1.
          6    2    1    2  501    0  0.16806947464E+03 -0.11995797311E+03 -0.11239857909E+03  0.29150981734E+03  0.17235796879E+03 0.  0.
         24    2    3    3    0    0  0.13885879124E+03 -0.14840062981E+03 -0.63027296385E+02  0.22730808605E+03  0.79950078559E+02 0.  0.
         -6    2    1    2    0  502 -0.16806947464E+03  0.11995797311E+03  0.45230470402E+03  0.52613453702E+03  0.17204866213E+03 0.  0.
        -24    2    5    5    0    0 -0.15514580986E+03  0.15128064127E+03  0.42035439418E+03  0.47932595926E+03  0.78099319947E+02 0.  0.
          5    1    3    3  501    0  0.29210683398E+02  0.28442656702E+02 -0.49371282701E+02  0.64201731288E+02  0.47000000000E+01 0. -1.
        -13    1    4    4    0    0  0.14294326594E+02 -0.28597751403E+02  0.17714673686E+02  0.36550907265E+02  0.00000000000E+00 0.  1.
         14    1    4    4    0    0  0.12456446464E+03 -0.11980287841E+03 -0.80741970072E+02  0.19075717878E+03  0.00000000000E+00 0. -1.
         -5    1    5    5    0  502 -0.12923664780E+02 -0.31322668164E+02  0.31950309844E+02  0.46808577754E+02  0.47000000000E+01 0.  1.
         11    1    6    6    0    0 -0.13868629359E+03  0.15739644520E+03  0.36204956053E+03  0.41843447907E+03  0.00000000000E+00 0. -1.
        -12    1    6    6    0    0 -0.16459516268E+02 -0.61158039295E+01  0.58304833649E+02  0.60891480194E+02  0.00000000000E+00 0.  1.
</event>
<event>
12    1  0.8053217E-002  0.1881513E+03  0.7818608E-02  0.1160250E+00
         21   -1    0    0  501  502  0.00000000000E+00  0.00000000000E+00  0.19913989091E+03  0.19913989091E+03  0.00000000000E+00 0.  1.
         21   -1    0    0  502  503 -0.00000000000E+00 -0.00000000000E+00 -0.32666108167E+03  0.32666108167E+03  0.00000000000E+00 0.  1.
         -6    2    1    2    0  503  0.50632673550E+02  0.57064558012E+02 -0.24156841377E+03  0.30619638408E+03  0.17199097557E+03 0.  0.
        -24    2    3    3    0    0  0.55736529429E+02  0.27478036468E+02 -0.50548382693E+02  0.11277416747E+03  0.79380543304E+02 0.  0.
          6    2    1    2  501    0 -0.50632673550E+02 -0.57064558012E+02  0.11404722302E+03  0.21960458851E+03  0.17146245887E+03 0.  0.
         24    2    5    5    0    0 -0.39182342202E+01 -0.93178382195E+02  0.99960706949E+02  0.15871972114E+03  0.80636489741E+02 0.  0.
          5    1    5    5  501    0 -0.46714439330E+02  0.36113824183E+02  0.14086516068E+02  0.60884867365E+02  0.47000000000E+01 0. -1.
        -11    1    6    6    0    0  0.64570553460E+01 -0.33152225917E+01  0.58953937641E+02  0.59399082720E+02  0.00000000000E+00 0.  1.
         12    1    6    6    0    0 -0.10375289566E+02 -0.89863159603E+02  0.41006769308E+02  0.99320638422E+02  0.00000000000E+00 0. -1.
         -5    1    3    3    0  503 -0.51038558791E+01  0.29586521544E+02 -0.19102003108E+03  0.19342221660E+03  0.47000000000E+01 0.  1.
         11    1    4    4    0    0  0.48397856966E+02  0.46639479538E+02 -0.60078774068E+02  0.90150167521E+02  0.00000000000E+00 0. -1.
        -12    1    4    4    0    0  0.73386724632E+01 -0.19161443070E+02  0.95303913744E+01  0.22623999952E+02  0.00000000000E+00 0.  1.
</event>
<event>
12    1  0.8053217E-002  0.2800712E+03  0.7818608E-02  0.1095937E+00
         21   -1    0    0  501  502  0.00000000000E+00  0.00000000000E+00  0.20059242266E+03  0.20059242266E+03  0.00000000000E+00 0.  1.
         21   -1    0    0  502  503 -0.00000000000E+00 -0.00000000000E+00 -0.61176569220E+03  0.61176569220E+03  0.00000000000E+00 0. -1.
         -6    2    1    2    0  503 -0.11242518171E+03 -0.18978173917E+03 -0.45067947404E+03  0.52951435220E+03  0.16916539499E+03 0.  0.
        -24    2    3    3    0    0 -0.47797516424E+02 -0.54449695746E+02 -0.28873825671E+03  0.30874627261E+03  0.81884723964E+02 0.  0.
          6    2    1    2  501    0  0.11242518171E+03  0.18978173917E+03  0.39506204496E+02  0.28284376266E+03  0.17257845716E+03 0.  0.
         24    2    5    5    0    0  0.37521558904E+02  0.77411832887E+02  0.80081983039E+02  0.14175502338E+03  0.79252150712E+02 0.  0.
          5    1    5    5  501    0  0.74903622806E+02  0.11236990628E+03 -0.40575778543E+02  0.14108873928E+03  0.47000000000E+01 0. -1.
        -13    1    6    6    0    0  0.27514620745E+01 -0.15235765427E+02  0.18165828612E+01  0.15588427278E+02  0.00000000000E+00 0.  1.
         14    1    6    6    0    0  0.34770096829E+02  0.92647598314E+02  0.78265400178E+02  0.12616659610E+03  0.00000000000E+00 0. -1.
         -5    1    3    3    0  503 -0.64627665286E+02 -0.13533204342E+03 -0.16194121733E+03  0.22076807959E+03  0.47000000000E+01 0.  1.
         11    1    4    4    0    0  0.41058447241E+01 -0.48387957764E+02 -0.80166150736E+02  0.93727606078E+02  0.00000000000E+00 0. -1.
        -12    1    4    4    0    0 -0.51903361148E+02 -0.60617379822E+01 -0.20857210597E+03  0.21501866653E+03  0.00000000000E+00 0.  1.
</event>
<event>
12    1  0.8053217E-002  0.3023770E+03  0.7818608E-02  0.1084061E+00
         21   -1    0    0  503  502  0.00000000000E+00  0.00000000000E+00  0.50931215507E+02  0.50931215507E+02  0.00000000000E+00 0. -1.
         21   -1    0    0  501  503 -0.00000000000E+00 -0.00000000000E+00 -0.18102976023E+04  0.18102976023E+04  0.00000000000E+00 0.  1.
          6    2    1    2  501    0  0.17983274285E+03 -0.17166124571E+03 -0.79433446827E+03  0.84994064954E+03  0.17211758067E+03 0.  0.
         24    2    3    3    0    0  0.45703644916E+02 -0.74667953772E+02 -0.18188268499E+03  0.21549790946E+03  0.75458010868E+02 0.  0.
         -6    2    1    2    0  502 -0.17983274285E+03  0.17166124571E+03 -0.96503191850E+03  0.10112881682E+04  0.17207485822E+03 0.  0.
        -24    2    5    5    0    0 -0.72492023527E+02  0.57864887343E+02 -0.23651512304E+03  0.26615029344E+03  0.79329292252E+02 0.  0.
          5    1    3    3  501    0  0.13412909794E+03 -0.96993291934E+02 -0.61245178328E+03  0.63444274008E+03  0.47000000000E+01 0. -1.
        -11    1    4    4    0    0 -0.66236800153E+01 -0.20020957725E+02 -0.10695823080E+03  0.10901731523E+03  0.00000000000E+00 0.  1.
         12    1    4    4    0    0  0.52327324931E+02 -0.54646996047E+02 -0.74924454194E+02  0.10648059423E+03  0.00000000000E+00 0. -1.
         -5    1    5    5    0  502 -0.10734071933E+03  0.11379635836E+03 -0.72851679546E+03  0.74513787481E+03  0.47000000000E+01 0.  1.
         11    1    6    6    0    0 -0.42329727009E+02  0.70330436346E+02 -0.12177003600E+03  0.14685406951E+03  0.00000000000E+00 0. -1.
        -12    1    6    6    0    0 -0.30162296518E+02 -0.12465549003E+02 -0.11474508704E+03  0.11929622393E+03  0.00000000000E+00 0.  1.
</event>
<event>
12    1  0.8053217E-002  0.1862252E+03  0.7818608E-02  0.1161932E+00
         21   -1    0    0  501  502  0.00000000000E+00  0.00000000000E+00  0.54925497583E+02  0.54925497583E+02  0.00000000000E+00 0. -1.
         21   -1    0    0  502  503 -0.00000000000E+00 -0.00000000000E+00 -0.17356533059E+04  0.17356533059E+04  0.00000000000E+00 0. -1.
         -6    2    1    2    0  503  0.44332418188E+02  0.56294086238E+02 -0.15545017606E+04  0.15656058461E+04  0.17178927311E+03 0.  0.
        -24    2    3    3    0    0  0.45595910873E+02  0.32123938669E+02 -0.43406355173E+03  0.44489640016E+03  0.80066880855E+02 0.  0.
          6    2    1    2  501    0 -0.44332418188E+02 -0.56294086238E+02 -0.12622604774E+03  0.22497295736E+03  0.17188783833E+03 0.  0.
         24    2    5    5    0    0 -0.91108540338E+02 -0.40822084571E+02 -0.11973034055E+03  0.17505630031E+03  0.79637586084E+02 0.  0.
          5    1    5    5  501    0  0.46776122151E+02 -0.15472001668E+02 -0.64957071936E+01  0.49916657049E+02  0.47000000000E+01 0. -1.
        -11    1    6    6    0    0 -0.43722827672E+02 -0.28016617770E+02 -0.73792809133E+01  0.52450646495E+02  0.00000000000E+00 0.  1.
         12    1    6    6    0    0 -0.47385712666E+02 -0.12805466800E+02 -0.11235105964E+03  0.12260565381E+03  0.00000000000E+00 0. -1.
         -5    1    3    3    0  503 -0.12634926849E+01  0.24170147569E+02 -0.11204382089E+04  0.11207094460E+04  0.47000000000E+01 0.  1.
         13    1    4    4    0    0  0.24313651345E+02  0.54487639926E+02 -0.35572563677E+03  0.36069486440E+03  0.00000000000E+00 0. -1.
        -14    1    4    4    0    0  0.21282259527E+02 -0.22363701257E+02 -0.78337914961E+02  0.84201535763E+02  0.00000000000E+00 0.  1.
</event>
<event>
12    1  0.8053217E-002  0.1831414E+03  0.7818608E-02  0.1164876E+00
         21   -1    0    0  501  502  0.00000000000E+00  0.00000000000E+00  0.65343163343E+02  0.65343163343E+02  0.00000000000E+00 0. -1.
         21   -1    0    0  502  503 -0.00000000000E+00 -0.00000000000E+00 -0.89656475707E+03  0.89656475707E+03  0.00000000000E+00 0. -1.
         -6    2    1    2    0  503  0.50035874120E+01 -0.57873061855E+02 -0.73067040775E+03  0.75327287021E+03  0.17368490163E+03 0.  0.
        -24    2    3    3    0    0 -0.29538100768E+01 -0.11925780471E+01 -0.18278449942E+03  0.20238535359E+03  0.86830356919E+02 0.  0.
          6    2    1    2  501    0 -0.50035874120E+01  0.57873061855E+02 -0.10055118597E+03  0.20863505020E+03  0.17333123203E+03 0.  0.
         24    2    5    5    0    0 -0.17685577741E+02 -0.13568639198E+02  0.16962854916E+01  0.83170374102E+02  0.80109588153E+02 0.  0.
          5    1    5    5  501    0  0.12681990329E+02  0.71441701054E+02 -0.10224747147E+03  0.12546467610E+03  0.47000000000E+01 0. -1.
        -13    1    6    6    0    0 -0.41312624563E+02  0.15627804022E+02 -0.67257306117E+01  0.44678816671E+02  0.00000000000E+00 0.  1.
         14    1    6    6    0    0  0.23627046822E+02 -0.29196443220E+02  0.84220161033E+01  0.38491557431E+02  0.00000000000E+00 0. -1.
         -5    1    3    3    0  503  0.79573974888E+01 -0.56680483808E+02 -0.54788590833E+03  0.55088751662E+03  0.47000000000E+01 0.  1.
         13    1    4    4    0    0  0.42969338862E+01  0.27065226164E+02 -0.16696502269E+03  0.16919902160E+03  0.00000000000E+00 0. -1.
        -14    1    4    4    0    0 -0.72507439629E+01 -0.28257804211E+02 -0.15819476728E+02  0.33186331988E+02  0.00000000000E+00 0.  1.
</event>
<event>
12    1  0.8053217E-002  0.1945740E+03  0.7818608E-02  0.1154747E+00
         21   -1    0    0  503  502  0.00000000000E+00  0.00000000000E+00  0.22256068722E+04  0.22256068722E+04  0.00000000000E+00 0.  1.
         21   -1    0    0  501  503 -0.00000000000E+00 -0.00000000000E+00 -0.42394094475E+02  0.42394094475E+02  0.00000000000E+00 0.  1.
          6    2    1    2  501    0 -0.74575407638E+02 -0.42003702472E+02  0.21352341504E+03  0.28887934774E+03  0.17473759280E+03 0.  0.
         24    2    3    3    0    0 -0.11720717341E+03 -0.45280779493E+02  0.14649212234E+03  0.20923331276E+03  0.80813159661E+02 0.  0.
         -6    2    1    2    0  502  0.74575407638E+02  0.42003702472E+02  0.19696893627E+04  0.19791216189E+04  0.17297512712E+03 0.  0.
        -24    2    5    5    0    0 -0.82826908975E+01 -0.25308165020E+02  0.98171400493E+03  0.98538435510E+03  0.80689736725E+02 0.  0.
          5    1    3    3  501    0  0.42631765768E+02  0.32770770203E+01  0.67031292703E+02  0.79646034978E+02  0.47000000000E+01 0. -1.
        -13    1    4    4    0    0 -0.47514401388E+01  0.13786559651E+02 -0.95791683983E+00  0.14613795369E+02  0.00000000000E+00 0.  1.
         14    1    4    4    0    0 -0.11245573327E+03 -0.59067339144E+02  0.14745003918E+03  0.19461951740E+03  0.00000000000E+00 0. -1.
         -5    1    5    5    0  502  0.82858098536E+02  0.67311867492E+02  0.98797535773E+03  0.99373726381E+03  0.47000000000E+01 0.  1.
         11    1    6    6    0    0  0.16669415157E+01  0.29308644772E+02  0.31734422886E+03  0.31869912918E+03  0.00000000000E+00 0. -1.
        -12    1    6    6    0    0 -0.99496324132E+01 -0.54616809791E+02  0.66436977607E+03  0.66668522592E+03  0.00000000000E+00 0.  1.
</event>
<event>
12    1  0.8053217E-002  0.1943067E+03  0.7818608E-02  0.1154757E+00
         21   -1    0    0  503  502  0.00000000000E+00  0.00000000000E+00  0.59803493344E+02  0.59803493344E+02  0.00000000000E+00 0.  1.
         21   -1    0    0  501  503 -0.00000000000E+00 -0.00000000000E+00 -0.65951953135E+03  0.65951953135E+03  0.00000000000E+00 0. -1.
          6    2    1    2  501    0 -0.92353492285E+02 -0.18995944343E+01 -0.37702281787E+03  0.42414772881E+03  0.17094535580E+03 0.  0.
         24    2    3    3    0    0 -0.10695295752E+03 -0.47043268506E+02 -0.23759136384E+03  0.27678994631E+03  0.80690854324E+02 0.  0.
         -6    2    1    2    0  502  0.92353492285E+02  0.18995944343E+01 -0.22269322014E+03  0.29517529588E+03  0.17030387255E+03 0.  0.
        -24    2    5    5    0    0  0.85169923851E+02  0.62341788240E+02 -0.15158104027E+03  0.20145286221E+03  0.80411624988E+02 0.  0.
          5    1    3    3  501    0  0.14599465231E+02  0.45143674071E+02 -0.13943145403E+03  0.14735778251E+03  0.47000000000E+01 0. -1.
        -13    1    4    4    0    0 -0.98293514010E+02 -0.44855269536E+01 -0.17098485395E+03  0.19727532823E+03  0.00000000000E+00 0.  1.
         14    1    4    4    0    0 -0.86594435065E+01 -0.42557741552E+02 -0.66606509889E+02  0.79514618074E+02  0.00000000000E+00 0. -1.
         -5    1    5    5    0  502  0.71835684333E+01 -0.60442193805E+02 -0.71112179868E+02  0.93722433670E+02  0.47000000000E+01 0.  1.
         13    1    6    6    0    0  0.31595593931E+02  0.66344588228E+02 -0.11494427593E+03  0.13642606976E+03  0.00000000000E+00 0. -1.
        -14    1    6    6    0    0  0.53574329920E+02 -0.40027999880E+01 -0.36636764344E+02  0.65026792446E+02  0.00000000000E+00 0.  1.
</event>
<event>
12    1  0.8053217E-002  0.2165183E+03  0.7818608E-02  0.1138080E+00
         21   -1    0    0  503  502  0.00000000000E+00  0.00000000000E+00  0.41175016445E+03  0.41175016445E+03  0.00000000000E+00 0.  1.
         21   -1    0    0  501  503 -0.00000000000E+00 -0.00000000000E+00 -0.11139804479E+03  0.11139804479E+03  0.00000000000E+00 0.  1.
          6    2    1    2  501    0  0.49270713193E+01  0.11967649238E+03  0.18026559841E+03  0.27555797122E+03  0.17055723576E+03 0.  0.
         24    2    3    3    0    0  0.33694532657E+02  0.13806997551E+03  0.10971058677E+03  0.19703417405E+03  0.81162880841E+02 0.  0.
         -6    2    1    2    0  502 -0.49270713193E+01 -0.11967649238E+03  0.12008652125E+03  0.24759023803E+03  0.18037021516E+03 0.  0.
        -24    2    5    5    0    0  0.12452608193E+02 -0.95402066937E+02  0.15616050430E+03  0.20052939184E+03  0.81051292801E+02 0.  0.
          5    1    3    3  501    0 -0.28767461338E+02 -0.18393483129E+02  0.70555011641E+02  0.78523797165E+02  0.47000000000E+01 0. -1.
        -11    1    4    4    0    0 -0.23273456193E+02  0.59699611322E+02  0.26577268514E+02  0.69368930775E+02  0.00000000000E+00 0.  1.
         12    1    4    4    0    0  0.56967988850E+02  0.78370364189E+02  0.83133318256E+02  0.12766524328E+03  0.00000000000E+00 0. -1.
         -5    1    5    5    0  502 -0.17379679512E+02 -0.24274425445E+02 -0.36073983044E+02  0.47060846181E+02  0.47000000000E+01 0.  1.
         11    1    6    6    0    0  0.32590433389E+01  0.87762370963E+01 -0.32194099722E+01  0.98999142230E+01  0.00000000000E+00 0. -1.
        -12    1    6    6    0    0  0.91935648541E+01 -0.10417830403E+03  0.15937991427E+03  0.19062947762E+03  0.00000000000E+00 0.  1.
</event>
<event>
12    1  0.8053217E-002  0.2210215E+03  0.7818608E-02  0.1133991E+00
         21   -1    0    0  501  502  0.00000000000E+00  0.00000000000E+00  0.13125899835E+04  0.13125899835E+04  0.00000000000E+00 0. -1.
         21   -1    0    0  502  503 -0.00000000000E+00 -0.00000000000E+00 -0.49674364629E+02  0.49674364629E+02  0.00000000000E+00 0.  1.
         -6    2    1    2    0  503 -0.50439281865E+02  0.12941355524E+03  0.97809326888E+03  0.10017448712E+04  0.16593479104E+03 0.  0.
        -24    2    3    3    0    0 -0.43064236640E+02  0.65298049633E+02  0.85881307558E+03  0.86604283042E+03  0.79698943426E+02 0.  0.
          6    2    1    2  501    0  0.50439281865E+02 -0.12941355524E+03  0.28482235004E+03  0.36051947699E+03  0.17192595143E+03 0.  0.
         24    2    5    5    0    0 -0.11681279634E+02 -0.17544424854E+02  0.16784767626E+03  0.18708698061E+03  0.79902670493E+02 0.  0.
          5    1    5    5  501    0  0.62120561499E+02 -0.11186913039E+03  0.11697467378E+03  0.17343249638E+03  0.47000000000E+01 0. -1.
        -11    1    6    6    0    0 -0.49489504448E+01 -0.48574777951E+02  0.80536159691E+02  0.94181071247E+02  0.00000000000E+00 0.  1.
         12    1    6    6    0    0 -0.67323291894E+01  0.31030353097E+02  0.87311516569E+02  0.92905909367E+02  0.00000000000E+00 0. -1.
         -5    1    3    3    0  503 -0.73750452251E+01  0.64115505609E+02  0.11928019330E+03  0.13570204076E+03  0.47000000000E+01 0.  1.
         11    1    4    4    0    0 -0.55934112430E+02  0.25605545205E+02  0.66217189154E+03  0.66502321976E+03  0.00000000000E+00 0. -1.
        -12    1    4    4    0    0  0.12869875791E+02  0.39692504428E+02  0.19664118404E+03  0.20101961066E+03  0.00000000000E+00 0.  1.
</event>
<event>
12    1  0.8053217E-002  0.3303823E+03  0.7818608E-02  0.1071087E+00
         21   -1    0    0  503  502  0.00000000000E+00  0.00000000000E+00  0.82237765252E+03  0.82237765252E+03  0.00000000000E+00 0.  1.
         21   -1    0    0  501  503 -0.00000000000E+00 -0.00000000000E+00 -0.14588230360E+03  0.14588230360E+03  0.00000000000E+00 0. -1.
          6    2    1    2  501    0  0.23608217636E+03 -0.15462160926E+03  0.18999025921E+03  0.38017858935E+03  0.16969627326E+03 0.  0.
         24    2    3    3    0    0  0.10482847455E+03 -0.12834810226E+02  0.60748741440E+02  0.14767807207E+03  0.83454550224E+02 0.  0.
         -6    2    1    2    0  502 -0.23608217636E+03  0.15462160926E+03  0.48650508971E+03  0.58808136677E+03  0.17178432870E+03 0.  0.
        -24    2    5    5    0    0 -0.17782073813E+03  0.98244280564E+02  0.44793105792E+03  0.49817672671E+03  0.79155952471E+02 0.  0.
          5    1    3    3  501    0  0.13125370181E+03 -0.14178679904E+03  0.12924151778E+03  0.23250051728E+03  0.47000000000E+01 0. -1.
        -11    1    4    4    0    0  0.95563512616E+01 -0.35375785166E+02  0.14619967229E+02  0.39452673767E+02  0.00000000000E+00 0.  1.
         12    1    4    4    0    0  0.95272123291E+02  0.22540974940E+02  0.46128774211E+02  0.10822539830E+03  0.00000000000E+00 0. -1.
         -5    1    5    5    0  502 -0.58261438230E+02  0.56377328701E+02  0.38574031782E+02  0.89904640058E+02  0.47000000000E+01 0.  1.
         11    1    6    6    0    0 -0.15168109416E+03  0.45057884963E+02  0.30981109002E+03  0.34787969016E+03  0.00000000000E+00 0. -1.
        -12    1    6    6    0    0 -0.26139643970E+02  0.53186395600E+02  0.13811996790E+03  0.15029703655E+03  0.00000000000E+00 0.  1.
</event>
<event>
12    1  0.8053217E-002  0.1849620E+03  0.7818608E-02  0.1163202E+00
         21   -1    0    0  503  502  0.00000000000E+00  0.00000000000E+00  0.73292126891E+03  0.73292126891E+03  0.00000000000E+00 0. -1.
         21   -1    0    0  501  503 -0.00000000000E+00 -0.00000000000E+00 -0.10099545616E+03  0.10099545616E+03  0.00000000000E+00 0. -1.
          6    2    1    2  501    0  0.68769689977E+02 -0.15020270078E+01  0.96296942778E+01  0.18471460765E+03  0.17115849066E+03 0.  0.
         24    2    3    3    0    0  0.66111801488E+02 -0.46937893676E+02  0.50061812555E+02  0.12365456721E+03  0.78805651804E+02 0.  0.
         -6    2    1    2    0  502 -0.68769689977E+02  0.15020270078E+01  0.62229611847E+03  0.64920211742E+03  0.17169567221E+03 0.  0.
        -24    2    5    5    0    0 -0.11146346569E+03 -0.12137702245E+02  0.50038482660E+03  0.51922806700E+03  0.81494679978E+02 0.  0.
          5    1    3    3  501    0  0.26578884887E+01  0.45435866668E+02 -0.40432118277E+02  0.61060040447E+02  0.47000000000E+01 0. -1.
        -13    1    4    4    0    0  0.14181800766E+02 -0.41139646503E+02 -0.93761210708E+01  0.44514106008E+02  0.00000000000E+00 0.  1.
         14    1    4    4    0    0  0.51930000722E+02 -0.57982471731E+01  0.59437933625E+02  0.79140461200E+02  0.00000000000E+00 0. -1.
         -5    1    5    5    0  502  0.42693775714E+02  0.13639729253E+02  0.12191129187E+03  0.12997405043E+03  0.47000000000E+01 0.  1.
         13    1    6    6    0    0 -0.86236837749E+02  0.27670445121E+02  0.35635871090E+03  0.36768733532E+03  0.00000000000E+00 0. -1.
        -14    1    6    6    0    0 -0.25226627942E+02 -0.39808147366E+02  0.14402611570E+03  0.15154073168E+03  0.00000000000E+00 0.  1.
</event>
<event>
12    1  0.8053217E-002  0.2075548E+03  0.7818608E-02  0.1143943E+00
         21   -1    0    0  501  502  0.00000000000E+00  0.00000000000E+00  0.62725280848E+03  0.62725280848E+03  0.00000000000E+00 0. -1.
         21   -1    0    0  502  503 -0.00000000000E+00 -0.00000000000E+00 -0.80205996984E+02  0.80205996984E+02  0.00000000000E+00 0.  1.
         -6    2    1    2    0  503  0.11381119590E+03  0.60738215647E+01  0.13662025354E+03  0.24848357810E+03  0.17346214368E+03 0.  0.
        -24    2    3    3    0    0  0.11822298642E+03 -0.39228355636E+02  0.13535502599E+03  0.20270758051E+03  0.85169488254E+02 0.  0.
          6    2    1    2  501    0 -0.11381119590E+03 -0.60738215647E+01  0.41042655796E+03  0.45897522737E+03  0.17093396455E+03 0.  0.
         24    2    5    5    0    0 -0.11989865222E+03 -0.22364452630E+02  0.20049745659E+03  0.24827458810E+03  0.81025832008E+02 0.  0.
          5    1    5    5  501    0  0.60874563183E+01  0.16290631065E+02  0.20992910137E+03  0.21070063926E+03  0.47000000000E+01 0. -1.
        -13    1    6    6    0    0 -0.10424789895E+03 -0.49239229681E+02  0.16013529996E+03  0.19732065393E+03  0.00000000000E+00 0.  1.
         14    1    6    6    0    0 -0.15650753269E+02  0.26874777052E+02  0.40362156634E+02  0.50953934172E+02  0.00000000000E+00 0. -1.
         -5    1    3    3    0  503 -0.44117905233E+01  0.45302177201E+02  0.12652275438E+01  0.45775997592E+02  0.47000000000E+01 0.  1.
         11    1    4    4    0    0  0.54119628243E+02 -0.60402020404E+02  0.91180008060E+02  0.12202922642E+03  0.00000000000E+00 0. -1.
        -12    1    4    4    0    0  0.64103358179E+02  0.21173664768E+02  0.44175017932E+02  0.80678354091E+02  0.00000000000E+00 0.  1.
</event>
<event>
12    1  0.8053217E-002  0.2000528E+03  0.7818608E-02  0.1150346E+00
         21   -1    0    0  501  502  0.00000000000E+00  0.00000000000E+00  0.38178504121E+03  0.38178504121E+03  0.00000000000E+00 0.  1.
         21   -1    0    0  502  503 -0.00000000000E+00 -0.00000000000E+00 -0.12153562795E+03  0.12153562795E+03  0.00000000000E+00 0.  1.
         -6    2    1    2    0  503 -0.10148948003E+03  0.91444067306E+01  0.33304522636E+02  0.20280612991E+03  0.17215516365E+03 0.  0.
        -24    2    3    3    0    0 -0.11797363215E+03 -0.74682714151E+00  0.72377527632E+02  0.15900711739E+03  0.78271458652E+02 0.  0.
          6    2    1    2  501    0  0.10148948003E+03 -0.91444067306E+01  0.22694489063E+03  0.30051453925E+03  0.16858609133E+03 0.  0.
         24    2    5    5    0    0  0.62085569650E+02  0.53584083531E+02  0.17794753130E+03  0.21157431852E+03  0.79827917378E+02 0.  0.
          5    1    5    5  501    0  0.39403910377E+02 -0.62728490261E+02  0.48997359327E+02  0.88940220736E+02  0.47000000000E+01 0. -1.
        -11    1    6    6    0    0  0.16881714064E+02  0.62768715829E+02  0.78265176166E+02  0.10173662938E+03  0.00000000000E+00 0.  1.
         12    1    6    6    0    0  0.45203855585E+02 -0.91846322987E+01  0.99682355136E+02  0.10983768914E+03  0.00000000000E+00 0. -1.
         -5    1    3    3    0  503  0.16484152124E+02  0.98912338721E+01 -0.39073004996E+02  0.43799012525E+02  0.47000000000E+01 0.  1.
         13    1    4    4    0    0 -0.46841750244E+02 -0.78459723659E+01  0.73503833841E+02  0.87512984394E+02  0.00000000000E+00 0. -1.
        -14    1    4    4    0    0 -0.71131881907E+02  0.70991452244E+01 -0.11263062088E+01  0.71494132991E+02  0.00000000000E+00 0.  1.
</event>
<event>
12    1  0.8053217E-002  0.1841641E+03  0.7818608E-02  0.1163888E+00
         21   -1    0    0  503  502  0.00000000000E+00  0.00000000000E+00  0.11405976447E+03  0.11405976447E+03  0.00000000000E+00 0. -1.
         21   -1    0    0  501  503 -0.00000000000E+00 -0.00000000000E+00 -0.26215017584E+04  0.26215017584E+04  0.00000000000E+00 0. -1.
          6    2    1    2  501    0  0.60675843751E+02 -0.24579175017E+02 -0.25416085128E+04  0.25482549448E+04  0.17188291797E+03 0.  0.
         24    2    3    3    0    0  0.69175043105E+01 -0.75144506848E+02 -0.15295845596E+04  0.15335326263E+04  0.79992762994E+02 0.  0.
         -6    2    1    2    0  502 -0.60675843751E+02  0.24579175017E+02  0.34166518940E+02  0.18730657801E+03  0.17213572927E+03 0.  0.
        -24    2    5    5    0    0 -0.99152471229E+02 -0.65052432120E+01 -0.67984738225E+00  0.12661843119E+03  0.78474417389E+02 0.  0.
          5    1    3    3  501    0  0.53758339440E+02  0.50565331830E+02 -0.10120239532E+04  0.10147223185E+04  0.47000000000E+01 0. -1.
        -11    1    4    4    0    0  0.26544670051E+02 -0.39626027602E+02 -0.34821090712E+03  0.35146219911E+03  0.00000000000E+00 0.  1.
         12    1    4    4    0    0 -0.19627165740E+02 -0.35518479246E+02 -0.11813736525E+04  0.11820704272E+04  0.00000000000E+00 0. -1.
         -5    1    5    5    0  502  0.38476627478E+02  0.31084418229E+02  0.34846366322E+02  0.60688146822E+02  0.47000000000E+01 0.  1.
         13    1    6    6    0    0 -0.10999841948E+02 -0.30228761518E+02 -0.12613863673E+02  0.34552628012E+02  0.00000000000E+00 0. -1.
        -14    1    6    6    0    0 -0.88152629281E+02  0.23723518306E+02  0.11934016291E+02  0.92065803178E+02  0.00000000000E+00 0.  1.
</event>
<event>
12    1  0.8053217E-002  0.1902456E+03  0.7818608E-02  0.1158482E+00
         21   -1    0    0  501  502  0.00000000000E+00  0.00000000000E+00  0.40805020921E+03  0.40805020921E+03  0.00000000000E+00 0.  1.
         21   -1    0    0  502  503 -0.00000000000E+00 -0.00000000000E+00 -0.93880901298E+02  0.93880901298E+02  0.00000000000E+00 0.  1.
         -6    2    1    2    0  503 -0.81887664985E+02  0.91408647766E+01  0.94932727199E+02  0.21165872113E+03  0.17028812775E+03 0.  0.
        -24    2    3    3    0    0 -0.19252494972E+02  0.35918125236E+02  0.10958832746E+03  0.14182275032E+03  0.80270297812E+02 0.  0.
          6    2    1    2  501    0  0.81887664985E+02 -0.91408647766E+01  0.21923658071E+03  0.29027238937E+03  0.17147663580E+03 0.  0.
         24    2    5    5    0    0  0.68101072336E+02  0.47459646557E+02  0.19584221901E+03  0.22731943726E+03  0.80185894686E+02 0.  0.
          5    1    5    5  501    0  0.13786592648E+02 -0.56600511334E+02  0.23394361701E+02  0.62952952111E+02  0.47000000000E+01 0. -1.
        -13    1    6    6    0    0  0.81536038701E+02  0.21061873926E+02  0.12709389183E+03  0.15246175088E+03  0.00000000000E+00 0.  1.
         14    1    6    6    0    0 -0.13434966364E+02  0.26397772631E+02  0.68748327176E+02  0.74857686383E+02  0.00000000000E+00 0. -1.
         -5    1    3    3    0  503 -0.62635170012E+02 -0.26777260460E+02 -0.14655600256E+02  0.69835970811E+02  0.47000000000E+01 0.  1.
         13    1    4    4    0    0 -0.14402074445E+02  0.60647534474E+02  0.91853560903E+02  0.11100729632E+03  0.00000000000E+00 0. -1.
        -14    1    4    4    0    0 -0.48504205270E+01 -0.24729409237E+02  0.17734766553E+02  0.30815454000E+02  0.00000000000E+00 0.  1.
</event>
<event>
12    1  0.8053217E-002  0.1927360E+03  0.7818608E-02  0.1156115E+00
         21   -1    0    0  501  502  0.00000000000E+00  0.00000000000E+00  0.29722379912E+03  0.29722379912E+03  0.00000000000E+00 0. -1.
         21   -1    0    0  502  503 -0.00000000000E+00 -0.00000000000E+00 -0.30822901408E+03  0.30822901408E+03  0.00000000000E+00 0. -1.
         -6    2    1    2    0  503 -0.48273155252E+02 -0.71989227361E+02 -0.23910570451E+03  0.30711352637E+03  0.17214654739E+03 0.  0.
        -24    2    3    3    0    0 -0.67682611755E+02 -0.14599396690E+02 -0.21759720886E+03  0.24265404258E+03  0.82087518887E+02 0.  0.
          6    2    1    2  501    0  0.48273155252E+02  0.71989227361E+02  0.22810048956E+03  0.29833928683E+03  0.17165008114E+03 0.  0.
         24    2    5    5    0    0  0.49207428892E+02 -0.10782460250E+02  0.17845205088E+03  0.20170035782E+03  0.79374223605E+02 0.  0.
          5    1    5    5  501    0 -0.93427363982E+00  0.82771687610E+02  0.49648438674E+02  0.96638929008E+02  0.47000000000E+01 0. -1.
        -13    1    6    6    0    0 -0.20204538323E+02  0.19846042864E+01  0.21286335168E+02  0.29415473614E+02  0.00000000000E+00 0.  1.
         14    1    6    6    0    0  0.69411967215E+02 -0.12767064536E+02  0.15716571571E+03  0.17228488420E+03  0.00000000000E+00 0. -1.
         -5    1    3    3    0  503  0.19409456502E+02 -0.57389830671E+02 -0.21508495651E+02  0.64459483797E+02  0.47000000000E+01 0.  1.
         13    1    4    4    0    0 -0.28127524070E+02  0.69777537940E+01 -0.18446159620E+03  0.18672420071E+03  0.00000000000E+00 0. -1.
        -14    1    4    4    0    0 -0.39555087684E+02 -0.21577150484E+02 -0.33135612661E+02  0.55929841866E+02  0.00000000000E+00 0.  1.
</event>
<event>
12    1  0.8053217E-002  0.2429300E+03  0.7818608E-02  0.1118370E+00
         21   -1    0    0  503  502  0.00000000000E+00  0.00000000000E+00  0.20685487686E+03  0.20685487686E+03  0.00000000000E+00 0. -1.
         21   -1    0    0  501  503 -0.00000000000E+00 -0.00000000000E+00 -0.31247003306E+03  0.31247003306E+03  0.00000000000E+00 0. -1.
          6    2    1    2  501    0 -0.12363446566E+03 -0.11856765668E+03  0.28430923587E+02  0.24458802717E+03  0.17225334629E+03 0.  0.
         24    2    3    3    0    0 -0.14991760155E+03 -0.12422004954E+03  0.87660949129E+01  0.21094953338E+03  0.80727648615E+02 0.  0.
         -6    2    1    2    0  502  0.12363446566E+03  0.11856765668E+03 -0.13404607979E+03  0.27473688276E+03  0.16783394451E+03 0.  0.
        -24    2    5    5    0    0  0.64148553002E+02  0.46637983575E+02 -0.14550765165E+03  0.18057792510E+03  0.71734036407E+02 0.  0.
          5    1    3    3  501    0  0.26283135890E+02  0.56523928634E+01  0.19664828674E+02  0.33638493785E+02  0.47000000000E+01 0. -1.
        -11    1    4    4    0    0 -0.55376687336E+02 -0.51238837570E+02 -0.35754059191E+02  0.83488614341E+02  0.00000000000E+00 0.  1.
         12    1    4    4    0    0 -0.94540914216E+02 -0.72981211970E+02  0.44520154104E+02  0.12746091904E+03  0.00000000000E+00 0. -1.
         -5    1    5    5    0  502  0.59485912660E+02  0.71929673102E+02  0.11461571866E+02  0.94158957657E+02  0.47000000000E+01 0.  1.
         13    1    6    6    0    0  0.72993702766E+02  0.49277477494E+02 -0.96247738496E+02  0.13046063620E+03  0.00000000000E+00 0. -1.
        -14    1    6    6    0    0 -0.88451497640E+01 -0.26394939189E+01 -0.49259913157E+02  0.50117288900E+02  0.00000000000E+00 0.  1.
</event>
<event>
12    1  0.8053217E-002  0.1997395E+03  0.7818608E-02  0.1150105E+00
         21   -1    0    0  501  502  0.00000000000E+00  0.00000000000E+00  0.24862791868E+03  0.24862791868E+03  0.00000000000E+00 0. -1.
         21   -1    0    0  502  503 -0.00000000000E+00 -0.00000000000E+00 -0.27912970002E+03  0.27912970002E+03  0.00000000000E+00 0. -1.
         -6    2    1    2    0  503 -0.58130111077E+02  0.82006203138E+02 -0.18771970442E+03  0.27410679688E+03  0.17260278533E+03 0.  0.
        -24    2    3    3    0    0 -0.57779662947E+02  0.26579429596E+01 -0.16275688082E+03  0.19079112147E+03  0.81030214531E+02 0.  0.
          6    2    1    2  501    0  0.58130111077E+02 -0.82006203138E+02  0.15721792308E+03  0.25365082181E+03  0.17180552059E+03 0.  0.
         24    2    5    5    0    0 -0.48504686245E+01 -0.57975246222E+02  0.18387075287E+02  0.99248313391E+02  0.78278266160E+02 0.  0.
          5    1    5    5  501    0  0.62980579701E+02 -0.24030956917E+02  0.13883084779E+03  0.15440250842E+03  0.47000000000E+01 0. -1.
        -13    1    6    6    0    0  0.29891829551E+01 -0.76898574630E+02  0.12768641883E+02  0.78008744448E+02  0.00000000000E+00 0.  1.
         14    1    6    6    0    0 -0.78396515797E+01  0.18923328408E+02  0.56184334039E+01  0.21239568942E+02  0.00000000000E+00 0. -1.
         -5    1    3    3    0  503 -0.35044812967E+00  0.79348260179E+02 -0.24962823602E+02  0.83315675413E+02  0.47000000000E+01 0.  1.
         13    1    4    4    0    0 -0.48315184583E+02 -0.29005415770E+02 -0.57676440922E+02  0.80636487043E+02  0.00000000000E+00 0. -1.
        -14    1    4    4    0    0 -0.94644783639E+01  0.31663358729E+02 -0.10508043990E+03  0.11015463443E+03  0.00000000000E+00 0.  1.
</event>
<event>
12    1  0.8053217E-002  0.1976267E+03  0.7818608E-02  0.1157188E+00
         21   -1    0    0  503  502  0.00000000000E+00  0.00000000000E+00  0.55454775667E+02  0.55454775667E+02  0.00000000000E+00 0. -1.
         21   -1    0    0  501  503 -0.00000000000E+00 -0.00000000000E+00 -0.62243994415E+03  0.62243994415E+03  0.00000000000E+00 0. -1.
          6    2    1    2  501    0 -0.37697304351E+02 -0.71595075917E+01 -0.29909850265E+03  0.35849161024E+03  0.19386586864E+03 0.  0.
         24    2    3    3    0    0  0.50522395012E+02 -0.38590061327E+02 -0.17366633464E+03  0.20188409498E+03  0.80965960679E+02 0.  0.
         -6    2    1    2    0  502  0.37697304351E+02  0.71595075917E+01 -0.26788666584E+03  0.31940310958E+03  0.16965475346E+03 0.  0.
        -24    2    5    5    0    0  0.86099320820E+02 -0.87645072438E+01 -0.21652921124E+03  0.24690478140E+03  0.81161333914E+02 0.  0.
          5    1    3    3  501    0 -0.88219699363E+02  0.31430553736E+02 -0.12543216801E+03  0.15660751526E+03  0.47000000000E+01 0. -1.
        -11    1    4    4    0    0 -0.11589360162E+02 -0.35172480213E+02 -0.40343261179E+02  0.54763083878E+02  0.00000000000E+00 0.  1.
         12    1    4    4    0    0  0.62111755173E+02 -0.34175811145E+01 -0.13332307346E+03  0.14712101111E+03  0.00000000000E+00 0. -1.
         -5    1    5    5    0  502 -0.48402016469E+02  0.15924014836E+02 -0.51357454596E+02  0.72498328183E+02  0.47000000000E+01 0.  1.
         13    1    6    6    0    0 -0.33473811744E+01 -0.11286431978E+02 -0.96374279642E+02  0.97090629229E+02  0.00000000000E+00 0. -1.
        -14    1    6    6    0    0  0.89446701995E+02  0.25219247341E+01 -0.12015493160E+03  0.14981415217E+03  0.00000000000E+00 0.  1.
</event>
<event>
12    1  0.8053217E-002  0.1783440E+03  0.7818608E-02  0.1170026E+00
         21   -1    0    0  503  502  0.00000000000E+00  0.00000000000E+00  0.11521033763E+03  0.11521033763E+03  0.00000000000E+00 0.  1.
         21   -1    0    0  501  503 -0.00000000000E+00 -0.00000000000E+00 -0.52154694729E+03  0.52154694729E+03  0.00000000000E+00 0.  1.
          6    2    1    2  501    0  0.25696744294E+02 -0.17834761637E+02 -0.42253933293E+03  0.45767877589E+03  0.17306638217E+03 0.  0.
         24    2    3    3    0    0  0.80750500686E+02  0.39314212423E+01 -0.23080232999E+03  0.25695545610E+03  0.78868824376E+02 0.  0.
         -6    2    1    2    0  502 -0.25696744294E+02  0.17834761637E+02  0.16202723273E+02  0.17907850903E+03  0.17557956250E+03 0.  0.
        -24    2    5    5    0    0 -0.37983274567E+02 -0.53350789855E+02  0.21579793160E+02  0.10648825867E+03  0.81148172109E+02 0.  0.
          5    1    3    3  501    0 -0.55053756392E+02 -0.21766182880E+02 -0.19173700294E+03  0.20072331979E+03  0.47000000000E+01 0. -1.
        -13    1    4    4    0    0  0.22432765988E+02  0.38698498571E+02 -0.10124430675E+03  0.11068519518E+03  0.00000000000E+00 0.  1.
         14    1    4    4    0    0  0.58317734698E+02 -0.34767077329E+02 -0.12955802324E+03  0.14627026093E+03  0.00000000000E+00 0. -1.
         -5    1    5    5    0  502  0.12286530273E+02  0.71185551492E+02 -0.53770698871E+01  0.72590250365E+02  0.47000000000E+01 0.  1.
         11    1    6    6    0    0  0.12179931584E+02 -0.27040403196E+02 -0.20389665583E+02  0.35989895818E+02  0.00000000000E+00 0. -1.
        -12    1    6    6    0    0 -0.50163206151E+02 -0.26310386659E+02  0.41969458744E+02  0.70498362852E+02  0.00000000000E+00 0.  1.
</event>
<event>
12    1  0.8053217E-002  0.1851192E+03  0.7818608E-02  0.1163417E+00
         21   -1    0    0  501  502  0.00000000000E+00  0.00000000000E+00  0.33815751463E+03  0.33815751463E+03  0.00000000000E+00 0. -1.
         21   -1    0    0  502  503 -0.00000000000E+00 -0.00000000000E+00 -0.16621903758E+03  0.16621903758E+03  0.00000000000E+00 0.  1.
         -6    2    1    2    0  503  0.13132586889E+02  0.64319822735E+02 -0.73219122473E+02  0.19717731446E+03  0.17090450259E+03 0.  0.
        -24    2    3    3    0    0 -0.50262561631E+02  0.64414192189E+02 -0.69945354325E+02  0.13352386742E+03  0.79124947534E+02 0.  0.
          6    2    1    2  501    0 -0.13132586889E+02 -0.64319822735E+02  0.24515759952E+03  0.30719923775E+03  0.17308847054E+03 0.  0.
         24    2    5    5    0    0 -0.62175586256E+02 -0.74843873759E+02  0.21302562659E+03  0.24744536657E+03  0.79886687780E+02 0.  0.
          5    1    5    5  501    0  0.49042999367E+02  0.10524051024E+02  0.32131972930E+02  0.59753871182E+02  0.47000000000E+01 0. -1.
        -11    1    6    6    0    0 -0.69742013936E+02 -0.63584927123E+02  0.21395787976E+03  0.23384816821E+03  0.00000000000E+00 0.  1.
         12    1    6    6    0    0  0.75664276794E+01 -0.11258946637E+02 -0.93225316419E+00  0.13597198357E+02  0.00000000000E+00 0. -1.
         -5    1    3    3    0  503  0.63395148520E+02 -0.94369454340E-01 -0.32737681482E+01  0.63653447035E+02  0.47000000000E+01 0.  1.
         13    1    4    4    0    0  0.47962307751E+01  0.49004021193E+02 -0.91755955606E+01  0.50085821113E+02  0.00000000000E+00 0. -1.
        -14    1    4    4    0    0 -0.55058792406E+02  0.15410170997E+02 -0.60769758764E+02  0.83438046308E+02  0.00000000000E+00 0.  1.
</event>
<event>
12    1  0.8053217E-002  0.3696005E+03  0.7818608E-02  0.1054925E+00
         21   -1    0    0  503  502  0.00000000000E+00  0.00000000000E+00  0.56260266910E+03  0.56260266910E+03  0.00000000000E+00 0. -1.
         21   -1    0    0  501  503 -0.00000000000E+00 -0.00000000000E+00 -0.27142563499E+03  0.27142563499E+03  0.00000000000E+00 0. -1.
          6    2    1    2  501    0 -0.16392064797E+03 -0.28227555171E+03  0.87648246791E+01  0.36888188369E+03  0.17160290217E+03 0.  0.
         24    2    3    3    0    0 -0.14028874424E+03 -0.29859254821E+03  0.59639979235E+01  0.33964755662E+03  0.80538511527E+02 0.  0.
         -6    2    1    2    0  502  0.16392064797E+03  0.28227555171E+03  0.28241220943E+03  0.46514642041E+03  0.17336398257E+03 0.  0.
        -24    2    5    5    0    0  0.11503225781E+03  0.27394732146E+03  0.19128777798E+03  0.36129466973E+03  0.75254694825E+02 0.  0.
          5    1    3    3  501    0 -0.23631903729E+02  0.16316996497E+02  0.28008267555E+01  0.29234327067E+02  0.47000000000E+01 0. -1.
        -11    1    4    4    0    0 -0.17701780717E+01 -0.61295502644E+02 -0.17805128275E+02  0.63853698152E+02  0.00000000000E+00 0.  1.
         12    1    4    4    0    0 -0.13851856617E+03 -0.23729704557E+03  0.23769126199E+02  0.27579385847E+03  0.00000000000E+00 0. -1.
         -5    1    5    5    0  502  0.48888390160E+02  0.83282302484E+01  0.91124431452E+02  0.10385175068E+03  0.47000000000E+01 0.  1.
         11    1    6    6    0    0  0.83940881799E+02  0.21987127320E+03  0.18350266828E+03  0.29843370735E+03  0.00000000000E+00 0. -1.
        -12    1    6    6    0    0  0.31091376012E+02  0.54076048264E+02  0.77851097037E+01  0.62860962379E+02  0.00000000000E+00 0.  1.
</event>
<event>
12    1  0.8053217E-002  0.1826659E+03  0.7818608E-02  0.1165583E+00
         21   -1    0    0  503  502  0.00000000000E+00  0.00000000000E+00  0.58568501348E+03  0.58568501348E+03  0.00000000000E+00 0. -1.
         21   -1    0    0  501  503 -0.00000000000E+00 -0.00000000000E+00 -0.93016834823E+02  0.93016834823E+02  0.00000000000E+00 0. -1.
          6    2    1    2  501    0  0.34731439089E+02  0.46080199496E+02  0.34383539255E+02  0.18587376792E+03  0.17331235438E+03 0.  0.
         24    2    3    3    0    0  0.51150323679E+02  0.90871490437E+02  0.39842568109E+02  0.13762720834E+03  0.80497421414E+02 0.  0.
         -6    2    1    2    0  502 -0.34731439089E+02 -0.46080199496E+02  0.45828463941E+03  0.49282808039E+03  0.17182854378E+03 0.  0.
        -24    2    5    5    0    0  0.20916191790E+02 -0.22443212793E+02  0.11013662682E+03  0.13943807681E+03  0.79823028116E+02 0.  0.
          5    1    3    3  501    0 -0.16418884590E+02 -0.44791290941E+02 -0.54590288541E+01  0.48246559581E+02  0.47000000000E+01 0. -1.
        -11    1    4    4    0    0  0.56852070864E+02  0.19478758883E+02  0.19293497567E+02  0.63117501990E+02  0.00000000000E+00 0.  1.
         12    1    4    4    0    0 -0.57017471844E+01  0.71392731554E+02  0.20549070542E+02  0.74509706346E+02  0.00000000000E+00 0. -1.
         -5    1    5    5    0  502 -0.55647630879E+02 -0.23636986703E+02  0.34814801259E+03  0.35339000358E+03  0.47000000000E+01 0.  1.
         11    1    6    6    0    0  0.58686262057E+01  0.27399284841E+02  0.64030616096E+02  0.69893357202E+02  0.00000000000E+00 0. -1.
        -12    1    6    6    0    0  0.15047565584E+02 -0.49842497634E+02  0.46106010724E+02  0.69544719607E+02  0.00000000000E+00 0.  1.
</event>
<event>
12    1  0.8053217E-002  0.5264265E+03  0.7818608E-02  0.1007110E+00
         21   -1    0    0  503  502  0.00000000000E+00  0.00000000000E+00  0.16570919407E+04  0.16570919407E+04  0.00000000000E+00 0. -1.
         21   -1    0    0  501  503 -0.00000000000E+00 -0.00000000000E+00 -0.18660629860E+03  0.18660629860E+03  0.00000000000E+00 0.  1.
          6    2    1    2  501    0 -0.23838197534E+03  0.43646130667E+03  0.43800016241E+03  0.68481313438E+03  0.17262806366E+03 0.  0.
         24    2    3    3    0    0 -0.21053705406E+03  0.41370144671E+03  0.44452188137E+03  0.64796243989E+03  0.82346113116E+02 0.  0.
         -6    2    1    2    0  502  0.23838197534E+03 -0.43646130667E+03  0.10324854797E+04  0.11588851049E+04  0.17223234953E+03 0.  0.
        -24    2    5    5    0    0  0.23354032086E+03 -0.43737409577E+03  0.93644307910E+03  0.10626016301E+04  0.79745864289E+02 0.  0.
          5    1    3    3  501    0 -0.27844921277E+02  0.22759859960E+02 -0.65217189636E+01  0.36850694492E+02  0.47000000000E+01 0. -1.
        -11    1    4    4    0    0 -0.53584782197E+02  0.10931412968E+03  0.69853368594E+02  0.14035811674E+03  0.00000000000E+00 0.  1.
         12    1    4    4    0    0 -0.15695227187E+03  0.30438731703E+03  0.37466851278E+03  0.50760432315E+03  0.00000000000E+00 0. -1.
         -5    1    5    5    0  502  0.48416544766E+01  0.91278909766E+00  0.96042400587E+02  0.96283474763E+02  0.47000000000E+01 0.  1.
         13    1    6    6    0    0  0.21371836066E+03 -0.33546959447E+03  0.72064938817E+03  0.82313481713E+03  0.00000000000E+00 0. -1.
        -14    1    6    6    0    0  0.19821960204E+02 -0.10190450129E+03  0.21579369093E+03  0.23946681301E+03  0.00000000000E+00 0.  1.
</event>
<event>
12    1  0.8053217E-002  0.2450970E+03  0.7818608E-02  0.1117578E+00
         21   -1    0    0  503  502  0.00000000000E+00  0.00000000000E+00  0.68808346703E+03  0.68808346703E+03  0.00000000000E+00 0.  1.
         21   -1    0    0  501  503 -0.00000000000E+00 -0.00000000000E+00 -0.37212245345E+03  0.37212245345E+03  0.00000000000E+00 0.  1.
          6    2    1    2  501    0 -0.38288071325E+01 -0.16602411995E+03 -0.30724395385E+03  0.39302850774E+03  0.18026062397E+03 0.  0.
         24    2    3    3    0    0 -0.11287533045E+02 -0.14092171141E+02 -0.56103081775E+02  0.99374327992E+02  0.80010646725E+02 0.  0.
         -6    2    1    2    0  502  0.38288071325E+01  0.16602411995E+03  0.62320496743E+03  0.66717741273E+03  0.17077060774E+03 0.  0.
        -24    2    5    5    0    0  0.46226060708E+02  0.12639327731E+03  0.55825691729E+03  0.57995086852E+03  0.81117907751E+02 0.  0.
          5    1    3    3  501    0  0.74587259122E+01 -0.15193194881E+03 -0.25114087207E+03  0.29365417975E+03  0.47000000000E+01 0. -1.
        -13    1    4    4    0    0 -0.11033515185E+02 -0.33124845058E+02 -0.68342601302E+02  0.76744413283E+02  0.00000000000E+00 0.  1.
         14    1    4    4    0    0 -0.25401785961E+00  0.19032673917E+02  0.12239519526E+02  0.22629914709E+02  0.00000000000E+00 0. -1.
         -5    1    5    5    0  502 -0.42397253576E+02  0.39630842634E+02  0.64948050139E+02  0.87226544214E+02  0.47000000000E+01 0.  1.
         13    1    6    6    0    0  0.10540837084E+02  0.87663592409E+02  0.21108777785E+03  0.22881010606E+03  0.00000000000E+00 0. -1.
        -14    1    6    6    0    0  0.35685223625E+02  0.38729684905E+02  0.34716913944E+03  0.35114076246E+03  0.00000000000E+00 0.  1.
</event>
<event>
12    1  0.8053217E-002  0.2420120E+03  0.7818608E-02  0.1118616E+00
         21   -1    0    0  501  502  0.00000000000E+00  0.00000000000E+00  0.61902579054E+03  0.61902579054E+03  0.00000000000E+00 0.  1.
         21   -1    0    0  502  503 -0.00000000000E+00 -0.00000000000E+00 -0.94490282355E+02  0.94490282355E+02  0.00000000000E+00 0.  1.
         -6    2    1    2    0  503  0.16317536152E+03 -0.50018631012E+02  0.24360133982E+03  0.34271445672E+03  0.17024548166E+03 0.  0.
        -24    2    3    3    0    0  0.56490994881E+02  0.19120885270E+02  0.46662838026E+02  0.10826043076E+03  0.77369630090E+02 0.  0.
          6    2    1    2  501    0 -0.16317536152E+03  0.50018631012E+02  0.28093416836E+03  0.37080161617E+03  0.17158604125E+03 0.  0.
         24    2    5    5    0    0 -0.18470084786E+03  0.22835882544E+02  0.20817551559E+03  0.29006649414E+03  0.78521621239E+02 0.  0.
          5    1    5    5  501    0  0.21525486341E+02  0.27182748468E+02  0.72758652774E+02  0.80735122035E+02  0.47000000000E+01 0. -1.
        -13    1    6    6    0    0 -0.15031679270E+02 -0.18461669876E+02  0.45787097497E+02  0.51606617148E+02  0.00000000000E+00 0.  1.
         14    1    6    6    0    0 -0.16966916859E+03  0.41297552420E+02  0.16238841809E+03  0.23845987699E+03  0.00000000000E+00 0. -1.
         -5    1    3    3    0  503  0.10668436664E+03 -0.69139516281E+02  0.19693850180E+03  0.23445402596E+03  0.47000000000E+01 0.  1.
         11    1    4    4    0    0 -0.12256486645E+02 -0.50841377788E+01  0.30988481836E+02  0.33709878794E+02  0.00000000000E+00 0. -1.
        -12    1    4    4    0    0  0.68747481526E+02  0.24205023048E+02  0.15674356190E+02  0.74550551969E+02  0.00000000000E+00 0.  1.
</event>
<event>
12    1  0.8053217E-002  0.1956201E+03  0.7818608E-02  0.1153525E+00
         21   -1    0    0  501  502  0.00000000000E+00  0.00000000000E+00  0.53572242251E+03  0.53572242251E+03  0.00000000000E+00 0. -1.
         21   -1    0    0  502  503 -0.00000000000E+00 -0.00000000000E+00 -0.46800111275E+03  0.46800111275E+03  0.00000000000E+00 0. -1.
         -6    2    1    2    0  503 -0.94499613230E+02  0.84150791186E+00 -0.42815083366E+03  0.47072323574E+03  0.17127855461E+03 0.  0.
        -24    2    3    3    0    0 -0.94412666600E+02 -0.31583681564E+02 -0.41753095985E+03  0.43628093338E+03  0.78087578041E+02 0.  0.
          6    2    1    2  501    0  0.94499613230E+02 -0.84150791186E+00  0.49587214342E+03  0.53300029952E+03  0.17108258715E+03 0.  0.
         24    2    5    5    0    0  0.89297666051E+02  0.21748376964E+02  0.18378605290E+03  0.22001918019E+03  0.78638803082E+02 0.  0.
          5    1    5    5  501    0  0.52019471788E+01 -0.22589884876E+02  0.31208609053E+03  0.31298111932E+03  0.47000000000E+01 0. -1.
        -11    1    6    6    0    0  0.28746281120E+01  0.18580975996E+02  0.22497992928E+01  0.18936149361E+02  0.00000000000E+00 0.  1.
         12    1    6    6    0    0  0.86423037939E+02  0.31674009673E+01  0.18153625361E+03  0.20108303083E+03  0.00000000000E+00 0. -1.
         -5    1    3    3    0  503 -0.86946630102E-01  0.32425189475E+02 -0.10619873810E+02  0.34442302362E+02  0.47000000000E+01 0.  1.
         13    1    4    4    0    0 -0.31695688783E+02  0.66171878518E+01 -0.26524157773E+03  0.26721058815E+03  0.00000000000E+00 0. -1.
        -14    1    4    4    0    0 -0.62716977817E+02 -0.38200869415E+02 -0.15228938212E+03  0.16907034523E+03  0.00000000000E+00 0.  1.
</event>
<event>
12    1  0.8053217E-002  0.1945992E+03  0.7818608E-02  0.1154734E+00
         21   -1    0    0  501  502  0.00000000000E+00  0.00000000000E+00  0.94842950478E+03  0.94842950478E+03  0.00000000000E+00 0.  1.
         21   -1    0    0  502  503 -0.00000000000E+00 -0.00000000000E+00 -0.39960315565E+02  0.39960315565E+02  0.00000000000E+00 0.  1.
         -6    2    1    2    0  503 -0.34986223071E+01  0.88512974511E+02  0.40888462903E+03  0.45283051318E+03  0.17326871270E+03 0.  0.
        -24    2    3    3    0    0  0.54771766366E+02  0.95526812082E+02  0.27493726358E+03  0.30651366923E+03  0.78960827654E+02 0.  0.
          6    2    1    2  501    0  0.34986223071E+01 -0.88512974511E+02  0.49958456019E+03  0.53555930716E+03  0.17144168599E+03 0.  0.
         24    2    5    5    0    0  0.67607847188E+02 -0.55179723462E+02  0.34975106230E+03  0.36914637068E+03  0.79546304259E+02 0.  0.
          5    1    5    5  501    0 -0.64109224881E+02 -0.33333251049E+02  0.14983349789E+03  0.16641293648E+03  0.47000000000E+01 0. -1.
        -13    1    6    6    0    0  0.45209237249E+01 -0.62570556270E+01 -0.23807680120E+01  0.80782147021E+01  0.00000000000E+00 0.  1.
         14    1    6    6    0    0  0.63086923463E+02 -0.48922667835E+02  0.35213183031E+03  0.36106815598E+03  0.00000000000E+00 0. -1.
         -5    1    3    3    0  503 -0.58270388674E+02 -0.70138375712E+01  0.13394736544E+03  0.14631684395E+03  0.47000000000E+01 0.  1.
         11    1    4    4    0    0  0.23508441886E+02  0.82658367069E+02  0.11800036219E+03  0.14597649798E+03  0.00000000000E+00 0. -1.
        -12    1    4    4    0    0  0.31263324481E+02  0.12868445013E+02  0.15693690139E+03  0.16053717125E+03  0.00000000000E+00 0.  1.
</event>
<event>
12    1  0.8053217E-002  0.1779745E+03  0.7818608E-02  0.1169815E+00
         21   -1    0    0  501  502  0.00000000000E+00  0.00000000000E+00  0.11600640911E+03  0.11600640911E+03  0.00000000000E+00 0. -1.
         21   -1    0    0  502  503 -0.00000000000E+00 -0.00000000000E+00 -0.56359750035E+03  0.56359750035E+03  0.00000000000E+00 0. -1.
         -6    2    1    2    0  503  0.46343757991E+02  0.47107523936E+01 -0.46791741181E+03  0.50062125511E+03  0.17177020029E+03 0.  0.
        -24    2    3    3    0    0  0.49523799799E+02 -0.55202429446E+02 -0.22290773364E+03  0.24832869791E+03  0.80494531035E+02 0.  0.
          6    2    1    2  501    0 -0.46343757991E+02 -0.47107523936E+01  0.20326320566E+02  0.17898265434E+03  0.17161496483E+03 0.  0.
         24    2    5    5    0    0  0.20295173459E+02  0.59779655376E+01 -0.34830739225E+02  0.91693553527E+02  0.82139498573E+02 0.  0.
          5    1    5    5  501    0 -0.66638931451E+02 -0.10688717931E+02  0.55157059791E+02  0.87289100813E+02  0.47000000000E+01 0. -1.
        -13    1    6    6    0    0 -0.12507996778E+01 -0.13307922075E+02  0.23246658248E+02  0.26815525531E+02  0.00000000000E+00 0.  1.
         14    1    6    6    0    0  0.21545973137E+02  0.19285887612E+02 -0.58077397473E+02  0.64878027996E+02  0.00000000000E+00 0. -1.
         -5    1    3    3    0  503 -0.31800418079E+01  0.59913181840E+02 -0.24500967817E+03  0.25229255720E+03  0.47000000000E+01 0.  1.
         11    1    4    4    0    0 -0.99463507364E+01 -0.11902411223E+02 -0.12450897178E+03  0.12547143635E+03  0.00000000000E+00 0. -1.
        -12    1    4    4    0    0  0.59470150536E+02 -0.43300018223E+02 -0.98398761859E+02  0.12285726156E+03  0.00000000000E+00 0.  1.
</event>
<event>
12    1  0.8053217E-002  0.1781170E+03  0.7818608E-02  0.1169733E+00
         21   -1    0    0  503  502  0.00000000000E+00  0.00000000000E+00  0.35560869108E+03  0.35560869108E+03  0.00000000000E+00 0. -1.
         21   -1    0    0  501  503 -0.00000000000E+00 -0.00000000000E+00 -0.19345181558E+03  0.19345181558E+03  0.00000000000E+00 0. -1.
          6    2    1    2  501    0  0.60574654891E+01 -0.43314175139E+02 -0.12058611240E+03  0.21509690354E+03  0.17266399959E+03 0.  0.
         24    2    3    3    0    0  0.15659135118E+02 -0.69745645198E+02 -0.14338818213E+03  0.17858883521E+03  0.78893204714E+02 0.  0.
         -6    2    1    2    0  502 -0.60574654891E+01  0.43314175139E+02  0.28274298790E+03  0.33396360312E+03  0.17226514549E+03 0.  0.
        -24    2    5    5    0    0  0.10695999867E+02  0.94290274811E+00  0.27672732879E+03  0.28776531874E+03  0.78202114385E+02 0.  0.
          5    1    3    3  501    0 -0.96016696293E+01  0.26431470060E+02  0.22802069732E+02  0.36508068331E+02  0.47000000000E+01 0. -1.
        -13    1    4    4    0    0  0.57043524687E+01 -0.27526328360E+02  0.69299746226E+00  0.28119719691E+02  0.00000000000E+00 0.  1.
         14    1    4    4    0    0  0.99547826498E+01 -0.42219316839E+02 -0.14408117959E+03  0.15046911552E+03  0.00000000000E+00 0. -1.
         -5    1    5    5    0  502 -0.16753465356E+02  0.42371272391E+02  0.60156591111E+01  0.46198284383E+02  0.47000000000E+01 0.  1.
         13    1    6    6    0    0 -0.33641143564E+02 -0.46011975895E+01  0.13202652865E+03  0.13632278543E+03  0.00000000000E+00 0. -1.
        -14    1    6    6    0    0  0.44337143431E+02  0.55441003376E+01  0.14470080013E+03  0.15144253331E+03  0.00000000000E+00 0.  1.
</event>
<event>
12    1  0.8053217E-002  0.1856764E+03  0.7818608E-02  0.1162947E+00
         21   -1    0    0  501  502  0.00000000000E+00  0.00000000000E+00  0.22192581397E+03  0.22192581397E+03  0.00000000000E+00 0. -1.
         21   -1    0    0  502  503 -0.00000000000E+00 -0.00000000000E+00 -0.19011941170E+03  0.19011941170E+03  0.00000000000E+00 0. -1.
         -6    2    1    2    0  503 -0.30759524873E+02  0.60885978145E+02 -0.74475467551E+02  0.20005583037E+03  0.17269189122E+03 0.  0.
        -24    2    3    3    0    0 -0.51237619745E+02  0.99621183994E+02 -0.34379049929E+02  0.14047746813E+03  0.77474679731E+02 0.  0.
          6    2    1    2  501    0  0.30759524873E+02 -0.60885978145E+02  0.10628186982E+03  0.21198939530E+03  0.17026572516E+03 0.  0.
         24    2    5    5    0    0 -0.44740075050E+02 -0.46969787934E+02  0.37467423923E+02  0.10878393080E+03  0.78881559641E+02 0.  0.
          5    1    5    5  501    0  0.75499599923E+02 -0.13916190211E+02  0.68814445892E+02  0.10320546450E+03  0.47000000000E+01 0. -1.
        -11    1    6    6    0    0 -0.33219531518E+02  0.30367545855E+01 -0.13934109784E+02  0.36151328719E+02  0.00000000000E+00 0.  1.
         12    1    6    6    0    0 -0.11520543532E+02 -0.50006542519E+02  0.51401533707E+02  0.72632602084E+02  0.00000000000E+00 0. -1.
         -5    1    3    3    0  503  0.20478094872E+02 -0.38735205849E+02 -0.40096417622E+02  0.59578362245E+02  0.47000000000E+01 0.  1.
         13    1    4    4    0    0 -0.20448718805E+02 -0.54253636953E+01 -0.21656043455E+02  0.30274888771E+02  0.00000000000E+00 0. -1.
        -14    1    4    4    0    0 -0.30788900940E+02  0.10504654769E+03 -0.12723006474E+02  0.11020257935E+03  0.00000000000E+00 0.  1.
</event>
<event>
12    1  0.8053217E-002  0.1820712E+03  0.7818608E-02  0.1166186E+00
         21   -1    0    0  501  502  0.00000000000E+00  0.00000000000E+00  0.12437792022E+04  0.12437792022E+04  0.00000000000E+00 0.  1.
         21   -1    0    0  502  503 -0.00000000000E+00 -0.00000000000E+00 -0.27278934601E+02  0.27278934601E+02  0.00000000000E+00 0.  1.
         -6    2    1    2    0  503  0.31980000693E+02 -0.45628325925E+02  0.49330590871E+03  0.52529677485E+03  0.17170124498E+03 0.  0.
        -24    2    3    3    0    0  0.41208349405E+02 -0.93695242565E+02  0.39167516247E+03  0.41239642287E+03  0.78641275177E+02 0.  0.
          6    2    1    2  501    0 -0.31980000693E+02  0.45628325925E+02  0.72319435886E+03  0.74576136193E+03  0.17333569650E+03 0.  0.
         24    2    5    5    0    0 -0.50465444916E+02  0.58815034709E+02  0.71109218599E+03  0.71960503335E+03  0.78570589891E+02 0.  0.
          5    1    5    5  501    0  0.18485444223E+02 -0.13186708784E+02  0.12102172866E+02  0.26156328579E+02  0.47000000000E+01 0. -1.
        -13    1    6    6    0    0 -0.33073774450E+02  0.73441519822E+02  0.63793520744E+03  0.64299989135E+03  0.00000000000E+00 0.  1.
         14    1    6    6    0    0 -0.17391670466E+02 -0.14626485113E+02  0.73156978558E+02  0.76605141996E+02  0.00000000000E+00 0. -1.
         -5    1    3    3    0  503 -0.92283487124E+01  0.48066916640E+02  0.10163074624E+03  0.11290035198E+03  0.47000000000E+01 0.  1.
         11    1    4    4    0    0  0.46944128508E+01 -0.20892836944E+02  0.12976915612E+02  0.25038939402E+02  0.00000000000E+00 0. -1.
        -12    1    4    4    0    0  0.36513936555E+02 -0.72802405621E+02  0.37869824685E+03  0.38735748347E+03  0.00000000000E+00 0.  1.
</event>
<event>
12    1  0.8053217E-002  0.1726977E+03  0.7818608E-02  0.1175389E+00
         21   -1    0    0  503  502  0.00000000000E+00  0.00000000000E+00  0.12196598580E+04  0.12196598580E+04  0.00000000000E+00 0. -1.
         21   -1    0    0  501  503 -0.00000000000E+00 -0.00000000000E+00 -0.24274092581E+02  0.24274092581E+02  0.00000000000E+00 0. -1.
          6    2    1    2  501    0 -0.19570677860E+02  0.32232761463E+02  0.59216113119E+03  0.61647521823E+03  0.16722717201E+03 0.  0.
         24    2    3    3    0    0 -0.75277776032E+02  0.20780185217E+02  0.34185343410E+03  0.35974486258E+03  0.80337015673E+02 0.  0.
         -6    2    1    2    0  502  0.19570677860E+02 -0.32232761463E+02  0.60322463419E+03  0.62745873231E+03  0.16853052873E+03 0.  0.
        -24    2    5    5    0    0  0.58538383748E+02 -0.78258457147E+01  0.54167291091E+03  0.55048546242E+03  0.78337192244E+02 0.  0.
          5    1    3    3  501    0  0.55707098172E+02  0.11452576246E+02  0.25030769709E+03  0.25673035565E+03  0.47000000000E+01 0. -1.
        -13    1    4    4    0    0  0.11191878811E+02  0.14432180022E+02  0.12290455973E+03  0.12425408152E+03  0.00000000000E+00 0.  1.
         14    1    4    4    0    0 -0.86469654843E+02  0.63480051953E+01  0.21894887437E+03  0.23549078106E+03  0.00000000000E+00 0. -1.
         -5    1    5    5    0  502 -0.38967705888E+02 -0.24406915748E+02  0.61551723273E+02  0.76973269882E+02  0.47000000000E+01 0.  1.
         11    1    6    6    0    0  0.58100800178E+02  0.17594213140E+02  0.47931411297E+03  0.48314312394E+03  0.00000000000E+00 0. -1.
        -12    1    6    6    0    0  0.43758357011E+00 -0.25420058855E+02  0.62358797945E+02  0.67342338486E+02  0.00000000000E+00 0.  1.
</event>
<event>
12    1  0.8053217E-002  0.2005107E+03  0.7818608E-02  0.1150778E+00
         21   -1    0    0  503  502  0.00000000000E+00  0.00000000000E+00  0.10811288975E+04  0.10811288975E+04  0.00000000000E+00 0. -1.
         21   -1    0    0  501  503 -0.00000000000E+00 -0.00000000000E+00 -0.16379126464E+03  0.16379126464E+03  0.00000000000E+00 0. -1.
          6    2    1    2  501    0 -0.22097255929E+02 -0.99983217358E+02 -0.89535921162E+02  0.21959332148E+03  0.17239377363E+03 0.  0.
         24    2    3    3    0    0 -0.32852439501E+02 -0.16988668958E+01 -0.83228799285E+02  0.12040986869E+03  0.80556405819E+02 0.  0.
         -6    2    1    2    0  502  0.22097255929E+02  0.99983217358E+02  0.10068735541E+04  0.10253268407E+04  0.16436497171E+03 0.  0.
        -24    2    5    5    0    0  0.28107451674E+02 -0.47594125231E+01  0.51225569132E+03  0.51968263663E+03  0.82773598935E+02 0.  0.
          5    1    3    3  501    0  0.10755183571E+02 -0.98284350462E+02 -0.63071218778E+01  0.99183452782E+02  0.47000000000E+01 0. -1.
        -11    1    4    4    0    0 -0.30554324739E+02  0.15252542110E+02  0.12931001169E+01  0.34174243357E+02  0.00000000000E+00 0.  1.
         12    1    4    4    0    0 -0.22981147617E+01 -0.16951409006E+02 -0.84521899401E+02  0.86235625337E+02  0.00000000000E+00 0. -1.
         -5    1    5    5    0  502 -0.60101957445E+01  0.10474262988E+03  0.49461786274E+03  0.50564420407E+03  0.47000000000E+01 0.  1.
         11    1    6    6    0    0  0.23125665567E+00  0.36572822391E+02  0.25867372145E+03  0.26124647172E+03  0.00000000000E+00 0. -1.
        -12    1    6    6    0    0  0.27876195018E+02 -0.41332234914E+02  0.25358196987E+03  0.25843616491E+03  0.00000000000E+00 0.  1.
</event>
<event>
12    1  0.8053217E-002  0.1743757E+03  0.7818608E-02  0.1174965E+00
         21   -1    0    0  503  502  0.00000000000E+00  0.00000000000E+00  0.38449898533E+03  0.38449898533E+03  0.00000000000E+00 0.  1.
         21   -1    0    0  501  503 -0.00000000000E+00 -0.00000000000E+00 -0.81163165965E+02  0.81163165965E+02  0.00000000000E+00 0.  1.
          6    2    1    2  501    0 -0.20696692822E+02  0.19067636863E+02  0.97144175749E+02  0.19960928476E+03  0.17208994105E+03 0.  0.
         24    2    3    3    0    0 -0.66255471887E+01  0.75913882097E+02  0.42236395648E+02  0.11919506306E+03  0.81343312997E+02 0.  0.
         -6    2    1    2    0  502  0.20696692822E+02 -0.19067636863E+02  0.20619164361E+03  0.26605286653E+03  0.16576249885E+03 0.  0.
        -24    2    5    5    0    0  0.42381727234E+02 -0.22489124305E+02  0.44621850233E+02  0.10293071774E+03  0.79382942881E+02 0.  0.
          5    1    3    3  501    0 -0.14071145633E+02 -0.56846245233E+02  0.54907780101E+02  0.80414221704E+02  0.47000000000E+01 0. -1.
        -11    1    4    4    0    0 -0.14068993688E+02  0.27131438526E+02 -0.22387468828E+02  0.37884697443E+02  0.00000000000E+00 0.  1.
         12    1    4    4    0    0  0.74434464989E+01  0.48782443571E+02  0.64623864476E+02  0.81310365614E+02  0.00000000000E+00 0. -1.
         -5    1    5    5    0  502 -0.21685034412E+02  0.34214874421E+01  0.16156979338E+03  0.16312214879E+03  0.47000000000E+01 0.  1.
         13    1    6    6    0    0  0.15975458295E+02 -0.34041901540E+02 -0.11935209515E+02  0.39452700216E+02  0.00000000000E+00 0. -1.
        -14    1    6    6    0    0  0.26406268940E+02  0.11552777235E+02  0.56557059748E+02  0.63478017522E+02  0.00000000000E+00 0.  1.
</event>
<event>
12    1  0.8053217E-002  0.2401122E+03  0.7818608E-02  0.1119935E+00
         21   -1    0    0  501  502  0.00000000000E+00  0.00000000000E+00  0.13020166427E+04  0.13020166427E+04  0.00000000000E+00 0.  1.
         21   -1    0    0  502  503 -0.00000000000E+00 -0.00000000000E+00 -0.50438985642E+02  0.50438985642E+02  0.00000000000E+00 0.  1.
         -6    2    1    2    0  503  0.14409721574E+03 -0.86844744052E+02  0.86513824516E+03  0.89749486866E+03  0.16948993739E+03 0.  0.
        -24    2    3    3    0    0  0.31192148314E+02 -0.90490292913E+02  0.39495571038E+03  0.41390976726E+03  0.78548323009E+02 0.  0.
          6    2    1    2  501    0 -0.14409721574E+03  0.86844744052E+02  0.38643941194E+03  0.45496075973E+03  0.17131216138E+03 0.  0.
         24    2    5    5    0    0 -0.75634063507E+02  0.10571168280E+03  0.15747410703E+03  0.21518927384E+03  0.67918022262E+02 0.  0.
          5    1    5    5  501    0 -0.68463152237E+02 -0.18866938747E+02  0.22896530491E+03  0.23977148589E+03  0.47000000000E+01 0. -1.
        -13    1    6    6    0    0 -0.76470245628E+02  0.63982575375E+02  0.13486923487E+03  0.16772351932E+03  0.00000000000E+00 0.  1.
         14    1    6    6    0    0  0.83618212086E+00  0.41729107424E+02  0.22604872161E+02  0.47465754522E+02  0.00000000000E+00 0. -1.
         -5    1    3    3    0  503  0.11290506743E+03  0.36455488610E+01  0.47018253478E+03  0.48358510140E+03  0.47000000000E+01 0.  1.
         13    1    4    4    0    0 -0.81975642067E+01 -0.46871116629E+02  0.28768818724E+03  0.29159663014E+03  0.00000000000E+00 0. -1.
        -14    1    4    4    0    0  0.39389712521E+02 -0.43619176284E+02  0.10726752314E+03  0.12231313712E+03  0.00000000000E+00 0.  1.
</event>
<event>
12    1  0.8053217E-002  0.1842008E+03  0.7818608E-02  0.1164522E+00
         21   -1    0    0  503  502  0.00000000000E+00  0.00000000000E+00  0.36435934577E+03  0.36435934577E+03  0.00000000000E+00 0. -1.
         21   -1    0    0  501  503 -0.00000000000E+00 -0.00000000000E+00 -0.11747128923E+03  0.11747128923E+03  0.00000000000E+00 0. -1.
          6    2    1    2  501    0  0.56208259486E+02  0.16466899816E+02  0.11158854509E+02  0.18453850839E+03  0.17464081373E+03 0.  0.
         24    2    3    3    0    0 -0.31632232722E+02 -0.66126232040E+01 -0.22442384652E+02  0.87586201931E+02  0.78251883091E+02 0.  0.
         -6    2    1    2    0  502 -0.56208259486E+02 -0.16466899816E+02  0.23572920203E+03  0.29729212661E+03  0.17141710717E+03 0.  0.
        -24    2    5    5    0    0  0.35222635198E+02 -0.16205004125E+02  0.13443090048E+03  0.16075234124E+03  0.79160672189E+02 0.  0.
          5    1    3    3  501    0  0.87840492208E+02  0.23079523020E+02  0.33601239161E+02  0.96952306457E+02  0.47000000000E+01 0. -1.
        -13    1    4    4    0    0 -0.34960950100E+02 -0.65524352074E+01  0.22781601017E+02  0.42239836457E+02  0.00000000000E+00 0.  1.
         14    1    4    4    0    0  0.33287173781E+01 -0.60187996664E-01 -0.45223985668E+02  0.45346365474E+02  0.00000000000E+00 0. -1.
         -5    1    5    5    0  502 -0.91430894684E+02 -0.26189569054E+00  0.10129830155E+03  0.13653978537E+03  0.47000000000E+01 0.  1.
         13    1    6    6    0    0 -0.16287403618E+02  0.14915007911E+02  0.66132454445E+02  0.69722582486E+02  0.00000000000E+00 0. -1.
        -14    1    6    6    0    0  0.51510038816E+02 -0.31120012037E+02  0.68298446031E+02  0.91029758751E+02  0.00000000000E+00 0.  1.
</event>
<event>
12    1  0.8053217E-002  0.1983846E+03  0.7818608E-02  0.1151987E+00
         21   -1    0    0  501  502  0.00000000000E+00  0.00000000000E+00  0.23950876666E+03  0.23950876666E+03  0.00000000000E+00 0.  1.
         21   -1    0    0  502  503 -0.00000000000E+00 -0.00000000000E+00 -0.16121693984E+03  0.16121693984E+03  0.00000000000E+00 0. -1.
         -6    2    1    2    0  503  0.96399918369E+02  0.11254443243E+02  0.47451268592E+02  0.20398061355E+03  0.17302271833E+03 0.  0.
        -24    2    3    3    0    0  0.84560406019E+02 -0.56184353963E+02  0.37869289636E+02  0.13468364578E+03  0.79990358466E+02 0.  0.
          6    2    1    2  501    0 -0.96399918369E+02 -0.11254443243E+02  0.30840558220E+02  0.19674509295E+03  0.16833860167E+03 0.  0.
         24    2    5    5    0    0 -0.68748056157E+01  0.16519720938E+02  0.57786056717E+02  0.99101353267E+02  0.78496405881E+02 0.  0.
          5    1    5    5  501    0 -0.89525112753E+02 -0.27774164180E+02 -0.26945498497E+02  0.97643739679E+02  0.47000000000E+01 0. -1.
        -13    1    6    6    0    0 -0.11577982846E+02  0.43185735495E+02  0.12649496344E+02  0.46465763684E+02  0.00000000000E+00 0.  1.
         14    1    6    6    0    0  0.47031772299E+01 -0.26666014557E+02  0.45136560373E+02  0.52635589583E+02  0.00000000000E+00 0. -1.
         -5    1    3    3    0  503  0.11839512349E+02  0.67438797206E+02  0.95819789564E+01  0.69296967769E+02  0.47000000000E+01 0.  1.
         13    1    4    4    0    0 -0.13855402250E+02 -0.62157323719E+01  0.16195253509E+02  0.22201210252E+02  0.00000000000E+00 0. -1.
        -14    1    4    4    0    0  0.98415808269E+02 -0.49968621591E+02  0.21674036127E+02  0.11248243553E+03  0.00000000000E+00 0.  1.
</event>
<event>
12    1  0.8053217E-002  0.2643187E+03  0.7818608E-02  0.1105016E+00
         21   -1    0    0  503  502  0.00000000000E+00  0.00000000000E+00  0.41097368690E+03  0.41097368690E+03  0.00000000000E+00 0.  1.
         21   -1    0    0  501  503 -0.00000000000E+00 -0.00000000000E+00 -0.40191809053E+03  0.40191809053E+03  0.00000000000E+00 0. -1.
          6    2    1    2  501    0  0.24289794898E+01 -0.19790272970E+03 -0.30549739063E+03  0.40202929499E+03  0.17066782938E+03 0.  0.
         24    2    3    3    0    0  0.63875949409E+01 -0.15263180699E+03 -0.12425303603E+03  0.21511558990E+03  0.86594631353E+02 0.  0.
         -6    2    1    2    0  502 -0.24289794898E+01  0.19790272970E+03  0.31455298700E+03  0.41086248244E+03  0.17519419933E+03 0.  0.
        -24    2    5    5    0    0 -0.48063906861E+02  0.18476522535E+03  0.29082205462E+03  0.35756719401E+03  0.82634757444E+02 0.  0.
          5    1    3    3  501    0 -0.39586154511E+01 -0.45270922713E+02 -0.18124435460E+03  0.18691370510E+03  0.47000000000E+01 0. -1.
        -13    1    4    4    0    0  0.81021448438E+01 -0.33649011977E+02  0.96975308601E+01  0.35943606704E+02  0.00000000000E+00 0.  1.
         14    1    4    4    0    0 -0.17145499030E+01 -0.11898279501E+03 -0.13395056689E+03  0.17917198319E+03  0.00000000000E+00 0. -1.
         -5    1    5    5    0  502  0.45634927371E+02  0.13137504350E+02  0.23730932379E+02  0.53295288424E+02  0.47000000000E+01 0.  1.
         13    1    6    6    0    0 -0.11412630297E+02  0.30237939565E+01 -0.98114903268E+00  0.11847114147E+02  0.00000000000E+00 0. -1.
        -14    1    6    6    0    0 -0.36651276563E+02  0.18174143140E+03  0.29180320365E+03  0.34572007986E+03  0.00000000000E+00 0.  1.
</event>
<event>
12    1  0.8053217E-002  0.2567148E+03  0.7818608E-02  0.1109279E+00
         21   -1    0    0  501  502  0.00000000000E+00  0.00000000000E+00  0.63127619214E+03  0.63127619214E+03  0.00000000000E+00 0. -1.
         21   -1    0    0  502  503 -0.00000000000E+00 -0.00000000000E+00 -0.12434664337E+03  0.12434664337E+03  0.00000000000E+00 0. -1.
         -6    2    1    2    0  503 -0.13808504626E+03 -0.12974804787E+03  0.40664950850E+03  0.48090158358E+03  0.17320645023E+03 0.  0.
        -24    2    3    3    0    0 -0.14833621832E+03 -0.58016016800E+02  0.33326839210E+03  0.37766666190E+03  0.78707016638E+02 0.  0.
          6    2    1    2  501    0  0.13808504626E+03  0.12974804787E+03  0.10028004028E+03  0.27472125193E+03  0.17179535459E+03 0.  0.
         24    2    5    5    0    0  0.14196466064E+03  0.85155883032E+02  0.12478768234E+03  0.22347452431E+03  0.83447037479E+02 0.  0.
          5    1    5    5  501    0 -0.38796143791E+01  0.44592164837E+02 -0.24507642065E+02  0.51246727624E+02  0.47000000000E+01 0. -1.
        -13    1    6    6    0    0  0.25043769042E+02 -0.14451638090E+02  0.65711118638E+01  0.29651639456E+02  0.00000000000E+00 0.  1.
         14    1    6    6    0    0  0.11692089160E+03  0.99607521121E+02  0.11821657048E+03  0.19382288485E+03  0.00000000000E+00 0. -1.
         -5    1    3    3    0  503  0.10251172061E+02 -0.71732031069E+02  0.73381116396E+02  0.10323492168E+03  0.47000000000E+01 0.  1.
         11    1    4    4    0    0 -0.11626433631E+03 -0.67299782693E+02  0.30726026897E+03  0.33534389742E+03  0.00000000000E+00 0. -1.
        -12    1    4    4    0    0 -0.32071882006E+02  0.92837658936E+01  0.26008123129E+02  0.42322764480E+02  0.00000000000E+00 0.  1.
</event>
<event>
12    1  0.8053217E-002  0.2926656E+03  0.7818608E-02  0.1089146E+00
         21   -1    0    0  501  502  0.00000000000E+00  0.00000000000E+00  0.33559740799E+03  0.33559740799E+03  0.00000000000E+00 0. -1.
         21   -1    0    0  502  503 -0.00000000000E+00 -0.00000000000E+00 -0.43457811593E+03  0.43457811593E+03  0.00000000000E+00 0.  1.
         -6    2    1    2    0  503  0.16190390574E+03 -0.17253100125E+03 -0.29778545449E+03  0.41752761323E+03  0.17225942593E+03 0.  0.
        -24    2    3    3    0    0  0.95619130214E+02 -0.16766912770E+03 -0.15379590160E+03  0.25886951977E+03  0.78129984447E+02 0.  0.
          6    2    1    2  501    0 -0.16190390574E+03  0.17253100125E+03  0.19880474655E+03  0.35264791069E+03  0.16987466136E+03 0.  0.
         24    2    5    5    0    0 -0.12410008570E+03  0.98045040747E+02  0.55337435963E+02  0.18656887429E+03  0.82049081343E+02 0.  0.
          5    1    5    5  501    0 -0.37803820034E+02  0.74485960506E+02  0.14346731059E+03  0.16607903639E+03  0.47000000000E+01 0. -1.
        -11    1    6    6    0    0 -0.12654383640E+03  0.10813915672E+03  0.57216334017E+02  0.17601456936E+03  0.00000000000E+00 0.  1.
         12    1    6    6    0    0  0.24437506977E+01 -0.10094115975E+02 -0.18788980538E+01  0.10554304936E+02  0.00000000000E+00 0. -1.
         -5    1    3    3    0  503  0.66284775522E+02 -0.48618735487E+01 -0.14398955288E+03  0.15865809346E+03  0.47000000000E+01 0.  1.
         13    1    4    4    0    0  0.11232165067E+02 -0.90440912286E+02 -0.47759161741E+02  0.10289148496E+03  0.00000000000E+00 0. -1.
        -14    1    4    4    0    0  0.84386965147E+02 -0.77228215419E+02 -0.10603673986E+03  0.15597803481E+03  0.00000000000E+00 0.  1.
</event>
<event>
12    1  0.8053217E-002  0.1925875E+03  0.7818608E-02  0.1156279E+00
         21   -1    0    0  503  502  0.00000000000E+00  0.00000000000E+00  0.39198353872E+03  0.39198353872E+03  0.00000000000E+00 0. -1.
         21   -1    0    0  501  503 -0.00000000000E+00 -0.00000000000E+00 -0.97931313396E+02  0.97931313396E+02  0.00000000000E+00 0. -1.
          6    2    1    2  501    0 -0.68244472424E+02  0.50351260261E+02  0.99846549442E+02  0.21640838086E+03  0.17225184017E+03 0.  0.
         24    2    3    3    0    0 -0.91224844623E+01  0.34261233703E+02 -0.14516449206E+02  0.86580479868E+02  0.77642773901E+02 0.  0.
         -6    2    1    2    0  502  0.68244472424E+02 -0.50351260261E+02  0.19420567588E+03  0.27350647126E+03  0.17290861126E+03 0.  0.
        -24    2    5    5    0    0 -0.12346858074E+02 -0.23360036809E+02  0.22280324557E+02  0.81663032166E+02  0.73988524354E+02 0.  0.
          5    1    3    3  501    0 -0.59121987961E+02  0.16090026558E+02  0.11436299865E+03  0.12982790099E+03  0.47000000000E+01 0. -1.
        -13    1    4    4    0    0 -0.21764830420E+02 -0.15247373141E+02  0.11832660937E+02  0.29089553034E+02  0.00000000000E+00 0.  1.
         14    1    4    4    0    0  0.12642345958E+02  0.49508606844E+02 -0.26349110143E+02  0.57490926834E+02  0.00000000000E+00 0. -1.
         -5    1    5    5    0  502  0.80591330498E+02 -0.26991223453E+02  0.17192535132E+03  0.19184343909E+03  0.47000000000E+01 0.  1.
         11    1    6    6    0    0 -0.26636534892E+02 -0.37866875127E+01  0.42366037961E+02  0.50186902334E+02  0.00000000000E+00 0. -1.
        -12    1    6    6    0    0  0.14289676817E+02 -0.19573349296E+02 -0.20085713405E+02  0.31476129832E+02  0.00000000000E+00 0.  1.
</event>
<event>
12    1  0.8053217E-002  0.2475940E+03  0.7818608E-02  0.1115042E+00
         21   -1    0    0  503  502  0.00000000000E+00  0.00000000000E+00  0.21832452873E+03  0.21832452873E+03  0.00000000000E+00 0.  1.
         21   -1    0    0  501  503 -0.00000000000E+00 -0.00000000000E+00 -0.33445802074E+03  0.33445802074E+03  0.00000000000E+00 0.  1.
          6    2    1    2  501    0  0.46804682555E+02 -0.17093705727E+03 -0.17015811248E+03  0.29936302617E+03  0.17103883285E+03 0.  0.
         24    2    3    3    0    0 -0.12523003255E+02 -0.16748034142E+03 -0.13817755328E+03  0.23171267987E+03  0.79945227566E+02 0.  0.
         -6    2    1    2    0  502 -0.46804682555E+02  0.17093705727E+03  0.54024620465E+02  0.25341952330E+03  0.17289487938E+03 0.  0.
        -24    2    5    5    0    0 -0.69634330490E+02  0.17690862394E+03  0.16466895492E+02  0.20881543001E+03  0.84776906969E+02 0.  0.
          5    1    3    3  501    0  0.59327685810E+02 -0.34567158448E+01 -0.31980559201E+02  0.67650346302E+02  0.47000000000E+01 0. -1.
        -11    1    4    4    0    0  0.26340568145E+02 -0.45147453248E+02 -0.66880273475E+02  0.84882795931E+02  0.00000000000E+00 0.  1.
         12    1    4    4    0    0 -0.38863571400E+02 -0.12233288817E+03 -0.71297279801E+02  0.14682988394E+03  0.00000000000E+00 0. -1.
         -5    1    5    5    0  502  0.22829647934E+02 -0.59715666706E+01  0.37557724973E+02  0.44604093293E+02  0.47000000000E+01 0.  1.
         13    1    6    6    0    0 -0.49440059087E+02  0.25985271164E+02  0.63182322650E+01  0.56209196925E+02  0.00000000000E+00 0. -1.
        -14    1    6    6    0    0 -0.20194271403E+02  0.15092335277E+03  0.10148663227E+02  0.15260623308E+03  0.00000000000E+00 0.  1.
</event>
<event>
12    1  0.8053217E-002  0.1844184E+03  0.7818608E-02  0.1163626E+00
         21   -1    0    0  503  502  0.00000000000E+00  0.00000000000E+00  0.18881809134E+03  0.18881809134E+03  0.00000000000E+00 0.  1.
         21   -1    0    0  501  503 -0.00000000000E+00 -0.00000000000E+00 -0.19847256081E+03  0.19847256081E+03  0.00000000000E+00 0.  1.
          6    2    1    2  501    0  0.49142370770E+02 -0.42367534185E+02 -0.63923515057E+02  0.19505306365E+03  0.17248043746E+03 0.  0.
         24    2    3    3    0    0  0.84076248255E+02 -0.68988717910E+02 -0.68292406839E+02  0.15066567317E+03  0.78791075122E+02 0.  0.
         -6    2    1    2    0  502 -0.49142370770E+02  0.42367534185E+02  0.54269045582E+02  0.19223758849E+03  0.17262728800E+03 0.  0.
        -24    2    5    5    0    0 -0.94081930493E+02  0.41204990933E+02  0.42859571096E+02  0.14562019214E+03  0.93909725803E+02 0.  0.
          5    1    3    3  501    0 -0.34933877485E+02  0.26621183725E+02  0.43688917824E+01  0.44387390490E+02  0.47000000000E+01 0. -1.
        -13    1    4    4    0    0  0.42521423163E+02 -0.53919385435E+02 -0.79513552008E+02  0.10506082289E+03  0.00000000000E+00 0.  1.
         14    1    4    4    0    0  0.41554825092E+02 -0.15069332475E+02  0.11221145169E+02  0.45604850275E+02  0.00000000000E+00 0. -1.
         -5    1    5    5    0  502  0.44939559723E+02  0.11625432522E+01  0.11409474486E+02  0.46617396356E+02  0.47000000000E+01 0.  1.
         13    1    6    6    0    0 -0.14864321027E+02  0.27810489204E+02 -0.25168236154E+02  0.40346145547E+02  0.00000000000E+00 0. -1.
        -14    1    6    6    0    0 -0.79217609467E+02  0.13394501729E+02  0.68027807250E+02  0.10527404659E+03  0.00000000000E+00 0.  1.
</event>
<event>
12    1  0.8053217E-002  0.1904301E+03  0.7818608E-02  0.1158377E+00
         21   -1    0    0  503  502  0.00000000000E+00  0.00000000000E+00  0.27189126445E+03  0.27189126445E+03  0.00000000000E+00 0.  1.
         21   -1    0    0  501  503 -0.00000000000E+00 -0.00000000000E+00 -0.14099243094E+03  0.14099243094E+03  0.00000000000E+00 0. -1.
          6    2    1    2  501    0 -0.36905963831E+02  0.70708652007E+02  0.14380413693E+02  0.18963461451E+03  0.17144307243E+03 0.  0.
         24    2    3    3    0    0 -0.32958648297E+02  0.10576752448E+03 -0.23033251939E+02  0.13799569299E+03  0.78988852737E+02 0.  0.
         -6    2    1    2    0  502  0.36905963831E+02 -0.70708652007E+02  0.11651841982E+03  0.22324908089E+03  0.17292150336E+03 0.  0.
        -24    2    5    5    0    0  0.24475435302E+02  0.25702786445E+02  0.26091972574E+02  0.90400611327E+02  0.78941746441E+02 0.  0.
          5    1    3    3  501    0 -0.39473155336E+01 -0.35058872475E+02  0.37413665633E+02  0.51638921515E+02  0.47000000000E+01 0. -1.
        -11    1    4    4    0    0 -0.34969004405E+02  0.10723459978E+03  0.20286854193E+01  0.11281048809E+03  0.00000000000E+00 0.  1.
         12    1    4    4    0    0  0.20103561078E+01 -0.14670752990E+01 -0.25061937358E+02  0.25185204898E+02  0.00000000000E+00 0. -1.
         -5    1    5    5    0  502  0.12430528529E+02 -0.96411438452E+02  0.90426447243E+02  0.13284846956E+03  0.47000000000E+01 0.  1.
         11    1    6    6    0    0 -0.28242787163E+02  0.82410418733E+00  0.89644125790E+01  0.29642787780E+02  0.00000000000E+00 0. -1.
        -12    1    6    6    0    0  0.52718222465E+02  0.24878682258E+02  0.17127559995E+02  0.60757823547E+02  0.00000000000E+00 0.  1.
</event>
<event>
12    1  0.8053217E-002  0.1822959E+03  0.7818608E-02  0.1165686E+00
         21   -1    0    0  503  502  0.00000000000E+00  0.00000000000E+00  0.71063802994E+02  0.71063802994E+02  0.00000000000E+00 0. -1.
         21   -1    0    0  501  503 -0.00000000000E+00 -0.00000000000E+00 -0.89317893039E+03  0.89317893039E+03  0.00000000000E+00 0. -1.
          6    2    1    2  501    0 -0.37991156646E+02  0.47806905432E+02 -0.74441760061E+03  0.76641330311E+03  0.17176425383E+03 0.  0.
         24    2    3    3    0    0 -0.46108156688E+01 -0.16821326238E+02 -0.18695188295E+03  0.20420233571E+03  0.80270609408E+02 0.  0.
         -6    2    1    2    0  502  0.37991156646E+02 -0.47806905432E+02 -0.77697526783E+02  0.19782943027E+03  0.17137896494E+03 0.  0.
        -24    2    5    5    0    0  0.32048995375E+02 -0.87724427895E+02 -0.96270820954E+02  0.15315533110E+03  0.73930853671E+02 0.  0.
          5    1    3    3  501    0 -0.33380340978E+02  0.64628231671E+02 -0.55746571766E+03  0.56221096740E+03  0.47000000000E+01 0. -1.
        -13    1    4    4    0    0 -0.27654081322E+01  0.28626944375E+02 -0.11904090310E+03  0.12246585662E+03  0.00000000000E+00 0.  1.
         14    1    4    4    0    0 -0.18454075366E+01 -0.45448270613E+02 -0.67910979850E+02  0.81736479095E+02  0.00000000000E+00 0. -1.
         -5    1    5    5    0  502  0.59421612712E+01  0.39917522463E+02  0.18573294171E+02  0.44674099168E+02  0.47000000000E+01 0.  1.
         11    1    6    6    0    0 -0.23846066701E+01 -0.68703497625E+02 -0.27727861835E+02  0.74126184691E+02  0.00000000000E+00 0. -1.
        -12    1    6    6    0    0  0.34433602045E+02 -0.19020930270E+02 -0.68542959119E+02  0.79029146414E+02  0.00000000000E+00 0.  1.
</event>
<event>
12    1  0.8053217E-002  0.1815150E+03  0.7818608E-02  0.1166487E+00
         21   -1    0    0  501  502  0.00000000000E+00  0.00000000000E+00  0.15982980342E+03  0.15982980342E+03  0.00000000000E+00 0.  1.
         21   -1    0    0  502  503 -0.00000000000E+00 -0.00000000000E+00 -0.26909383057E+03  0.26909383057E+03  0.00000000000E+00 0.  1.
         -6    2    1    2    0  503  0.22243848711E+02 -0.55033294513E+02 -0.15884618647E+03  0.24075860450E+03  0.17090682367E+03 0.  0.
        -24    2    3    3    0    0 -0.49530210622E+02 -0.34770857248E+02 -0.61020536132E+02  0.11765689931E+03  0.80357861148E+02 0.  0.
          6    2    1    2  501    0 -0.22243848711E+02  0.55033294513E+02  0.49582159315E+02  0.18816502949E+03  0.17153493956E+03 0.  0.
         24    2    5    5    0    0 -0.56026669451E+02  0.14150736049E+01  0.71373189500E+02  0.12098518439E+03  0.80014327088E+02 0.  0.
          5    1    5    5  501    0  0.33782820740E+02  0.53618220908E+02 -0.21791030184E+02  0.67179845095E+02  0.47000000000E+01 0. -1.
        -13    1    6    6    0    0 -0.45429150116E+02 -0.15286045773E+02  0.10608373531E+01  0.47943677910E+02  0.00000000000E+00 0.  1.
         14    1    6    6    0    0 -0.10597519336E+02  0.16701119378E+02  0.70312352146E+02  0.73041506480E+02  0.00000000000E+00 0. -1.
         -5    1    3    3    0  503  0.71774059333E+02 -0.20262437265E+02 -0.97825650335E+02  0.12310170519E+03  0.47000000000E+01 0.  1.
         11    1    4    4    0    0 -0.12888706029E+02 -0.42806994681E+02 -0.66104030842E+02  0.79801631752E+02  0.00000000000E+00 0. -1.
        -12    1    4    4    0    0 -0.36641504593E+02  0.80361374330E+01  0.50834947104E+01  0.37855267561E+02  0.00000000000E+00 0.  1.
</event>
<event>
12    1  0.8053217E-002  0.1877267E+03  0.7818608E-02  0.1160576E+00
         21   -1    0    0  503  502  0.00000000000E+00  0.00000000000E+00  0.45516772323E+02  0.45516772323E+02  0.00000000000E+00 0.  1.
         21   -1    0    0  501  503 -0.00000000000E+00 -0.00000000000E+00 -0.12891735278E+04  0.12891735278E+04  0.00000000000E+00 0.  1.
          6    2    1    2  501    0 -0.29004241014E+02 -0.68299379512E+02 -0.10441538259E+04  0.10608951614E+04  0.17243920683E+03 0.  0.
         24    2    3    3    0    0  0.44443118456E+02 -0.43221919292E+01 -0.53841083900E+03  0.54583627742E+03  0.77827617685E+02 0.  0.
         -6    2    1    2    0  502  0.29004241014E+02  0.68299379512E+02 -0.19950292951E+03  0.27379513868E+03  0.17221006893E+03 0.  0.
        -24    2    5    5    0    0  0.38097089986E+02 -0.24344552630E+02 -0.83710708581E+02  0.12514956527E+03  0.81307351752E+02 0.  0.
          5    1    3    3  501    0 -0.73447359470E+02 -0.63977187583E+02 -0.50574298693E+03  0.51505888398E+03  0.47000000000E+01 0. -1.
        -11    1    4    4    0    0  0.13192693712E+02 -0.39573308789E+02 -0.29176352499E+03  0.29473046746E+03  0.00000000000E+00 0.  1.
         12    1    4    4    0    0  0.31250424744E+02  0.35251116860E+02 -0.24664731401E+03  0.25110580996E+03  0.00000000000E+00 0. -1.
         -5    1    5    5    0  502 -0.90928489726E+01  0.92643932142E+02 -0.11579222092E+03  0.14864557340E+03  0.47000000000E+01 0.  1.
         11    1    6    6    0    0 -0.91062286229E+01 -0.27799364971E+02 -0.70011751172E+02  0.75877357589E+02  0.00000000000E+00 0. -1.
        -12    1    6    6    0    0  0.47203318609E+02  0.34548123408E+01 -0.13698957408E+02  0.49272207685E+02  0.00000000000E+00 0.  1.
</event>
<event>
12    1  0.8053217E-002  0.1995179E+03  0.7818608E-02  0.1150153E+00
         21   -1    0    0  503  502  0.00000000000E+00  0.00000000000E+00  0.75648111753E+03  0.75648111753E+03  0.00000000000E+00 0.  1.
         21   -1    0    0  501  503 -0.00000000000E+00 -0.00000000000E+00 -0.85866094951E+02  0.85866094951E+02  0.00000000000E+00 0.  1.
          6    2    1    2  501    0  0.75189336828E+02  0.65444678340E+02  0.73226114452E+02  0.21253107817E+03  0.17283215283E+03 0.  0.
         24    2    3    3    0    0 -0.39751760188E+01 -0.14304703509E+02  0.58259647605E+02  0.99071529739E+02  0.78743602273E+02 0.  0.
         -6    2    1    2    0  502 -0.75189336828E+02 -0.65444678340E+02  0.59738890812E+03  0.62981613431E+03  0.17279587145E+03 0.  0.
        -24    2    5    5    0    0  0.26790091779E+02 -0.40798910145E+02  0.25883074791E+03  0.27534337711E+03  0.80239386640E+02 0.  0.
          5    1    3    3  501    0  0.79164512847E+02  0.79749381849E+02  0.14966466846E+02  0.11345954843E+03  0.47000000000E+01 0. -1.
        -13    1    4    4    0    0 -0.24197015042E+02  0.31338297703E+00 -0.10158915316E+02  0.26244948204E+02  0.00000000000E+00 0.  1.
         14    1    4    4    0    0  0.20221839023E+02 -0.14618086486E+02  0.68418562921E+02  0.72826581536E+02  0.00000000000E+00 0. -1.
         -5    1    5    5    0  502 -0.10197942861E+03 -0.24645768195E+02  0.33855816022E+03  0.35447275720E+03  0.47000000000E+01 0.  1.
         11    1    6    6    0    0  0.18019610224E+02 -0.11724797356E+02  0.84048201970E+01  0.23082855720E+02  0.00000000000E+00 0. -1.
        -12    1    6    6    0    0  0.87704815554E+01 -0.29074112789E+02  0.25042592771E+03  0.25226052139E+03  0.00000000000E+00 0.  1.
</event>
<event>
12    1  0.8053217E-002  0.1923410E+03  0.7818608E-02  0.1156539E+00
         21   -1    0    0  503  502  0.00000000000E+00  0.00000000000E+00  0.10477949418E+03  0.10477949418E+03  0.00000000000E+00 0. -1.
         21   -1    0    0  501  503 -0.00000000000E+00 -0.00000000000E+00 -0.60181678979E+03  0.60181678979E+03  0.00000000000E+00 0.  1.
          6    2    1    2  501    0  0.38747009837E+02 -0.77162103128E+02 -0.47659227949E+03  0.51394089913E+03  0.17187124831E+03 0.  0.
         24    2    3    3    0    0  0.68340459761E+02 -0.10686022454E+03 -0.32877639857E+03  0.36022240530E+03  0.74677540077E+02 0.  0.
         -6    2    1    2    0  502 -0.38747009837E+02  0.77162103128E+02 -0.20445016111E+02  0.19265538483E+03  0.17100519785E+03 0.  0.
        -24    2    5    5    0    0  0.28015347400E+02  0.53609567296E+02 -0.54514204856E+02  0.11394875290E+03  0.79709938912E+02 0.  0.
          5    1    3    3  501    0 -0.29593449924E+02  0.29698121408E+02 -0.14781588092E+03  0.15371849383E+03  0.47000000000E+01 0. -1.
        -11    1    4    4    0    0  0.65079480562E+02 -0.11212057074E+03 -0.32940911548E+03  0.35400102618E+03  0.00000000000E+00 0.  1.
         12    1    4    4    0    0  0.32609791991E+01  0.52603462007E+01  0.63271690743E+00  0.62213791215E+01  0.00000000000E+00 0. -1.
         -5    1    5    5    0  502 -0.66762357237E+02  0.23552535833E+02  0.34069188745E+02  0.78706631930E+02  0.47000000000E+01 0.  1.
         13    1    6    6    0    0  0.68440639391E+01  0.37208704144E+02  0.14036217321E+02  0.40352748010E+02  0.00000000000E+00 0. -1.
        -14    1    6    6    0    0  0.21171283461E+02  0.16400863151E+02 -0.68550422177E+02  0.73596004893E+02  0.00000000000E+00 0.  1.
</event>
<event>
12    1  0.8053217E-002  0.2213263E+03  0.7818608E-02  0.1132983E+00
         21   -1    0    0  503  502  0.00000000000E+00  0.00000000000E+00  0.28146935732E+03  0.28146935732E+03  0.00000000000E+00 0.  1.
         21   -1    0    0  501  503 -0.00000000000E+00 -0.00000000000E+00 -0.17448373836E+03  0.17448373836E+03  0.00000000000E+00 0. -1.
          6    2    1    2  501    0 -0.13761301805E+03 -0.18872004313E+02  0.37901200369E+02  0.22409538973E+03  0.17172287973E+03 0.  0.
         24    2    3    3    0    0 -0.66920272866E+02 -0.76260610065E+02  0.12034186964E+02  0.12932140239E+03  0.79279252602E+02 0.  0.
         -6    2    1    2    0  502  0.13761301805E+03  0.18872004313E+02  0.69084418586E+02  0.23185770595E+03  0.17231321375E+03 0.  0.
        -24    2    5    5    0    0  0.10447920099E+02  0.53661310354E+01 -0.36636585647E+01  0.84658033807E+02  0.83759213805E+02 0.  0.
          5    1    3    3  501    0 -0.70692745186E+02  0.57388605752E+02  0.25867013405E+02  0.94773987331E+02  0.47000000000E+01 0. -1.
        -13    1    4    4    0    0  0.69394352704E+01 -0.46148015084E+02  0.16335159558E+02  0.49443224974E+02  0.00000000000E+00 0.  1.
         14    1    4    4    0    0 -0.73859708137E+02 -0.30112594981E+02 -0.43009725940E+01  0.79878177419E+02  0.00000000000E+00 0. -1.
         -5    1    5    5    0  502  0.12716509795E+03  0.13505873278E+02  0.72748077151E+02  0.14719967215E+03  0.47000000000E+01 0.  1.
         11    1    6    6    0    0  0.38696963659E+02 -0.22526976189E+02 -0.40272771828E+01  0.44957075240E+02  0.00000000000E+00 0. -1.
        -12    1    6    6    0    0 -0.28249043559E+02  0.27893107224E+02  0.36361861815E+00  0.39700958567E+02  0.00000000000E+00 0.  1.
</event>
<event>
12    1  0.8053217E-002  0.1919074E+03  0.7818608E-02  0.1156771E+00
         21   -1    0    0  501  502  0.00000000000E+00  0.00000000000E+00  0.11025075611E+03  0.11025075611E+03  0.00000000000E+00 0. -1.
         21   -1    0    0  502  503 -0.00000000000E+00 -0.00000000000E+00 -0.55141455895E+03  0.55141455895E+03  0.00000000000E+00 0. -1.
         -6    2    1    2    0  503  0.84634055320E+02  0.55206885623E+00 -0.42840009636E+03  0.46941994563E+03  0.17223592742E+03 0.  0.
        -24    2    3    3    0    0  0.75593002500E+02  0.54287429130E+02 -0.37578509710E+03  0.39352753674E+03  0.70626170672E+02 0.  0.
          6    2    1    2  501    0 -0.84634055320E+02 -0.55206885623E+00 -0.12763706467E+02  0.19224536943E+03  0.17213989010E+03 0.  0.
         24    2    5    5    0    0  0.47308372825E+01  0.20070021728E+02  0.34583619473E+02  0.88924442583E+02  0.79286462649E+02 0.  0.
          5    1    5    5  501    0 -0.89364892603E+02 -0.20622090584E+02 -0.47347325940E+02  0.10332092684E+03  0.47000000000E+01 0. -1.
        -11    1    6    6    0    0  0.36731941986E+02 -0.98919986133E+01  0.17539594517E+02  0.41889432730E+02  0.00000000000E+00 0.  1.
         12    1    6    6    0    0 -0.32001104704E+02  0.29962020341E+02  0.17044024956E+02  0.47035009853E+02  0.00000000000E+00 0. -1.
         -5    1    3    3    0  503  0.90410528201E+01 -0.53735360274E+02 -0.52614999266E+02  0.75892408894E+02  0.47000000000E+01 0.  1.
         13    1    4    4    0    0  0.13543901589E+02  0.52994873784E+02 -0.18286398898E+03  0.19086941186E+03  0.00000000000E+00 0. -1.
        -14    1    4    4    0    0  0.62049100912E+02  0.12925553460E+01 -0.19292110812E+03  0.20265812488E+03  0.00000000000E+00 0.  1.
</event>
<event>
12    1  0.8053217E-002  0.2113498E+03  0.7818608E-02  0.1140692E+00
         21   -1    0    0  503  502  0.00000000000E+00  0.00000000000E+00  0.70995034032E+03  0.70995034032E+03  0.00000000000E+00 0.  1.
         21   -1    0    0  501  503 -0.00000000000E+00 -0.00000000000E+00 -0.80824550205E+02  0.80824550205E+02  0.00000000000E+00 0.  1.
          6    2    1    2  501    0 -0.37870230107E+02  0.11520966623E+03  0.12753154503E+03  0.24684620062E+03  0.17309341485E+03 0.  0.
         24    2    3    3    0    0 -0.65229863405E+02  0.14556316767E+02  0.84791482067E+02  0.13402577130E+03  0.79413415131E+02 0.  0.
         -6    2    1    2    0  502  0.37870230107E+02 -0.11520966623E+03  0.50159424508E+03  0.54392868990E+03  0.17191338364E+03 0.  0.
        -24    2    5    5    0    0  0.68635122698E+02 -0.13647521703E+03  0.39514971012E+03  0.43100733988E+03  0.79295451875E+02 0.  0.
          5    1    3    3  501    0  0.27359633298E+02  0.10065334946E+03  0.42740062961E+02  0.11282042933E+03  0.47000000000E+01 0. -1.
        -11    1    4    4    0    0  0.11675483131E+02 -0.48690637866E+01  0.42072440119E+02  0.43933073032E+02  0.00000000000E+00 0.  1.
         12    1    4    4    0    0 -0.76905346536E+02  0.19425380554E+02  0.42719041948E+02  0.90092698263E+02  0.00000000000E+00 0. -1.
         -5    1    5    5    0  502 -0.30764892590E+02  0.21265550808E+02  0.10644453496E+03  0.11292135002E+03  0.47000000000E+01 0.  1.
         11    1    6    6    0    0  0.59262061574E+02 -0.70580668806E+02  0.14224560455E+03  0.16949169527E+03  0.00000000000E+00 0. -1.
        -12    1    6    6    0    0  0.93730611234E+01 -0.65894548228E+02  0.25290410557E+03  0.26151564461E+03  0.00000000000E+00 0.  1.
</event>
<event>
12    1  0.8053217E-002  0.1861564E+03  0.7818608E-02  0.1161981E+00
         21   -1    0    0  503  502  0.00000000000E+00  0.00000000000E+00  0.27512738525E+03  0.27512738525E+03  0.00000000000E+00 0. -1.
         21   -1    0    0  501  503 -0.00000000000E+00 -0.00000000000E+00 -0.12703786438E+03  0.12703786438E+03  0.00000000000E+00 0. -1.
          6    2    1    2  501    0  0.37277387027E+02  0.62211193534E+02  0.55332851418E+02  0.19417967257E+03  0.17141815717E+03 0.  0.
         24    2    3    3    0    0  0.52519428472E+02  0.64854908487E+02 -0.18295703271E+02  0.11879689521E+03  0.82544049041E+02 0.  0.
         -6    2    1    2    0  502 -0.37277387027E+02 -0.62211193534E+02  0.92756669448E+02  0.20798557706E+03  0.17144784732E+03 0.  0.
        -24    2    5    5    0    0 -0.52940019011E+02 -0.94331387395E+02  0.10455565938E+03  0.17006024175E+03  0.79294032913E+02 0.  0.
          5    1    3    3  501    0 -0.15242041444E+02 -0.26437149525E+01  0.73628554690E+02  0.75382777355E+02  0.47000000000E+01 0. -1.
        -13    1    4    4    0    0 -0.14544047843E+02 -0.83191537970E+00 -0.20198616145E+02  0.24903925494E+02  0.00000000000E+00 0.  1.
         14    1    4    4    0    0  0.67063476315E+02  0.65686823866E+02  0.19029128732E+01  0.93892969718E+02  0.00000000000E+00 0. -1.
         -5    1    5    5    0  502  0.15662631983E+02  0.32120193861E+02 -0.11798989935E+02  0.37925335303E+02  0.47000000000E+01 0.  1.
         11    1    6    6    0    0 -0.72626793086E+02 -0.76081126068E+02  0.70179875372E+02  0.12644446894E+03  0.00000000000E+00 0. -1.
        -12    1    6    6    0    0  0.19686774075E+02 -0.18250261327E+02  0.34375784011E+02  0.43615772816E+02  0.00000000000E+00 0.  1.
</event>
<event>
12    1  0.8053217E-002  0.2028058E+03  0.7818608E-02  0.1147562E+00
         21   -1    0    0  503  502  0.00000000000E+00  0.00000000000E+00  0.17958954026E+03  0.17958954026E+03  0.00000000000E+00 0. -1.
         21   -1    0    0  501  503 -0.00000000000E+00 -0.00000000000E+00 -0.26404642931E+03  0.26404642931E+03  0.00000000000E+00 0.  1.
          6    2    1    2  501    0 -0.31909840236E+02 -0.96039152357E+02 -0.12413978874E+03  0.23778324252E+03  0.17575103580E+03 0.  0.
         24    2    3    3    0    0 -0.46380014900E+02 -0.14382964009E+02 -0.12333391293E+03  0.15471785571E+03  0.79802163887E+02 0.  0.
         -6    2    1    2    0  502  0.31909840236E+02  0.96039152357E+02  0.39682899691E+02  0.20585272705E+03  0.17481091504E+03 0.  0.
        -24    2    5    5    0    0  0.88524252709E+01  0.11361320331E+03  0.76354730721E+02  0.15886969987E+03  0.80144938915E+02 0.  0.
          5    1    3    3  501    0  0.14470174665E+02 -0.81656188348E+02 -0.80587581686E+00  0.83065386812E+02  0.47000000000E+01 0. -1.
        -11    1    4    4    0    0 -0.29356762095E+02 -0.14655908253E+01 -0.12924563207E+03  0.13254584432E+03  0.00000000000E+00 0.  1.
         12    1    4    4    0    0 -0.17023252805E+02 -0.12917373183E+02  0.59117191380E+01  0.22172011393E+02  0.00000000000E+00 0. -1.
         -5    1    5    5    0  502  0.23057414965E+02 -0.17574050957E+02 -0.36671831030E+02  0.46983027180E+02  0.47000000000E+01 0.  1.
         13    1    6    6    0    0 -0.23792825961E+02  0.53414245365E+01  0.24133645464E+02  0.34308340483E+02  0.00000000000E+00 0. -1.
        -14    1    6    6    0    0  0.32645251232E+02  0.10827177878E+03  0.52221085257E+02  0.12456135939E+03  0.00000000000E+00 0.  1.
</event>
<event>
12    1  0.8053217E-002  0.2367995E+03  0.7818608E-02  0.1121949E+00
         21   -1    0    0  503  502  0.00000000000E+00  0.00000000000E+00  0.32697609627E+03  0.32697609627E+03  0.00000000000E+00 0.  1.
         21   -1    0    0  501  503 -0.00000000000E+00 -0.00000000000E+00 -0.29155356734E+03  0.29155356734E+03  0.00000000000E+00 0.  1.
          6    2    1    2  501    0 -0.14512017899E+03  0.73497097531E+02 -0.18076704105E+03  0.29791059888E+03  0.17208228294E+03 0.  0.
         24    2    3    3    0    0 -0.13230585237E+03  0.87524516455E+02 -0.20572750078E+03  0.26619167711E+03  0.58041578488E+02 0.  0.
         -6    2    1    2    0  502  0.14512017899E+03 -0.73497097531E+02  0.21618956998E+03  0.32061906473E+03  0.17203768425E+03 0.  0.
        -24    2    5    5    0    0  0.66217195850E+02 -0.10765187650E+03  0.14825969056E+03  0.21094323242E+03  0.80885523527E+02 0.  0.
          5    1    3    3  501    0 -0.12814326620E+02 -0.14027418924E+02  0.24960459733E+02  0.31718921774E+02  0.47000000000E+01 0. -1.
        -13    1    4    4    0    0 -0.10586671274E+03  0.67801677221E+02 -0.11781166055E+03  0.17229165871E+03  0.00000000000E+00 0.  1.
         14    1    4    4    0    0 -0.26439139632E+02  0.19722839234E+02 -0.87915840229E+02  0.93900018398E+02  0.00000000000E+00 0. -1.
         -5    1    5    5    0  502  0.78902983141E+02  0.34154778973E+02  0.67929879420E+02  0.10967583231E+03  0.47000000000E+01 0.  1.
         13    1    6    6    0    0 -0.79605731807E+01  0.88728317572E+01  0.11517818526E+02  0.16575826144E+02  0.00000000000E+00 0. -1.
        -14    1    6    6    0    0  0.74177769031E+02 -0.11652470826E+03  0.13674187204E+03  0.19436740627E+03  0.00000000000E+00 0.  1.
</event>
<event>
12    1  0.8053217E-002  0.1788822E+03  0.7818608E-02  0.1168916E+00
         21   -1    0    0  501  502  0.00000000000E+00  0.00000000000E+00  0.41943593263E+03  0.41943593263E+03  0.00000000000E+00 0.  1.
         21   -1    0    0  502  503 -0.00000000000E+00 -0.00000000000E+00 -0.11880898072E+03  0.11880898072E+03  0.00000000000E+00 0.  1.
         -6    2    1    2    0  503  0.40063873206E+02  0.31200599871E+02 -0.10741091927E+02  0.17920437886E+03  0.17152331322E+03 0.  0.
        -24    2    3    3    0    0  0.10454679551E+02  0.67741032095E+02 -0.51636686629E+02  0.11670280126E+03  0.79088865601E+02 0.  0.
          6    2    1    2  501    0 -0.40063873206E+02 -0.31200599871E+02  0.31136804383E+03  0.35904053449E+03  0.17141019609E+03 0.  0.
         24    2    5    5    0    0 -0.22286524338E+02 -0.68265455851E+02  0.11101727499E+03  0.15446204526E+03  0.79855033973E+02 0.  0.
          5    1    5    5  501    0 -0.17777348868E+02  0.37064855980E+02  0.20035076884E+03  0.20457848923E+03  0.47000000000E+01 0. -1.
        -11    1    6    6    0    0  0.47836401568E+00 -0.69184712863E+02  0.11201241540E+03  0.13165688182E+03  0.00000000000E+00 0.  1.
         12    1    6    6    0    0 -0.22764888353E+02  0.91925701211E+00 -0.99514041292E+00  0.22805163443E+02  0.00000000000E+00 0. -1.
         -5    1    3    3    0  503  0.29609193655E+02 -0.36540432224E+02  0.40895594702E+02  0.62501577597E+02  0.47000000000E+01 0.  1.
         13    1    4    4    0    0  0.39241687008E+02  0.58193261565E+02 -0.20236625984E+02  0.73047154099E+02  0.00000000000E+00 0. -1.
        -14    1    4    4    0    0 -0.28787007457E+02  0.95477705301E+01 -0.31400060646E+02  0.43655647161E+02  0.00000000000E+00 0.  1.
</event>
<event>
12    1  0.8053217E-002  0.2037024E+03  0.7818608E-02  0.1147081E+00
         21   -1    0    0  501  502  0.00000000000E+00  0.00000000000E+00  0.39463246879E+03  0.39463246879E+03  0.00000000000E+00 0. -1.
         21   -1    0    0  502  503 -0.00000000000E+00 -0.00000000000E+00 -0.21569612556E+03  0.21569612556E+03  0.00000000000E+00 0. -1.
         -6    2    1    2    0  503  0.39652240596E+02  0.96446822997E+02 -0.12982819821E+03  0.24155749136E+03  0.17498677302E+03 0.  0.
        -24    2    3    3    0    0  0.71095797697E+02  0.43246716178E+01 -0.60636255077E+02  0.12203844245E+03  0.78379275135E+02 0.  0.
          6    2    1    2  501    0 -0.39652240596E+02 -0.96446822997E+02  0.30876454143E+03  0.36877110299E+03  0.17257547481E+03 0.  0.
         24    2    5    5    0    0 -0.28378609376E+02 -0.25600955164E+02  0.27593118691E+03  0.28973724367E+03  0.79679960382E+02 0.  0.
          5    1    5    5  501    0 -0.11273631219E+02 -0.70845867833E+02  0.32833354526E+02  0.79033859322E+02  0.47000000000E+01 0. -1.
        -11    1    6    6    0    0  0.12560437580E+02  0.16339519596E+02  0.26817381901E+02  0.33821834144E+02  0.00000000000E+00 0.  1.
         12    1    6    6    0    0 -0.40939046956E+02 -0.41940474760E+02  0.24911380501E+03  0.25591540953E+03  0.00000000000E+00 0. -1.
         -5    1    3    3    0  503 -0.31443557102E+02  0.92122151380E+02 -0.69191943131E+02  0.11951904891E+03  0.47000000000E+01 0.  1.
         11    1    4    4    0    0  0.16437594422E+02  0.34294393685E+02 -0.42686262938E+02  0.57170070773E+02  0.00000000000E+00 0. -1.
        -12    1    4    4    0    0  0.54658203275E+02 -0.29969722067E+02 -0.17949992139E+02  0.64868371675E+02  0.00000000000E+00 0.  1.
</event>
<event>
12    1  0.8053217E-002  0.2510960E+03  0.7818608E-02  0.1112703E+00
         21   -1    0    0  501  502  0.00000000000E+00  0.00000000000E+00  0.12592140230E+04  0.12592140230E+04  0.00000000000E+00 0.  1.
         21   -1    0    0  502  503 -0.00000000000E+00 -0.00000000000E+00 -0.76492187618E+02  0.76492187618E+02  0.00000000000E+00 0. -1.
         -6    2    1    2    0  503  0.18200918312E+03 -0.61030132548E+01  0.19757733312E+03  0.31906521380E+03  0.17205004674E+03 0.  0.
        -24    2    3    3    0    0  0.15310690866E+03  0.31884572884E+02  0.82054690714E+02  0.19398136561E+03  0.80233699068E+02 0.  0.
          6    2    1    2  501    0 -0.18200918312E+03  0.61030132548E+01  0.98514450224E+03  0.10166409968E+04  0.17287173445E+03 0.  0.
         24    2    5    5    0    0 -0.11776519020E+03  0.72061602441E+02  0.69639451778E+03  0.71352968121E+03  0.71398648468E+02 0.  0.
          5    1    5    5  501    0 -0.64243992918E+02 -0.65958589186E+02  0.28874998446E+03  0.30311131559E+03  0.47000000000E+01 0. -1.
        -11    1    6    6    0    0 -0.91934864021E+02  0.16155608510E+02  0.39100488025E+03  0.40199233735E+03  0.00000000000E+00 0.  1.
         12    1    6    6    0    0 -0.25830326179E+02  0.55905993932E+02  0.30538963753E+03  0.31153734386E+03  0.00000000000E+00 0. -1.
         -5    1    3    3    0  503  0.28902274453E+02 -0.37987586139E+02  0.11552264241E+03  0.12508384819E+03  0.47000000000E+01 0.  1.
         11    1    4    4    0    0  0.15779752328E+03  0.15638513184E+02  0.70730694738E+02  0.17363021807E+03  0.00000000000E+00 0. -1.
        -12    1    4    4    0    0 -0.46906146180E+01  0.16246059700E+02  0.11323995976E+02  0.20351147538E+02  0.00000000000E+00 0.  1.
</event>
<event>
12    1  0.8053217E-002  0.1788021E+03  0.7818608E-02  0.1169290E+00
         21   -1    0    0  503  502  0.00000000000E+00  0.00000000000E+00  0.65217674807E+02  0.65217674807E+02  0.00000000000E+00 0.  1.
         21   -1    0    0  501  503 -0.00000000000E+00 -0.00000000000E+00 -0.64514982353E+03  0.64514982353E+03  0.00000000000E+00 0.  1.
          6    2    1    2  501    0 -0.39892691403E+02 -0.18274078111E+02 -0.46684510655E+03  0.49991455284E+03  0.17333446824E+03 0.  0.
         24    2    3    3    0    0  0.20364851307E+02 -0.49374264404E+02 -0.36412250340E+03  0.37673900236E+03  0.80588667069E+02 0.  0.
         -6    2    1    2    0  502  0.39892691403E+02  0.18274078111E+02 -0.11308704218E+03  0.21045294550E+03  0.17197788928E+03 0.  0.
        -24    2    5    5    0    0 -0.24557602779E+01  0.69209373870E+02 -0.45942855769E+02  0.11601657812E+03  0.80951418846E+02 0.  0.
          5    1    3    3  501    0 -0.60257542709E+02  0.31100186293E+02 -0.10272260314E+03  0.12317555048E+03  0.47000000000E+01 0. -1.
        -11    1    4    4    0    0  0.19099310443E+02 -0.71717379645E+02 -0.28623394538E+03  0.29569923519E+03  0.00000000000E+00 0.  1.
         12    1    4    4    0    0  0.12655408634E+01  0.22343115241E+02 -0.77888558024E+02  0.81039767173E+02  0.00000000000E+00 0. -1.
         -5    1    5    5    0  502  0.42348451680E+02 -0.50935295759E+02 -0.67144186410E+02  0.94436367372E+02  0.47000000000E+01 0.  1.
         13    1    6    6    0    0  0.17371391713E+02  0.16140893373E+02 -0.53827479919E+02  0.58819140450E+02  0.00000000000E+00 0. -1.
        -14    1    6    6    0    0 -0.19827151991E+02  0.53068480497E+02  0.78846241500E+01  0.57197437672E+02  0.00000000000E+00 0.  1.
</event>
<event>
12    1  0.8053217E-002  0.2637854E+03  0.7818608E-02  0.1104897E+00
         21   -1    0    0  503  502  0.00000000000E+00  0.00000000000E+00  0.20250308890E+03  0.20250308890E+03  0.00000000000E+00 0. -1.
         21   -1    0    0  501  503 -0.00000000000E+00 -0.00000000000E+00 -0.38267358569E+03  0.38267358569E+03  0.00000000000E+00 0.  1.
          6    2    1    2  501    0  0.10010736588E+03 -0.17391470889E+03  0.34764425662E+01  0.26375961828E+03  0.17114099424E+03 0.  0.
         24    2    3    3    0    0  0.28709229403E+01 -0.10260685649E+03 -0.38879395928E+02  0.13586965501E+03  0.80078377405E+02 0.  0.
         -6    2    1    2    0  502 -0.10010736588E+03  0.17391470889E+03 -0.18364693935E+03  0.32141705631E+03  0.17121598957E+03 0.  0.
        -24    2    5    5    0    0  0.30291900957E+01  0.90500611901E+02 -0.42801651331E+02  0.12788528654E+03  0.79518101140E+02 0.  0.
          5    1    3    3  501    0  0.97236442941E+02 -0.71307852395E+02  0.42355838494E+02  0.12788996326E+03  0.47000000000E+01 0. -1.
        -11    1    4    4    0    0  0.79362392339E+01 -0.11370066612E+03 -0.23729952118E+02  0.11642137260E+03  0.00000000000E+00 0.  1.
         12    1    4    4    0    0 -0.50653162936E+01  0.11093809629E+02 -0.15149443810E+02  0.19448282417E+02  0.00000000000E+00 0. -1.
         -5    1    5    5    0  502 -0.10313655598E+03  0.83414096987E+02 -0.14084528802E+03  0.19353176978E+03  0.47000000000E+01 0.  1.
         11    1    6    6    0    0 -0.96067982599E+01  0.15137271671E+01  0.17241323953E+02  0.19795080055E+02  0.00000000000E+00 0. -1.
        -12    1    6    6    0    0  0.12635988356E+02  0.88986884734E+02 -0.60042975284E+02  0.10809020648E+03  0.00000000000E+00 0.  1.
</event>
<event>
12    1  0.8053217E-002  0.1743827E+03  0.7818608E-02  0.1173638E+00
         21   -1    0    0  501  502  0.00000000000E+00  0.00000000000E+00  0.36609668563E+02  0.36609668563E+02  0.00000000000E+00 0.  1.
         21   -1    0    0  502  503 -0.00000000000E+00 -0.00000000000E+00 -0.86100876873E+03  0.86100876873E+03  0.00000000000E+00 0.  1.
         -6    2    1    2    0  503 -0.20383217634E+02  0.12105443143E+02 -0.50491491347E+03  0.53418011388E+03  0.17276373148E+03 0.  0.
        -24    2    3    3    0    0 -0.76320873823E+02 -0.19220153802E+02 -0.31026410213E+03  0.32918903418E+03  0.76859072732E+02 0.  0.
          6    2    1    2  501    0  0.20383217634E+02 -0.12105443143E+02 -0.31948418670E+03  0.36343832341E+03  0.17162532463E+03 0.  0.
         24    2    5    5    0    0 -0.21884670594E+02  0.47765795752E+02 -0.21480575890E+03  0.23556806546E+03  0.81180597161E+02 0.  0.
          5    1    5    5  501    0  0.42267888228E+02 -0.59871238895E+02 -0.10467842780E+03  0.12787025796E+03  0.47000000000E+01 0. -1.
        -11    1    6    6    0    0  0.99331145040E+01 -0.99464843356E+00  0.27511283799E+01  0.10354940686E+02  0.00000000000E+00 0.  1.
         12    1    6    6    0    0 -0.31817785098E+02  0.48760444186E+02 -0.21755688728E+03  0.22521312477E+03  0.00000000000E+00 0. -1.
         -5    1    3    3    0  503  0.55937656189E+02  0.31325596945E+02 -0.19465081134E+03  0.20499107970E+03  0.47000000000E+01 0.  1.
         11    1    4    4    0    0 -0.65190249609E+02  0.20816272510E+02 -0.19602409294E+03  0.20762593975E+03  0.00000000000E+00 0. -1.
        -12    1    4    4    0    0 -0.11130624214E+02 -0.40036426312E+02 -0.11424000919E+03  0.12156309443E+03  0.00000000000E+00 0.  1.
</event>
<event>
12    1  0.8053217E-002  0.2530786E+03  0.7818608E-02  0.1111462E+00
         21   -1    0    0  503  502  0.00000000000E+00  0.00000000000E+00  0.66826439744E+03  0.66826439744E+03  0.00000000000E+00 0.  1.
         21   -1    0    0  501  503 -0.00000000000E+00 -0.00000000000E+00 -0.10793092782E+03  0.10793092782E+03  0.00000000000E+00 0.  1.
          6    2    1    2  501    0  0.92212018077E+02  0.16008160489E+03  0.14887062101E+03  0.29313169139E+03  0.17214688553E+03 0.  0.
         24    2    3    3    0    0  0.10069070197E+03  0.16841155525E+03  0.16842048148E+03  0.26977439707E+03  0.76887562908E+02 0.  0.
         -6    2    1    2    0  502 -0.92212018077E+02 -0.16008160489E+03  0.41146284862E+03  0.48306363386E+03  0.17297289402E+03 0.  0.
        -24    2    5    5    0    0  0.15476414976E+02 -0.83186176750E+02  0.16143113524E+03  0.20013669422E+03  0.82675422740E+02 0.  0.
          5    1    3    3  501    0 -0.84786838925E+01 -0.83299503602E+01 -0.19549860472E+02  0.23357294321E+02  0.47000000000E+01 0. -1.
        -11    1    4    4    0    0  0.70609311046E+02  0.45538334753E+02  0.61201381862E+02  0.10394721680E+03  0.00000000000E+00 0.  1.
         12    1    4    4    0    0  0.30081390923E+02  0.12287322049E+03  0.10721909962E+03  0.16582718027E+03  0.00000000000E+00 0. -1.
         -5    1    5    5    0  502 -0.10768843305E+03 -0.76895428135E+02  0.25003171338E+03  0.28292693964E+03  0.47000000000E+01 0.  1.
         13    1    6    6    0    0 -0.72209293764E+01  0.15411069932E+02  0.20394325164E+02  0.26562593932E+02  0.00000000000E+00 0. -1.
        -14    1    6    6    0    0  0.22697344352E+02 -0.98597246682E+02  0.14103681008E+03  0.17357410029E+03  0.00000000000E+00 0.  1.
</event>
<event>
12    1  0.8053217E-002  0.1746738E+03  0.7818608E-02  0.1173311E+00
         21   -1    0    0  503  502  0.00000000000E+00  0.00000000000E+00  0.22727539545E+03  0.22727539545E+03  0.00000000000E+00 0.  1.
         21   -1    0    0  501  503 -0.00000000000E+00 -0.00000000000E+00 -0.79303527657E+03  0.79303527657E+03  0.00000000000E+00 0.  1.
          6    2    1    2  501    0 -0.94579549708E+01  0.27546478276E+02 -0.74798787331E+03  0.76788644049E+03  0.17121759691E+03 0.  0.
         24    2    3    3    0    0  0.51391359733E+02  0.39137949424E+02 -0.57916035697E+03  0.58799252292E+03  0.78330306970E+02 0.  0.
         -6    2    1    2    0  502  0.94579549708E+01 -0.27546478276E+02  0.18222799218E+03  0.25242423153E+03  0.17222859852E+03 0.  0.
        -24    2    5    5    0    0  0.19874945979E+02 -0.85015555948E+02  0.11056822664E+03  0.15985846794E+03  0.75542959961E+02 0.  0.
          5    1    3    3  501    0 -0.60849314704E+02 -0.11591471148E+02 -0.16882751635E+03  0.17989391757E+03  0.47000000000E+01 0. -1.
        -11    1    4    4    0    0  0.33409375279E+02 -0.92457044143E+01 -0.40127701659E+03  0.40277154002E+03  0.00000000000E+00 0.  1.
         12    1    4    4    0    0  0.17981984454E+02  0.48383653838E+02 -0.17788334038E+03  0.18522098290E+03  0.00000000000E+00 0. -1.
         -5    1    5    5    0  502 -0.10416991008E+02  0.57469077672E+02  0.71659765541E+02  0.92565763582E+02  0.47000000000E+01 0.  1.
         11    1    6    6    0    0 -0.43586430310E+01 -0.89028439999E+02  0.97240960553E+02  0.13191233948E+03  0.00000000000E+00 0. -1.
        -12    1    6    6    0    0  0.24233589010E+02  0.40128840509E+01  0.13327266090E+02  0.27946128465E+02  0.00000000000E+00 0.  1.
</event>
<event>
12    1  0.8053217E-002  0.2100609E+03  0.7818608E-02  0.1143744E+00
         21   -1    0    0  501  502  0.00000000000E+00  0.00000000000E+00  0.13094965125E+03  0.13094965125E+03  0.00000000000E+00 0. -1.
         21   -1    0    0  502  503 -0.00000000000E+00 -0.00000000000E+00 -0.67881931695E+03  0.67881931695E+03  0.00000000000E+00 0.  1.
         -6    2    1    2    0  503 -0.15240905606E+02  0.99473360692E+02 -0.57183992701E+03  0.60920151220E+03  0.18438640309E+03 0.  0.
        -24    2    3    3    0    0 -0.53902418397E+02  0.12456647866E+03 -0.33604171320E+03  0.36889490643E+03  0.68826889079E+02 0.  0.
          6    2    1    2  501    0  0.15240905606E+02 -0.99473360692E+02  0.23970261318E+02  0.20056745601E+03  0.17182984691E+03 0.  0.
         24    2    5    5    0    0  0.79719961481E+01 -0.11006819071E+03 -0.34308067703E+02  0.14070477062E+03  0.80263501286E+02 0.  0.
          5    1    5    5  501    0  0.72689094578E+01  0.10594830016E+02  0.58278329021E+02  0.59862685382E+02  0.47000000000E+01 0. -1.
        -13    1    6    6    0    0 -0.22195168382E+02 -0.50734787136E+02 -0.47369506169E+02  0.72873275211E+02  0.00000000000E+00 0.  1.
         14    1    6    6    0    0  0.30167164530E+02 -0.59333403572E+02  0.13061438466E+02  0.67831495414E+02  0.00000000000E+00 0. -1.
         -5    1    3    3    0  503  0.38661512791E+02 -0.25093117970E+02 -0.23579821381E+03  0.24030660577E+03  0.47000000000E+01 0.  1.
         11    1    4    4    0    0 -0.19955476448E+02  0.10982593960E+03 -0.21396640700E+03  0.24133292642E+03  0.00000000000E+00 0. -1.
        -12    1    4    4    0    0 -0.33946941949E+02  0.14740539066E+02 -0.12207530620E+03  0.12756198001E+03  0.00000000000E+00 0.  1.
</event>
<event>
12    1  0.8053217E-002  0.2043375E+03  0.7818608E-02  0.1146346E+00
         21   -1    0    0  501  502  0.00000000000E+00  0.00000000000E+00  0.10084867709E+03  0.10084867709E+03  0.00000000000E+00 0. -1.
         21   -1    0    0  502  503 -0.00000000000E+00 -0.00000000000E+00 -0.60976811316E+03  0.60976811316E+03  0.00000000000E+00 0. -1.
         -6    2    1    2    0  503 -0.10763925143E+03  0.33908323297E+00 -0.45641623426E+03  0.49964186803E+03  0.17245258469E+03 0.  0.
        -24    2    3    3    0    0 -0.55710633464E+02 -0.66984285580E+02 -0.31200805565E+03  0.33199691761E+03  0.72679827434E+02 0.  0.
          6    2    1    2  501    0  0.10763925143E+03 -0.33908323297E+00 -0.52503201813E+02  0.21097492222E+03  0.17368796211E+03 0.  0.
         24    2    5    5    0    0  0.13395053406E+03  0.34868148549E+02 -0.40794890405E+02  0.16524738873E+03  0.80522934868E+02 0.  0.
          5    1    5    5  501    0 -0.26311282632E+02 -0.35207231782E+02 -0.11708311408E+02  0.45727533495E+02  0.47000000000E+01 0. -1.
        -11    1    6    6    0    0  0.11588100043E+03  0.78436452671E+01 -0.56481778503E+02  0.12915154019E+03  0.00000000000E+00 0.  1.
         12    1    6    6    0    0  0.18069533636E+02  0.27024503282E+02  0.15686888098E+02  0.36095848538E+02  0.00000000000E+00 0. -1.
         -5    1    3    3    0  503 -0.51928617967E+02  0.67323368813E+02 -0.14440817861E+03  0.16764495042E+03  0.47000000000E+01 0.  1.
         13    1    4    4    0    0 -0.57396771593E+02 -0.14961313708E+02 -0.19748760740E+03  0.20620277731E+03  0.00000000000E+00 0. -1.
        -14    1    4    4    0    0  0.16861381291E+01 -0.52022971871E+02 -0.11452044825E+03  0.12579414029E+03  0.00000000000E+00 0.  1.
</event>
<event>
12    1  0.8053217E-002  0.2063103E+03  0.7818608E-02  0.1144685E+00
         21   -1    0    0  503  502  0.00000000000E+00  0.00000000000E+00  0.35057852433E+03  0.35057852433E+03  0.00000000000E+00 0.  1.
         21   -1    0    0  501  503 -0.00000000000E+00 -0.00000000000E+00 -0.13913856636E+03  0.13913856636E+03  0.00000000000E+00 0. -1.
          6    2    1    2  501    0  0.88758799036E+02 -0.70138234759E+02  0.19410173637E+03  0.28267951438E+03  0.17156551929E+03 0.  0.
         24    2    3    3    0    0  0.11011760762E+03 -0.25390257406E+02  0.18655947947E+03  0.23230535612E+03  0.79942394401E+02 0.  0.
         -6    2    1    2    0  502 -0.88758799036E+02  0.70138234759E+02  0.17338221605E+02  0.20703757631E+03  0.17252955600E+03 0.  0.
        -24    2    5    5    0    0 -0.72085172053E+02 -0.27590380838E+02  0.81010835671E+01  0.10735655072E+03  0.74177491750E+02 0.  0.
          5    1    3    3  501    0 -0.21358808588E+02 -0.44747977353E+02  0.75422569007E+01  0.50374158262E+02  0.47000000000E+01 0. -1.
        -13    1    4    4    0    0 -0.76504094445E+00 -0.11266833505E+02  0.69643547763E+02  0.70553175477E+02  0.00000000000E+00 0.  1.
         14    1    4    4    0    0  0.11088264857E+03 -0.14123423901E+02  0.11691593170E+03  0.16175218064E+03  0.00000000000E+00 0. -1.
         -5    1    5    5    0  502 -0.16673626983E+02  0.97728615597E+02  0.92371380379E+01  0.99681025589E+02  0.47000000000E+01 0.  1.
         11    1    6    6    0    0 -0.86680622767E+02 -0.21043469762E+02 -0.48844204805E+00  0.89199756494E+02  0.00000000000E+00 0. -1.
        -12    1    6    6    0    0  0.14595450714E+02 -0.65469110763E+01  0.85895256152E+01  0.18156794224E+02  0.00000000000E+00 0.  1.
</event>
<event>
12    1  0.8053217E-002  0.1980231E+03  0.7818608E-02  0.1151660E+00
         21   -1    0    0  501  502  0.00000000000E+00  0.00000000000E+00  0.10109404164E+04  0.10109404164E+04  0.00000000000E+00 0.  1.
         21   -1    0    0  502  503 -0.00000000000E+00 -0.00000000000E+00 -0.38781163667E+02  0.38781163667E+02  0.00000000000E+00 0.  1.
         -6    2    1    2    0  503  0.93447686320E+02 -0.26550184701E+02  0.52644307731E+03  0.56245484755E+03  0.17255653998E+03 0.  0.
        -24    2    3    3    0    0  0.41930457469E+02  0.53014937647E+02  0.26547765626E+03  0.28476855954E+03  0.77756026454E+02 0.  0.
          6    2    1    2  501    0 -0.93447686320E+02  0.26550184701E+02  0.44571617540E+03  0.48726673250E+03  0.17125588224E+03 0.  0.
         24    2    5    5    0    0 -0.10968133307E+03  0.41288353897E+01  0.43708010468E+03  0.45789123405E+03  0.81106856740E+02 0.  0.
          5    1    5    5  501    0  0.16233646748E+02  0.22421349311E+02  0.86360707211E+01  0.29375498450E+02  0.47000000000E+01 0. -1.
        -11    1    6    6    0    0 -0.10401681297E+02  0.18767496397E+02  0.21534382492E+02  0.30399729014E+02  0.00000000000E+00 0.  1.
         12    1    6    6    0    0 -0.99279651771E+02 -0.14638661007E+02  0.41554572219E+03  0.42749150504E+03  0.00000000000E+00 0. -1.
         -5    1    3    3    0  503  0.51517228851E+02 -0.79565122348E+02  0.26096542105E+03  0.27768628801E+03  0.47000000000E+01 0.  1.
         13    1    4    4    0    0  0.42553547083E+01  0.15683510019E+02  0.24349204982E+01  0.16431961783E+02  0.00000000000E+00 0. -1.
        -14    1    4    4    0    0  0.37675102761E+02  0.37331427629E+02  0.26304273576E+03  0.26833659776E+03  0.00000000000E+00 0.  1.
</event>
<event>
12    1  0.8053217E-002  0.2207697E+03  0.7818608E-02  0.1133578E+00
         21   -1    0    0  501  502  0.00000000000E+00  0.00000000000E+00  0.66581293196E+02  0.66581293196E+02  0.00000000000E+00 0. -1.
         21   -1    0    0  502  503 -0.00000000000E+00 -0.00000000000E+00 -0.73080289795E+03  0.73080289795E+03  0.00000000000E+00 0.  1.
         -6    2    1    2    0  503  0.10695393742E+03  0.86531902926E+02 -0.36088277830E+03  0.42305510179E+03  0.17266245835E+03 0.  0.
        -24    2    3    3    0    0  0.98220949441E+02  0.10872154924E+03 -0.18797271770E+03  0.24844518071E+03  0.70167906055E+02 0.  0.
          6    2    1    2  501    0 -0.10695393742E+03 -0.86531902926E+02 -0.30333882646E+03  0.37432908936E+03  0.17082420364E+03 0.  0.
         24    2    5    5    0    0 -0.72916342272E+02 -0.12699920176E+03 -0.23348741818E+03  0.28659386612E+03  0.78575310558E+02 0.  0.
          5    1    5    5  501    0 -0.34037595144E+02  0.40467298839E+02 -0.69851408272E+02  0.87735223235E+02  0.47000000000E+01 0. -1.
        -13    1    6    6    0    0 -0.32813706425E+02 -0.33614152103E+01 -0.72752425889E+02  0.79880873269E+02  0.00000000000E+00 0.  1.
         14    1    6    6    0    0 -0.40102635848E+02 -0.12363778655E+03 -0.16073499230E+03  0.20671299285E+03  0.00000000000E+00 0. -1.
         -5    1    3    3    0  503  0.87329879752E+01 -0.22189646318E+02 -0.17291006060E+03  0.17460992108E+03  0.47000000000E+01 0.  1.
         13    1    4    4    0    0  0.64706952394E+02  0.84951772003E+02 -0.81548701571E+02  0.13436511445E+03  0.00000000000E+00 0. -1.
        -14    1    4    4    0    0  0.33513997047E+02  0.23769777241E+02 -0.10642401613E+03  0.11408006626E+03  0.00000000000E+00 0.  1.
</event>
<event>
12    1  0.8053217E-002  0.2199874E+03  0.7818608E-02  0.1133985E+00
         21   -1    0    0  503  502  0.00000000000E+00  0.00000000000E+00  0.65728517903E+02  0.65728517903E+02  0.00000000000E+00 0.  1.
         21   -1    0    0  501  503 -0.00000000000E+00 -0.00000000000E+00 -0.75497110310E+03  0.75497110310E+03  0.00000000000E+00 0. -1.
          6    2    1    2  501    0  0.71563267783E+02 -0.11665619532E+03 -0.41235945788E+03  0.46737005098E+03  0.17223377385E+03 0.  0.
         24    2    3    3    0    0  0.12372295825E+02 -0.44242274263E+02 -0.33063388714E+03  0.34307803178E+03  0.79204267768E+02 0.  0.
         -6    2    1    2    0  502 -0.71563267783E+02  0.11665619532E+03 -0.27688312732E+03  0.35332957002E+03  0.17160288358E+03 0.  0.
        -24    2    5    5    0    0 -0.16194486684E+02 -0.10423095344E+01 -0.14269599794E+03  0.16638862839E+03  0.84021902031E+02 0.  0.
          5    1    3    3  501    0  0.59190971957E+02 -0.72413921060E+02 -0.81725570740E+02  0.12429201920E+03  0.47000000000E+01 0. -1.
        -13    1    4    4    0    0 -0.10351204860E+02  0.16562713297E+02 -0.14735141821E+03  0.14864020776E+03  0.00000000000E+00 0.  1.
         14    1    4    4    0    0  0.22723500686E+02 -0.60804987559E+02 -0.18328246893E+03  0.19443782402E+03  0.00000000000E+00 0. -1.
         -5    1    5    5    0  502 -0.55368781099E+02  0.11769850486E+03 -0.13418712938E+03  0.18694094163E+03  0.47000000000E+01 0.  1.
         11    1    6    6    0    0  0.46346980577E+01  0.31594959556E+02 -0.11347287815E+03  0.11788051566E+03  0.00000000000E+00 0. -1.
        -12    1    6    6    0    0 -0.20829184742E+02 -0.32637269090E+02 -0.29223119788E+02  0.48508112732E+02  0.00000000000E+00 0.  1.
</event>
<event>
12    1  0.8053217E-002  0.2051529E+03  0.7818608E-02  0.1145477E+00
         21   -1    0    0  503  502  0.00000000000E+00  0.00000000000E+00  0.97586299622E+03  0.97586299622E+03  0.00000000000E+00 0. -1.
         21   -1    0    0  501  503 -0.00000000000E+00 -0.00000000000E+00 -0.47171529111E+02  0.47171529111E+02  0.00000000000E+00 0.  1.
          6    2    1    2  501    0  0.30462293309E+02  0.10846550869E+03  0.31439458758E+03  0.37540866137E+03  0.17144966736E+03 0.  0.
         24    2    3    3    0    0  0.72099613709E+02  0.11485135824E+03  0.20414687988E+03  0.25729391810E+03  0.78326387235E+02 0.  0.
         -6    2    1    2    0  502 -0.30462293309E+02 -0.10846550869E+03  0.61429687953E+03  0.64762586396E+03  0.17136477348E+03 0.  0.
        -24    2    5    5    0    0  0.14606807386E+02 -0.11891250240E+03  0.54483322460E+03  0.56403368209E+03  0.83289914478E+02 0.  0.
          5    1    3    3  501    0 -0.41637320400E+02 -0.63858495468E+01  0.11024770770E+03  0.11811474327E+03  0.47000000000E+01 0. -1.
        -13    1    4    4    0    0  0.31918460497E+02  0.10930493645E+03  0.13033407506E+03  0.17307029894E+03  0.00000000000E+00 0.  1.
         14    1    4    4    0    0  0.40181153212E+02  0.55464217884E+01  0.73812804827E+02  0.84223619160E+02  0.00000000000E+00 0. -1.
         -5    1    5    5    0  502 -0.45069100694E+02  0.10446993705E+02  0.69463654930E+02  0.83592181878E+02  0.47000000000E+01 0.  1.
         11    1    6    6    0    0 -0.30100368494E+02 -0.16899067194E+02  0.13224771059E+03  0.13667870211E+03  0.00000000000E+00 0. -1.
        -12    1    6    6    0    0  0.44707175880E+02 -0.10201343521E+03  0.41258551401E+03  0.42735497997E+03  0.00000000000E+00 0.  1.
</event>
<event>
12    1  0.8053217E-002  0.3008005E+03  0.7818608E-02  0.1084867E+00
         21   -1    0    0  501  502  0.00000000000E+00  0.00000000000E+00  0.67442472980E+03  0.67442472980E+03  0.00000000000E+00 0.  1.
         21   -1    0    0  502  503 -0.00000000000E+00 -0.00000000000E+00 -0.13939414181E+03  0.13939414181E+03  0.00000000000E+00 0.  1.
         -6    2    1    2    0  503  0.91848758930E+02 -0.22878981778E+03  0.18806732856E+03  0.35475383516E+03  0.17233684531E+03 0.  0.
        -24    2    3    3    0    0  0.10206890747E+02 -0.49667766882E+02  0.10490216468E+03  0.14100482758E+03  0.79415549862E+02 0.  0.
          6    2    1    2  501    0 -0.91848758930E+02  0.22878981778E+03  0.34696325943E+03  0.45906503646E+03  0.17197740860E+03 0.  0.
         24    2    5    5    0    0 -0.30849271412E+02  0.13060455803E+03  0.29196244200E+03  0.33096951496E+03  0.79306520357E+02 0.  0.
          5    1    5    5  501    0 -0.60999487518E+02  0.98185259745E+02  0.55000817428E+02  0.12809552149E+03  0.47000000000E+01 0. -1.
        -11    1    6    6    0    0 -0.57843220804E+02  0.84055794444E+02  0.18776518897E+03  0.21369834103E+03  0.00000000000E+00 0.  1.
         12    1    6    6    0    0  0.26993949392E+02  0.46548763591E+02  0.10419725303E+03  0.11727117393E+03  0.00000000000E+00 0. -1.
         -5    1    3    3    0  503  0.81641868183E+02 -0.17912205090E+03  0.83165163878E+02  0.21374900758E+03  0.47000000000E+01 0.  1.
         13    1    4    4    0    0  0.15833422137E+02  0.11382183159E+02 -0.93561550448E-03  0.19500034639E+02  0.00000000000E+00 0. -1.
        -14    1    4    4    0    0 -0.56265313905E+01 -0.61049950041E+02  0.10490310029E+03  0.12150479294E+03  0.00000000000E+00 0.  1.
</event>
<event>
12    1  0.8053217E-002  0.1920811E+03  0.7818608E-02  0.1156773E+00
         21   -1    0    0  501  502  0.00000000000E+00  0.00000000000E+00  0.37719655486E+03  0.37719655486E+03  0.00000000000E+00 0.  1.
         21   -1    0    0  502  503 -0.00000000000E+00 -0.00000000000E+00 -0.10476361658E+03  0.10476361658E+03  0.00000000000E+00 0.  1.
         -6    2    1    2    0  503  0.85064684792E+02  0.33007530599E+01  0.20030000009E+03  0.27751620691E+03  0.17218669952E+03 0.  0.
        -24    2    3    3    0    0  0.97461953107E+02 -0.32303619914E+01  0.66210054727E+02  0.14261420109E+03  0.80285561988E+02 0.  0.
          6    2    1    2  501    0 -0.85064684792E+02 -0.33007530599E+01  0.72132938188E+02  0.20444396453E+03  0.17131047338E+03 0.  0.
         24    2    5    5    0    0 -0.84234625521E+02 -0.50007127414E+02  0.99233131450E+01  0.12650615694E+03  0.79430162220E+02 0.  0.
          5    1    5    5  501    0 -0.83005927079E+00  0.46706374355E+02  0.62209625043E+02  0.77937807588E+02  0.47000000000E+01 0. -1.
        -11    1    6    6    0    0 -0.44954124090E+02  0.10262814413E+02 -0.17774524378E+02  0.49417935501E+02  0.00000000000E+00 0.  1.
         12    1    6    6    0    0 -0.39280501431E+02 -0.60269941828E+02  0.27697837523E+02  0.77088221435E+02  0.00000000000E+00 0. -1.
         -5    1    3    3    0  503 -0.12397268315E+02  0.65311150514E+01  0.13408994537E+03  0.13490200582E+03  0.47000000000E+01 0.  1.
         13    1    4    4    0    0 -0.14071720483E+02 -0.37399648512E+01  0.50487914537E+01  0.15410741370E+02  0.00000000000E+00 0. -1.
        -14    1    4    4    0    0  0.11153367359E+03  0.50960285978E+00  0.61161263274E+02  0.12720345972E+03  0.00000000000E+00 0.  1.
</event>
<event>
12    1  0.8053217E-002  0.1791052E+03  0.7818608E-02  0.1170430E+00
         21   -1    0    0  501  502  0.00000000000E+00  0.00000000000E+00  0.26739028132E+03  0.26739028132E+03  0.00000000000E+00 0. -1.
         21   -1    0    0  502  503 -0.00000000000E+00 -0.00000000000E+00 -0.13746651002E+03  0.13746651002E+03  0.00000000000E+00 0. -1.
         -6    2    1    2    0  503  0.27724998841E+02  0.42628239322E+02 -0.17435479825E+02  0.17292270757E+03  0.16435456942E+03 0.  0.
        -24    2    3    3    0    0 -0.22915612611E+02 -0.25645359039E+02 -0.12334232164E+02  0.87635730321E+02  0.79655999173E+02 0.  0.
          6    2    1    2  501    0 -0.27724998841E+02 -0.42628239322E+02  0.14735925112E+03  0.23193408377E+03  0.17173476053E+03 0.  0.
         24    2    5    5    0    0  0.34202465078E+02 -0.19428673934E+02  0.23749674937E+02  0.91667737321E+02  0.79319890429E+02 0.  0.
          5    1    5    5  501    0 -0.61927463919E+02 -0.23199565388E+02  0.12360957618E+03  0.14026634645E+03  0.47000000000E+01 0. -1.
        -11    1    6    6    0    0  0.58712321541E+02 -0.25442292875E+01  0.15197020360E+02  0.60700570271E+02  0.00000000000E+00 0.  1.
         12    1    6    6    0    0 -0.24509856463E+02 -0.16884444646E+02  0.85526545767E+01  0.30967167051E+02  0.00000000000E+00 0. -1.
         -5    1    3    3    0  503  0.50640611452E+02  0.68273598361E+02 -0.51012476611E+01  0.85286977253E+02  0.47000000000E+01 0.  1.
         13    1    4    4    0    0 -0.42371117525E+00  0.22922670389E+02 -0.23640028239E+02  0.32931433071E+02  0.00000000000E+00 0. -1.
        -14    1    4    4    0    0 -0.22491901436E+02 -0.48568029428E+02  0.11305796075E+02  0.54704297250E+02  0.00000000000E+00 0.  1.
</event>
<event>
12    1  0.8053217E-002  0.1881891E+03  0.7818608E-02  0.1160639E+00
         21   -1    0    0  503  502  0.00000000000E+00  0.00000000000E+00  0.23693804263E+04  0.23693804263E+04  0.00000000000E+00 0.  1.
         21   -1    0    0  501  503 -0.00000000000E+00 -0.00000000000E+00 -0.27096380698E+02  0.27096380698E+02  0.00000000000E+00 0. -1.
          6    2    1    2  501    0 -0.43039515571E+02  0.52225620443E+02  0.36671122729E+03  0.41217987426E+03  0.17559957059E+03 0.  0.
         24    2    3    3    0    0  0.11257550628E+02  0.77590096014E+02  0.15012111969E+03  0.18740244494E+03  0.80226992640E+02 0.  0.
         -6    2    1    2    0  502  0.43039515571E+02 -0.52225620443E+02  0.19755728183E+04  0.19842969327E+04  0.17310817860E+03 0.  0.
        -24    2    5    5    0    0 -0.85057844239E+00 -0.36261047880E+01  0.42581438941E+03  0.43314847717E+03  0.79283270140E+02 0.  0.
          5    1    3    3  501    0 -0.54297066199E+02 -0.25364475571E+02  0.21659010760E+03  0.22477742932E+03  0.47000000000E+01 0. -1.
        -13    1    4    4    0    0  0.14925398124E+02  0.86403395468E+01 -0.47062142683E+01  0.17876560894E+02  0.00000000000E+00 0.  1.
         14    1    4    4    0    0 -0.36678474956E+01  0.68949756467E+02  0.15482733396E+03  0.16952588405E+03  0.00000000000E+00 0. -1.
         -5    1    5    5    0  502  0.43890094013E+02 -0.48599515655E+02  0.15497584289E+04  0.15511484556E+04  0.47000000000E+01 0.  1.
         13    1    6    6    0    0  0.33710130439E+02 -0.97435131959E+01  0.31400880858E+03  0.31596335358E+03  0.00000000000E+00 0. -1.
        -14    1    6    6    0    0 -0.34560708881E+02  0.61174084078E+01  0.11180558083E+03  0.11718512358E+03  0.00000000000E+00 0.  1.
</event>
<event>
12    1  0.8053217E-002  0.2839893E+03  0.7818608E-02  0.1093591E+00
         21   -1    0    0  503  502  0.00000000000E+00  0.00000000000E+00  0.70334027166E+03  0.70334027166E+03  0.00000000000E+00 0. -1.
         21   -1    0    0  501  503 -0.00000000000E+00 -0.00000000000E+00 -0.14127752046E+03  0.14127752046E+03  0.00000000000E+00 0.  1.
          6    2    1    2  501    0  0.21975998910E+03  0.52190245187E+02  0.46476583502E+03  0.54442347474E+03  0.17138075722E+03 0.  0.
         24    2    3    3    0    0  0.23078058352E+03  0.35160506634E+02  0.46170182634E+03  0.52337724834E+03  0.79115287227E+02 0.  0.
         -6    2    1    2    0  502 -0.21975998910E+03 -0.52190245187E+02  0.97296916187E+02  0.30019431737E+03  0.17213850174E+03 0.  0.
        -24    2    5    5    0    0 -0.19057158839E+03 -0.88862894729E+02  0.11190617215E+03  0.25087529143E+03  0.78748181708E+02 0.  0.
          5    1    3    3  501    0 -0.11020594420E+02  0.17029738554E+02  0.30640086761E+01  0.21046226402E+02  0.47000000000E+01 0. -1.
        -11    1    4    4    0    0 -0.31379678092E+01 -0.74512687399E+01  0.94899893524E+01  0.12467082486E+02  0.00000000000E+00 0.  1.
         12    1    4    4    0    0  0.23391855133E+03  0.42611775374E+02  0.45221183699E+03  0.51091016585E+03  0.00000000000E+00 0. -1.
         -5    1    5    5    0  502 -0.29188400714E+02  0.36672649541E+02 -0.14609255964E+02  0.49319025948E+02  0.47000000000E+01 0.  1.
         13    1    6    6    0    0 -0.15342507572E+02 -0.39542070790E+02  0.23821904725E+02  0.48646182231E+02  0.00000000000E+00 0. -1.
        -14    1    6    6    0    0 -0.17522908082E+03 -0.49320823939E+02  0.88084267426E+02  0.20222910920E+03  0.00000000000E+00 0.  1.
</event>
<event>
12    1  0.8053217E-002  0.2466564E+03  0.7818608E-02  0.1115578E+00
         21   -1    0    0  501  502  0.00000000000E+00  0.00000000000E+00  0.36186891383E+03  0.36186891383E+03  0.00000000000E+00 0. -1.
         21   -1    0    0  502  503 -0.00000000000E+00 -0.00000000000E+00 -0.32451514270E+03  0.32451514270E+03  0.00000000000E+00 0. -1.
         -6    2    1    2    0  503  0.10730771709E+03 -0.14036202366E+03 -0.22000678559E+03  0.33051829653E+03  0.17211308726E+03 0.  0.
        -24    2    3    3    0    0  0.90780893365E+02 -0.56854905589E+02 -0.20284558490E+03  0.24355180023E+03  0.81838237956E+02 0.  0.
          6    2    1    2  501    0 -0.10730771709E+03  0.14036202366E+03  0.25736055672E+03  0.35586576000E+03  0.17084946342E+03 0.  0.
         24    2    5    5    0    0 -0.87393369657E+02  0.11838798252E+03  0.98045116208E+02  0.19374562151E+03  0.79190943780E+02 0.  0.
          5    1    5    5  501    0 -0.19914347435E+02  0.21974041142E+02  0.15931544051E+03  0.16212013849E+03  0.47000000000E+01 0. -1.
        -13    1    6    6    0    0 -0.80267077930E+01  0.59369094736E+02  0.67454029187E+02  0.90217312648E+02  0.00000000000E+00 0.  1.
         14    1    6    6    0    0 -0.79366661864E+02  0.59018887780E+02  0.30591087021E+02  0.10352830886E+03  0.00000000000E+00 0. -1.
         -5    1    3    3    0  503  0.16526823727E+02 -0.83507118069E+02 -0.17161200685E+02  0.86966496306E+02  0.47000000000E+01 0.  1.
         13    1    4    4    0    0  0.93386949548E+01 -0.85129502608E+01 -0.11068106353E+03  0.11140008693E+03  0.00000000000E+00 0. -1.
        -14    1    4    4    0    0  0.81442198410E+02 -0.48341955328E+02 -0.92164521375E+02  0.13215171330E+03  0.00000000000E+00 0.  1.
</event>
<event>
12    1  0.8053217E-002  0.2150261E+03  0.7818608E-02  0.1137844E+00
         21   -1    0    0  501  502  0.00000000000E+00  0.00000000000E+00  0.83471022133E+03  0.83471022133E+03  0.00000000000E+00 0. -1.
         21   -1    0    0  502  503 -0.00000000000E+00 -0.00000000000E+00 -0.55128669666E+02  0.55128669666E+02  0.00000000000E+00 0.  1.
         -6    2    1    2    0  503 -0.60567594986E+02 -0.11446764480E+03  0.39218709662E+03  0.44726606988E+03  0.17165355586E+03 0.  0.
        -24    2    3    3    0    0 -0.79457383882E+02 -0.60385901767E+02  0.15126656817E+03  0.19958391452E+03  0.83619562920E+02 0.  0.
          6    2    1    2  501    0  0.60567594986E+02  0.11446764480E+03  0.38739445504E+03  0.44257282112E+03  0.17036714157E+03 0.  0.
         24    2    5    5    0    0  0.10466172328E+03  0.10036979844E+03  0.32615901675E+03  0.36566436694E+03  0.79388615579E+02 0.  0.
          5    1    5    5  501    0 -0.44094128290E+02  0.14097846354E+02  0.61235438294E+02  0.76908454181E+02  0.47000000000E+01 0. -1.
        -13    1    6    6    0    0  0.93231192830E+01 -0.13188156927E+02  0.44883119207E+02  0.47700549536E+02  0.00000000000E+00 0.  1.
         14    1    6    6    0    0  0.95338603992E+02  0.11355795537E+03  0.28127589754E+03  0.31796381740E+03  0.00000000000E+00 0. -1.
         -5    1    3    3    0  503  0.18889788896E+02 -0.54081743030E+02  0.24092052845E+03  0.24768215536E+03  0.47000000000E+01 0.  1.
         13    1    4    4    0    0  0.13890130619E+02  0.39482050582E+01  0.68452340196E+01  0.15980653321E+02  0.00000000000E+00 0. -1.
        -14    1    4    4    0    0 -0.93347514501E+02 -0.64334106825E+02  0.14442133415E+03  0.18360326120E+03  0.00000000000E+00 0.  1.
</event>
<event>
12    1  0.8053217E-002  0.1930258E+03  0.7818608E-02  0.1156250E+00
         21   -1    0    0  501  502  0.00000000000E+00  0.00000000000E+00  0.16168343828E+03  0.16168343828E+03  0.00000000000E+00 0.  1.
         21   -1    0    0  502  503 -0.00000000000E+00 -0.00000000000E+00 -0.25351994161E+03  0.25351994161E+03  0.00000000000E+00 0. -1.
         -6    2    1    2    0  503  0.80377791802E+02 -0.21950731606E+02  0.20415681461E+02  0.19191098433E+03  0.17167003765E+03 0.  0.
        -24    2    3    3    0    0  0.78875776239E+02 -0.34293949310E+02 -0.42665386000E+02  0.12744454232E+03  0.83811175673E+02 0.  0.
          6    2    1    2  501    0 -0.80377791802E+02  0.21950731606E+02 -0.11225218480E+03  0.22329239556E+03  0.17411638891E+03 0.  0.
         24    2    5    5    0    0 -0.56816857961E+02 -0.32986904341E+02 -0.12539725753E+03  0.16190718248E+03  0.78569538213E+02 0.  0.
          5    1    5    5  501    0 -0.23560933841E+02  0.54937635948E+02  0.13145072737E+02  0.61385213075E+02  0.47000000000E+01 0. -1.
        -11    1    6    6    0    0  0.18634736129E+02 -0.28613903827E+01 -0.38961705574E+02  0.43283431550E+02  0.00000000000E+00 0.  1.
         12    1    6    6    0    0 -0.75451594090E+02 -0.30125513959E+02 -0.86435551960E+02  0.11862375093E+03  0.00000000000E+00 0. -1.
         -5    1    3    3    0  503  0.15020155634E+01  0.12343217704E+02  0.63081067461E+02  0.64466442015E+02  0.47000000000E+01 0.  1.
         11    1    4    4    0    0  0.31370682212E+02  0.55655244112E+01 -0.55615043477E+02  0.64094678605E+02  0.00000000000E+00 0. -1.
        -12    1    4    4    0    0  0.47505094026E+02 -0.39859473721E+02  0.12949657477E+02  0.63349863714E+02  0.00000000000E+00 0.  1.
</event>
<event>
12    1  0.8053217E-002  0.2006009E+03  0.7818608E-02  0.1149590E+00
         21   -1    0    0  503  502  0.00000000000E+00  0.00000000000E+00  0.35578509075E+03  0.35578509075E+03  0.00000000000E+00 0.  1.
         21   -1    0    0  501  503 -0.00000000000E+00 -0.00000000000E+00 -0.12423683944E+03  0.12423683944E+03  0.00000000000E+00 0.  1.
          6    2    1    2  501    0 -0.83011500489E+02  0.61584356684E+02  0.41361408962E+02  0.20482060637E+03  0.17192199522E+03 0.  0.
         24    2    3    3    0    0 -0.49355156295E+02 -0.19907708883E+02  0.58674979834E+02  0.11484529870E+03  0.83153118094E+02 0.  0.
         -6    2    1    2    0  502  0.83011500489E+02 -0.61584356684E+02  0.19018684235E+03  0.27520132381E+03  0.16994467165E+03 0.  0.
        -24    2    5    5    0    0 -0.55006453443E+01 -0.57604638248E+02  0.13934985121E+03  0.17294318093E+03  0.84512788078E+02 0.  0.
          5    1    3    3  501    0 -0.33656344194E+02  0.81492065567E+02 -0.17313570872E+02  0.89975307675E+02  0.47000000000E+01 0. -1.
        -13    1    4    4    0    0 -0.55863738087E+02 -0.44086761476E+02  0.31294068186E+02  0.77741356267E+02  0.00000000000E+00 0.  1.
         14    1    4    4    0    0  0.65085817924E+01  0.24179052593E+02  0.27380911648E+02  0.37103942432E+02  0.00000000000E+00 0. -1.
         -5    1    5    5    0  502  0.88512145833E+02 -0.39797184357E+01  0.50836991138E+02  0.10225814289E+03  0.47000000000E+01 0.  1.
         11    1    6    6    0    0  0.58271105450E+01 -0.74912238762E+02  0.78460883890E+02  0.10863659160E+03  0.00000000000E+00 0. -1.
        -12    1    6    6    0    0 -0.11327755889E+02  0.17307600514E+02  0.60888967323E+02  0.64306589325E+02  0.00000000000E+00 0.  1.
</event>
<event>
12    1  0.8053217E-002  0.2115497E+03  0.7818608E-02  0.1140667E+00
         21   -1    0    0  501  502  0.00000000000E+00  0.00000000000E+00  0.17736109862E+03  0.17736109862E+03  0.00000000000E+00 0. -1.
         21   -1    0    0  502  503 -0.00000000000E+00 -0.00000000000E+00 -0.29969572240E+03  0.29969572240E+03  0.00000000000E+00 0. -1.
         -6    2    1    2    0  503 -0.28514510129E+01  0.12150595937E+03 -0.15812212694E+03  0.26411336787E+03  0.17315148029E+03 0.  0.
        -24    2    3    3    0    0 -0.52797059134E+02  0.26945035498E+02 -0.40612714481E+02  0.10515776366E+03  0.76780194646E+02 0.  0.
          6    2    1    2  501    0  0.28514510129E+01 -0.12150595937E+03  0.35787503166E+02  0.21294345315E+03  0.17115005090E+03 0.  0.
         24    2    5    5    0    0  0.13548128937E+02  0.70765281021E+01  0.11134620387E+02  0.81498675271E+02  0.79274366929E+02 0.  0.
          5    1    5    5  501    0 -0.10696677924E+02 -0.12858248747E+03  0.24652882779E+02  0.13144477788E+03  0.47000000000E+01 0. -1.
        -11    1    6    6    0    0  0.39328300588E+02  0.12932145724E+02  0.28146057312E+02  0.50061523772E+02  0.00000000000E+00 0.  1.
         12    1    6    6    0    0 -0.25780171651E+02 -0.58556176223E+01 -0.17011436925E+02  0.31437151499E+02  0.00000000000E+00 0. -1.
         -5    1    3    3    0  503  0.49945608121E+02  0.94560923868E+02 -0.11750941246E+03  0.15895560421E+03  0.47000000000E+01 0.  1.
         11    1    4    4    0    0 -0.12761576371E+02  0.46013104888E+02 -0.37480213232E+02  0.60702800898E+02  0.00000000000E+00 0. -1.
        -12    1    4    4    0    0 -0.40035482764E+02 -0.19068069390E+02 -0.31325012486E+01  0.44454962765E+02  0.00000000000E+00 0.  1.
</event>
<event>
12    1  0.8053217E-002  0.1858738E+03  0.7818608E-02  0.1162368E+00
         21   -1    0    0  503  502  0.00000000000E+00  0.00000000000E+00  0.80105703869E+03  0.80105703869E+03  0.00000000000E+00 0.  1.
         21   -1    0    0  501  503 -0.00000000000E+00 -0.00000000000E+00 -0.43983147362E+02  0.43983147362E+02  0.00000000000E+00 0.  1.
          6    2    1    2  501    0  0.66633066667E+02  0.17675637110E+02  0.31475157386E+03  0.36525054837E+03  0.17200876756E+03 0.  0.
         24    2    3    3    0    0  0.26610857000E+02  0.75136244810E+02  0.21736656109E+03  0.24521126557E+03  0.80788302910E+02 0.  0.
         -6    2    1    2    0  502 -0.66633066667E+02 -0.17675637110E+02  0.44232231747E+03  0.47978963769E+03  0.17261712016E+03 0.  0.
        -24    2    5    5    0    0 -0.57394958169E+02  0.51891905940E+02  0.30862682188E+03  0.32872156946E+03  0.82585736783E+02 0.  0.
          5    1    3    3  501    0  0.40022209667E+02 -0.57460607700E+02  0.97385012764E+02  0.12003928280E+03  0.47000000000E+01 0. -1.
        -11    1    4    4    0    0  0.30119705189E+02  0.54289138377E+01  0.21833626166E+02  0.37594906273E+02  0.00000000000E+00 0.  1.
         12    1    4    4    0    0 -0.35088481895E+01  0.69707330972E+02  0.19553293493E+03  0.20761635930E+03  0.00000000000E+00 0. -1.
         -5    1    5    5    0  502 -0.92381084977E+01 -0.69567543050E+02  0.13369549559E+03  0.15106806822E+03  0.47000000000E+01 0.  1.
         13    1    6    6    0    0 -0.12132551127E+02 -0.22701400476E+02  0.78302457047E+02  0.82424675675E+02  0.00000000000E+00 0. -1.
        -14    1    6    6    0    0 -0.45262407042E+02  0.74593306416E+02  0.23032436484E+03  0.24629689379E+03  0.00000000000E+00 0.  1.
</event>
<event>
12    1  0.8053217E-002  0.2017851E+03  0.7818608E-02  0.1148247E+00
         21   -1    0    0  503  502  0.00000000000E+00  0.00000000000E+00  0.25723811538E+03  0.25723811538E+03  0.00000000000E+00 0.  1.
         21   -1    0    0  501  503 -0.00000000000E+00 -0.00000000000E+00 -0.17788295238E+03  0.17788295238E+03  0.00000000000E+00 0.  1.
          6    2    1    2  501    0  0.86648634545E+02 -0.60282600426E+02  0.11192403171E+03  0.23072451556E+03  0.17194428000E+03 0.  0.
         24    2    3    3    0    0 -0.12880099190E+01 -0.90820164763E+02  0.47402698247E+02  0.11736451932E+03  0.57249046259E+02 0.  0.
         -6    2    1    2    0  502 -0.86648634545E+02  0.60282600426E+02 -0.32568868717E+02  0.20439655220E+03  0.17197453753E+03 0.  0.
        -24    2    5    5    0    0 -0.37694215676E+02  0.54679871831E+02  0.44923757340E+02  0.11244481057E+03  0.78834948925E+02 0.  0.
          5    1    3    3  501    0  0.87936644464E+02  0.30537564337E+02  0.64521333464E+02  0.11335999624E+03  0.47000000000E+01 0. -1.
        -13    1    4    4    0    0 -0.11350896798E+02 -0.49346023377E+02  0.54174034023E+02  0.74153211957E+02  0.00000000000E+00 0.  1.
         14    1    4    4    0    0  0.10062886879E+02 -0.41474141386E+02 -0.67713357758E+01  0.43211307365E+02  0.00000000000E+00 0. -1.
         -5    1    5    5    0  502 -0.48954418868E+02  0.56027285947E+01 -0.77492626057E+02  0.91951741624E+02  0.47000000000E+01 0.  1.
         13    1    6    6    0    0 -0.40620395451E+02  0.30584040361E+02 -0.10517217048E+02  0.51923134591E+02  0.00000000000E+00 0. -1.
        -14    1    6    6    0    0  0.29261797742E+01  0.24095831470E+02  0.55440974388E+02  0.60521675980E+02  0.00000000000E+00 0.  1.
</event>
<event>
12    1  0.8053217E-002  0.2135213E+03  0.7818608E-02  0.1138936E+00
         21   -1    0    0  503  502  0.00000000000E+00  0.00000000000E+00  0.29217542588E+03  0.29217542588E+03  0.00000000000E+00 0. -1.
         21   -1    0    0  501  503 -0.00000000000E+00 -0.00000000000E+00 -0.40166327889E+03  0.40166327889E+03  0.00000000000E+00 0. -1.
          6    2    1    2  501    0  0.11488068063E+03 -0.56186438718E+02 -0.32633304386E+03  0.38998025279E+03  0.17098788077E+03 0.  0.
         24    2    3    3    0    0  0.14267801513E+02 -0.44892012060E+02 -0.23848486712E+03  0.25585379129E+03  0.79795161288E+02 0.  0.
         -6    2    1    2    0  502 -0.11488068063E+03  0.56186438718E+02  0.21684519085E+03  0.30385845198E+03  0.17015767796E+03 0.  0.
        -24    2    5    5    0    0 -0.55261728269E+02  0.40136037469E+02  0.21819728721E+03  0.24192338094E+03  0.79070259798E+02 0.  0.
          5    1    3    3  501    0  0.10061287911E+03 -0.11294426658E+02 -0.87848176739E+02  0.13412646150E+03  0.47000000000E+01 0. -1.
        -13    1    4    4    0    0  0.34260323847E+02  0.49275327648E+01 -0.57880650925E+02  0.67440493183E+02  0.00000000000E+00 0.  1.
         14    1    4    4    0    0 -0.19992522334E+02 -0.49819544824E+02 -0.18060421620E+03  0.18841329811E+03  0.00000000000E+00 0. -1.
         -5    1    5    5    0  502 -0.59618952357E+02  0.16050401248E+02 -0.13520963611E+01  0.61935071042E+02  0.47000000000E+01 0.  1.
         11    1    6    6    0    0 -0.57920349911E+02  0.85587711170E+01  0.74396497498E+02  0.94672373673E+02  0.00000000000E+00 0. -1.
        -12    1    6    6    0    0  0.26586216422E+01  0.31577266352E+02  0.14380078971E+03  0.14725100727E+03  0.00000000000E+00 0.  1.
</event>
<event>
12    1  0.8053217E-002  0.1776419E+03  0.7818608E-02  0.1171046E+00
         21   -1    0    0  501  502  0.00000000000E+00  0.00000000000E+00  0.16065169259E+03  0.16065169259E+03  0.00000000000E+00 0. -1.
         21   -1    0    0  502  503 -0.00000000000E+00 -0.00000000000E+00 -0.27418814054E+03  0.27418814054E+03  0.00000000000E+00 0. -1.
         -6    2    1    2    0  503  0.28511221802E+01  0.23588544210E+02 -0.17517374602E+03  0.24680844135E+03  0.17223245081E+03 0.  0.
        -24    2    3    3    0    0  0.27415708245E+02  0.15430862472E+02 -0.15705557469E+02  0.85184928770E+02  0.77589142146E+02 0.  0.
          6    2    1    2  501    0 -0.28511221802E+01 -0.23588544210E+02  0.61637298062E+02  0.18803139179E+03  0.17604573119E+03 0.  0.
         24    2    5    5    0    0 -0.17575927521E+02  0.84127568715E-02  0.10653159860E+03  0.13501041017E+03  0.81055018683E+02 0.  0.
          5    1    5    5  501    0  0.14724805341E+02 -0.23596956967E+02 -0.44894300542E+02  0.53020981617E+02  0.47000000000E+01 0. -1.
        -11    1    6    6    0    0 -0.12862688638E+02  0.19681921450E+02 -0.29308585303E+01  0.23694233954E+02  0.00000000000E+00 0.  1.
         12    1    6    6    0    0 -0.47132388828E+01 -0.19673508693E+02  0.10946245713E+03  0.11131617621E+03  0.00000000000E+00 0. -1.
         -5    1    3    3    0  503 -0.24564586065E+02  0.81576817383E+01 -0.15946818855E+03  0.16162351258E+03  0.47000000000E+01 0.  1.
         11    1    4    4    0    0 -0.20954584064E+02  0.12634551412E+02 -0.25945464972E+02  0.35663617810E+02  0.00000000000E+00 0. -1.
        -12    1    4    4    0    0  0.48370292309E+02  0.27963110596E+01  0.10239907503E+02  0.49521310961E+02  0.00000000000E+00 0.  1.
</event>
<event>
12    1  0.8053217E-002  0.1811417E+03  0.7818608E-02  0.1167490E+00
         21   -1    0    0  503  502  0.00000000000E+00  0.00000000000E+00  0.41181306580E+03  0.41181306580E+03  0.00000000000E+00 0. -1.
         21   -1    0    0  501  503 -0.00000000000E+00 -0.00000000000E+00 -0.78376398354E+02  0.78376398354E+02  0.00000000000E+00 0. -1.
          6    2    1    2  501    0  0.54225287981E+02  0.13876506537E+01  0.15856338562E+03  0.24073774549E+03  0.17282941710E+03 0.  0.
         24    2    3    3    0    0 -0.22570468016E+02  0.79072470115E+01  0.23972175449E+02  0.85570167914E+02  0.78585226724E+02 0.  0.
         -6    2    1    2    0  502 -0.54225287981E+02 -0.13876506537E+01  0.17487328182E+03  0.24945171866E+03  0.16942015174E+03 0.  0.
        -24    2    5    5    0    0 -0.11910444424E+02  0.16417380944E+02  0.18596932223E+03  0.20198828802E+03  0.76179331858E+02 0.  0.
          5    1    3    3  501    0  0.76795755997E+02 -0.65195963578E+01  0.13459121018E+03  0.15516757758E+03  0.47000000000E+01 0. -1.
        -13    1    4    4    0    0 -0.11903972391E+02 -0.35407915514E+02  0.13743132420E+02  0.39803250224E+02  0.00000000000E+00 0.  1.
         14    1    4    4    0    0 -0.10666495626E+02  0.43315162525E+02  0.10229043029E+02  0.45766917690E+02  0.00000000000E+00 0. -1.
         -5    1    5    5    0  502 -0.42314843557E+02 -0.17805031598E+02 -0.11096040408E+02  0.47463430641E+02  0.47000000000E+01 0.  1.
         13    1    6    6    0    0 -0.28797194308E+02  0.13106639353E+02  0.25602232742E+02  0.40700573909E+02  0.00000000000E+00 0. -1.
        -14    1    6    6    0    0  0.16886749885E+02  0.33107415917E+01  0.16036708949E+03  0.16128771411E+03  0.00000000000E+00 0.  1.
</event>
<event>
12    1  0.8053217E-002  0.2004575E+03  0.7818608E-02  0.1149762E+00
         21   -1    0    0  503  502  0.00000000000E+00  0.00000000000E+00  0.15441517816E+04  0.15441517816E+04  0.00000000000E+00 0.  1.
         21   -1    0    0  501  503 -0.00000000000E+00 -0.00000000000E+00 -0.25864694350E+02  0.25864694350E+02  0.00000000000E+00 0. -1.
          6    2    1    2  501    0  0.71589650638E+02  0.73313563817E+02  0.80971472171E+03  0.83415894929E+03  0.17228832059E+03 0.  0.
         24    2    3    3    0    0 -0.16829819590E+02  0.90833031008E+02  0.42858427012E+03  0.44248632378E+03  0.59797891166E+02 0.  0.
         -6    2    1    2    0  502 -0.71589650638E+02 -0.73313563817E+02  0.70857236556E+03  0.73585752668E+03  0.17003395431E+03 0.  0.
        -24    2    5    5    0    0 -0.11422567172E+03 -0.38630107682E+02  0.49178787327E+03  0.51216492841E+03  0.76927318278E+02 0.  0.
          5    1    3    3  501    0  0.88419470228E+02 -0.17519467191E+02  0.38113045159E+03  0.39167262551E+03  0.47000000000E+01 0. -1.
        -11    1    4    4    0    0 -0.27366142266E+02  0.23453791711E+02  0.22278580812E+03  0.22568230411E+03  0.00000000000E+00 0.  1.
         12    1    4    4    0    0  0.10536322675E+02  0.67379239297E+02  0.20579846200E+03  0.21680401967E+03  0.00000000000E+00 0. -1.
         -5    1    5    5    0  502  0.42636021084E+02 -0.34683456135E+02  0.21678449229E+03  0.22369259827E+03  0.47000000000E+01 0.  1.
         11    1    6    6    0    0 -0.38137429329E+02  0.17651758441E+02  0.22969972007E+03  0.23351233263E+03  0.00000000000E+00 0. -1.
        -12    1    6    6    0    0 -0.76088242393E+02 -0.56281866123E+02  0.26208815320E+03  0.27865259578E+03  0.00000000000E+00 0.  1.
</event>
<event>
12    1  0.8053217E-002  0.2251543E+03  0.7818608E-02  0.1130367E+00
         21   -1    0    0  501  502  0.00000000000E+00  0.00000000000E+00  0.80496868217E+02  0.80496868217E+02  0.00000000000E+00 0.  1.
         21   -1    0    0  502  503 -0.00000000000E+00 -0.00000000000E+00 -0.62859777772E+03  0.62859777772E+03  0.00000000000E+00 0.  1.
         -6    2    1    2    0  503  0.80260452243E+02  0.12019201891E+03 -0.29752930256E+03  0.37222587248E+03  0.17070604164E+03 0.  0.
        -24    2    3    3    0    0  0.11987685485E+03  0.82889273712E+02 -0.20173747588E+03  0.26195748075E+03  0.81747296705E+02 0.  0.
          6    2    1    2  501    0 -0.80260452243E+02 -0.12019201891E+03 -0.25057160694E+03  0.33686877346E+03  0.17264581873E+03 0.  0.
         24    2    5    5    0    0 -0.43366944567E+02 -0.10086843926E+03 -0.62261248849E+02  0.14395062345E+03  0.69211162132E+02 0.  0.
          5    1    5    5  501    0 -0.36893507676E+02 -0.19323579648E+02 -0.18831035809E+03  0.19291815001E+03  0.47000000000E+01 0. -1.
        -11    1    6    6    0    0 -0.46809496799E+02 -0.29756857863E+02 -0.43038810177E+02  0.70206401146E+02  0.00000000000E+00 0.  1.
         12    1    6    6    0    0  0.34425522318E+01 -0.71111581401E+02 -0.19222438673E+02  0.73744222307E+02  0.00000000000E+00 0. -1.
         -5    1    3    3    0  503 -0.39616402610E+02  0.37302745200E+02 -0.95791826681E+02  0.11026839173E+03  0.47000000000E+01 0.  1.
         13    1    4    4    0    0 -0.11009272342E+02  0.30182629486E+01 -0.48391238376E+01  0.12398834955E+02  0.00000000000E+00 0. -1.
        -14    1    4    4    0    0  0.13088612719E+03  0.79871010763E+02 -0.19689835205E+03  0.24955864579E+03  0.00000000000E+00 0.  1.
</event>
<event>
12    1  0.8053217E-002  0.1912479E+03  0.7818608E-02  0.1158201E+00
         21   -1    0    0  501  502  0.00000000000E+00  0.00000000000E+00  0.22857831503E+04  0.22857831503E+04  0.00000000000E+00 0. -1.
         21   -1    0    0  502  503 -0.00000000000E+00 -0.00000000000E+00 -0.22456673189E+02  0.22456673189E+02  0.00000000000E+00 0.  1.
         -6    2    1    2    0  503 -0.17120943445E+02 -0.76432234313E+02  0.50584798710E+03  0.54079381811E+03  0.17447279016E+03 0.  0.
        -24    2    3    3    0    0 -0.41999876177E+02  0.20295313336E+02  0.28640662660E+03  0.29964701538E+03  0.74724083959E+02 0.  0.
          6    2    1    2  501    0  0.17120943445E+02  0.76432234313E+02  0.17574784900E+04  0.17674460054E+04  0.17029305899E+03 0.  0.
         24    2    5    5    0    0  0.48982258909E+02  0.10107052313E+03  0.91331387884E+03  0.92230804655E+03  0.62412972366E+02 0.  0.
          5    1    5    5  501    0 -0.31861315463E+02 -0.24638288820E+02  0.84416461120E+03  0.84513795886E+03  0.47000000000E+01 0. -1.
        -13    1    6    6    0    0  0.39192287290E+02  0.18516883671E+02  0.24017272755E+03  0.24405296438E+03  0.00000000000E+00 0.  1.
         14    1    6    6    0    0  0.97899716187E+01  0.82553639462E+02  0.67314115129E+03  0.67825508217E+03  0.00000000000E+00 0. -1.
         -5    1    3    3    0  503  0.24878932732E+02 -0.96727547649E+02  0.21944136050E+03  0.24114680273E+03  0.47000000000E+01 0.  1.
         11    1    4    4    0    0  0.16888197423E+01  0.39528335337E+02  0.14996482983E+03  0.15509607214E+03  0.00000000000E+00 0. -1.
        -12    1    4    4    0    0 -0.43688695919E+02 -0.19233022000E+02  0.13644179677E+03  0.14455094324E+03  0.00000000000E+00 0.  1.
</event>
<event>
12    1  0.8053217E-002  0.2810833E+03  0.7818608E-02  0.1095172E+00
         21   -1    0    0  503  502  0.00000000000E+00  0.00000000000E+00  0.54240455165E+03  0.54240455165E+03  0.00000000000E+00 0. -1.
         21   -1    0    0  501  503 -0.00000000000E+00 -0.00000000000E+00 -0.69137935154E+03  0.69137935154E+03  0.00000000000E+00 0.  1.
          6    2    1    2  501    0  0.11233939872E+03 -0.19149496218E+03 -0.62271001340E+03  0.68320977528E+03  0.17238728261E+03 0.  0.
         24    2    3    3    0    0  0.12137845478E+03 -0.21269561434E+03 -0.56508810762E+03  0.62097195549E+03  0.79432024315E+02 0.  0.
         -6    2    1    2    0  502 -0.11233939872E+03  0.19149496218E+03  0.47373521352E+03  0.55057412791E+03  0.17151197261E+03 0.  0.
        -24    2    5    5    0    0 -0.14360990733E+03  0.16534274513E+03  0.33770687050E+03  0.40849111249E+03  0.69692393783E+02 0.  0.
          5    1    3    3  501    0 -0.90390560624E+01  0.21200652161E+02 -0.57621905785E+02  0.62237819795E+02  0.47000000000E+01 0. -1.
        -11    1    4    4    0    0  0.44670989406E+02 -0.12411843487E+03 -0.21981908904E+03  0.25636168800E+03  0.00000000000E+00 0.  1.
         12    1    4    4    0    0  0.76707465372E+02 -0.88577179477E+02 -0.34526901858E+03  0.36461026749E+03  0.00000000000E+00 0. -1.
         -5    1    5    5    0  502  0.31270508614E+02  0.26152217056E+02  0.13602834302E+03  0.14208301542E+03  0.47000000000E+01 0.  1.
         13    1    6    6    0    0 -0.87319773642E+02  0.48067274900E+02  0.14176098547E+03  0.17329565138E+03  0.00000000000E+00 0. -1.
        -14    1    6    6    0    0 -0.56290133688E+02  0.11727547023E+03  0.19594588503E+03  0.23519546111E+03  0.00000000000E+00 0.  1.
</event>
<event>
12    1  0.8053217E-002  0.1734966E+03  0.7818608E-02  0.1174290E+00
         21   -1    0    0  503  502  0.00000000000E+00  0.00000000000E+00  0.10878198078E+04  0.10878198078E+04  0.00000000000E+00 0. -1.
         21   -1    0    0  501  503 -0.00000000000E+00 -0.00000000000E+00 -0.35369655561E+02  0.35369655561E+02  0.00000000000E+00 0. -1.
          6    2    1    2  501    0 -0.12739885289E+02  0.11779793131E+02  0.26397523574E+03  0.31588604148E+03  0.17262675897E+03 0.  0.
         24    2    3    3    0    0  0.15967377012E+02  0.65599496681E+02  0.21137892623E+03  0.23520686713E+03  0.77993389455E+02 0.  0.
         -6    2    1    2    0  502  0.12739885289E+02 -0.11779793131E+02  0.78847491653E+03  0.80730342191E+03  0.17246754139E+03 0.  0.
        -24    2    5    5    0    0  0.71409646107E+02  0.17587524133E+02  0.56631830958E+03  0.57561348219E+03  0.72151192305E+02 0.  0.
          5    1    3    3  501    0 -0.28707262301E+02 -0.53819703550E+02  0.52596309511E+02  0.80679174347E+02  0.47000000000E+01 0. -1.
        -13    1    4    4    0    0  0.20432661880E+02  0.65237146150E+02  0.86523096512E+02  0.11027069030E+03  0.00000000000E+00 0.  1.
         14    1    4    4    0    0 -0.44652848681E+01  0.36235053117E+00  0.12485582972E+03  0.12493617683E+03  0.00000000000E+00 0. -1.
         -5    1    5    5    0  502 -0.58669760819E+02 -0.29367317264E+02  0.22215660694E+03  0.23168993971E+03  0.47000000000E+01 0.  1.
         11    1    6    6    0    0  0.23400617123E+02  0.31090508023E+02  0.40238099889E+03  0.40425818092E+03  0.00000000000E+00 0. -1.
        -12    1    6    6    0    0  0.48009028985E+02 -0.13502983891E+02  0.16393731069E+03  0.17135530128E+03  0.00000000000E+00 0.  1.
</event>
<event>
12    1  0.8053217E-002  0.1770543E+03  0.7818608E-02  0.1170699E+00
         21   -1    0    0  503  502  0.00000000000E+00  0.00000000000E+00  0.45363663660E+02  0.45363663660E+02  0.00000000000E+00 0.  1.
         21   -1    0    0  501  503 -0.00000000000E+00 -0.00000000000E+00 -0.12441775371E+04  0.12441775371E+04  0.00000000000E+00 0.  1.
          6    2    1    2  501    0  0.32665258512E+01  0.41904433710E+02 -0.10293515877E+04  0.10444581940E+04  0.17193480216E+03 0.  0.
         24    2    3    3    0    0 -0.33866329975E+02 -0.35354775919E+02 -0.63822643380E+03  0.64402241831E+03  0.70957776147E+02 0.  0.
         -6    2    1    2    0  502 -0.32665258512E+01 -0.41904433710E+02 -0.16946228574E+03  0.24508300674E+03  0.17199291308E+03 0.  0.
        -24    2    5    5    0    0  0.16565449889E+02 -0.65095508043E+01 -0.18565292620E+03  0.20114746490E+03  0.75342585896E+02 0.  0.
          5    1    3    3  501    0  0.37132855826E+02  0.77259209629E+02 -0.39112515390E+03  0.40043577571E+03  0.47000000000E+01 0. -1.
        -13    1    4    4    0    0 -0.40153826415E+00  0.20788695119E+02 -0.16413112557E+03  0.16544291299E+03  0.00000000000E+00 0.  1.
         14    1    4    4    0    0 -0.33464791711E+02 -0.56143471039E+02 -0.47409530823E+03  0.47857950531E+03  0.00000000000E+00 0. -1.
         -5    1    5    5    0  502 -0.19831975740E+02 -0.35394882905E+02  0.16190640464E+02  0.43935541834E+02  0.47000000000E+01 0.  1.
         13    1    6    6    0    0  0.42398385203E+02 -0.12460646542E+02 -0.72300019792E+02  0.84735964277E+02  0.00000000000E+00 0. -1.
        -14    1    6    6    0    0 -0.25832935313E+02  0.59510957376E+01 -0.11335290641E+03  0.11641150063E+03  0.00000000000E+00 0.  1.
</event>
<event>
12    1  0.8053217E-002  0.3497916E+03  0.7818608E-02  0.1062892E+00
         21   -1    0    0  501  502  0.00000000000E+00  0.00000000000E+00  0.21495729813E+04  0.21495729813E+04  0.00000000000E+00 0.  1.
         21   -1    0    0  502  503 -0.00000000000E+00 -0.00000000000E+00 -0.56628559601E+02  0.56628559601E+02  0.00000000000E+00 0. -1.
         -6    2    1    2    0  503 -0.94502570574E+02 -0.28864163363E+03  0.10289651757E+04  0.10861988500E+04  0.16974651781E+03 0.  0.
        -24    2    3    3    0    0 -0.13082499386E+02 -0.13479981514E+03  0.32902609152E+03  0.36492681758E+03  0.81063378511E+02 0.  0.
          6    2    1    2  501    0  0.94502570574E+02  0.28864163363E+03  0.10639792459E+04  0.11200026909E+04  0.17352078641E+03 0.  0.
         24    2    5    5    0    0  0.12113961784E+03  0.26961776699E+03  0.10189736374E+04  0.10641543732E+04  0.82150526399E+02 0.  0.
          5    1    5    5  501    0 -0.26637047266E+02  0.19023866640E+02  0.45005608475E+02  0.55848317640E+02  0.47000000000E+01 0. -1.
        -11    1    6    6    0    0  0.11023661010E+03  0.17428398808E+03  0.60410992353E+03  0.63833832598E+03  0.00000000000E+00 0.  1.
         12    1    6    6    0    0  0.10903007735E+02  0.95333778909E+02  0.41486371390E+03  0.42581604725E+03  0.00000000000E+00 0. -1.
         -5    1    3    3    0  503 -0.81420071188E+02 -0.15384181850E+03  0.69993908423E+03  0.72127203241E+03  0.47000000000E+01 0.  1.
         13    1    4    4    0    0 -0.51604618936E+01 -0.99293639045E+02  0.30629773035E+03  0.32203129776E+03  0.00000000000E+00 0. -1.
        -14    1    4    4    0    0 -0.79220374920E+01 -0.35506176093E+02  0.22728361171E+02  0.42895519816E+02  0.00000000000E+00 0.  1.
</event>
<event>
12    1  0.8053217E-002  0.2424800E+03  0.7818608E-02  0.1118227E+00
         21   -1    0    0  501  502  0.00000000000E+00  0.00000000000E+00  0.44811656317E+03  0.44811656317E+03  0.00000000000E+00 0. -1.
         21   -1    0    0  502  503 -0.00000000000E+00 -0.00000000000E+00 -0.14094827318E+03  0.14094827318E+03  0.00000000000E+00 0.  1.
         -6    2    1    2    0  503  0.10310592841E+03  0.13557253456E+03  0.75316243126E+02  0.25390767882E+03  0.17258571287E+03 0.  0.
        -24    2    3    3    0    0 -0.14727683848E+02  0.58675140936E+02  0.41494970489E+02  0.10911839121E+03  0.80779415007E+02 0.  0.
          6    2    1    2  501    0 -0.10310592841E+03 -0.13557253456E+03  0.23185204686E+03  0.33515715753E+03  0.17194244388E+03 0.  0.
         24    2    5    5    0    0 -0.43204047139E+02 -0.38033285353E+02  0.18483166894E+03  0.21132199913E+03  0.84741495085E+02 0.  0.
          5    1    5    5  501    0 -0.59901881275E+02 -0.97539249205E+02  0.47020377920E+02  0.12383515840E+03  0.47000000000E+01 0. -1.
        -11    1    6    6    0    0 -0.36376161770E+01 -0.43338789621E+02  0.33736487111E+02  0.55042106608E+02  0.00000000000E+00 0.  1.
         12    1    6    6    0    0 -0.39566430962E+02  0.53055042678E+01  0.15109518183E+03  0.15627989252E+03  0.00000000000E+00 0. -1.
         -5    1    3    3    0  503  0.11783361226E+03  0.76897393623E+02  0.33821272638E+02  0.14478928761E+03  0.47000000000E+01 0.  1.
         13    1    4    4    0    0  0.13529016946E+02  0.45071673061E+02  0.57179689108E+02  0.74054080634E+02  0.00000000000E+00 0. -1.
        -14    1    4    4    0    0 -0.28256700793E+02  0.13603467875E+02 -0.15684718619E+02  0.35064310575E+02  0.00000000000E+00 0.  1.
</event>
<event>
12    1  0.8053217E-002  0.1997687E+03  0.7818608E-02  0.1150127E+00
         21   -1    0    0  501  502  0.00000000000E+00  0.00000000000E+00  0.19853625032E+03  0.19853625032E+03  0.00000000000E+00 0. -1.
         21   -1    0    0  502  503 -0.00000000000E+00 -0.00000000000E+00 -0.24811381018E+03  0.24811381018E+03  0.00000000000E+00 0. -1.
         -6    2    1    2    0  503 -0.98442442892E+01  0.10049856174E+03  0.73504418882E+02  0.21200844408E+03  0.17131202734E+03 0.  0.
        -24    2    3    3    0    0 -0.40172803264E+00  0.19195800440E+02 -0.22910457498E+02  0.85449293898E+02  0.80050313085E+02 0.  0.
          6    2    1    2  501    0  0.98442442892E+01 -0.10049856174E+03 -0.12308197874E+03  0.23464161641E+03  0.17236775976E+03 0.  0.
         24    2    5    5    0    0  0.72273886949E+02 -0.79827113391E+02 -0.84832654205E+02  0.15841911392E+03  0.79398700664E+02 0.  0.
          5    1    5    5  501    0 -0.62429642660E+02 -0.20671448345E+02 -0.38249324536E+02  0.76222502496E+02  0.47000000000E+01 0. -1.
        -11    1    6    6    0    0  0.40596519226E+02  0.68402605741E+01 -0.31526153038E+02  0.51853301374E+02  0.00000000000E+00 0.  1.
         12    1    6    6    0    0  0.31677367723E+02 -0.86667373966E+02 -0.53306501166E+02  0.10656581254E+03  0.00000000000E+00 0. -1.
         -5    1    3    3    0  503 -0.94425162566E+01  0.81302761297E+02  0.96414876379E+02  0.12655915018E+03  0.47000000000E+01 0.  1.
         13    1    4    4    0    0  0.15353908713E+02  0.42425619412E+02  0.55709631986E+01  0.45461096844E+02  0.00000000000E+00 0. -1.
        -14    1    4    4    0    0 -0.15755636746E+02 -0.23229818973E+02 -0.28481420696E+02  0.39988197054E+02  0.00000000000E+00 0.  1.
</event>
<event>
12    1  0.8053217E-002  0.2174524E+03  0.7818608E-02  0.1135932E+00
         21   -1    0    0  501  502  0.00000000000E+00  0.00000000000E+00  0.45391563093E+03  0.45391563093E+03  0.00000000000E+00 0.  1.
         21   -1    0    0  502  503 -0.00000000000E+00 -0.00000000000E+00 -0.10451376618E+03  0.10451376618E+03  0.00000000000E+00 0.  1.
         -6    2    1    2    0  503  0.42336448253E+02  0.12522481315E+03  0.19755077951E+03  0.29378880930E+03  0.17266130229E+03 0.  0.
        -24    2    3    3    0    0  0.31114804638E+02  0.48977786736E+02  0.19287605884E+03  0.21643586925E+03  0.79223460929E+02 0.  0.
          6    2    1    2  501    0 -0.42336448253E+02 -0.12522481315E+03  0.15185108524E+03  0.26464058781E+03  0.17176221921E+03 0.  0.
         24    2    5    5    0    0 -0.60840733069E+00 -0.13258701169E+03  0.15858903806E+03  0.22147901491E+03  0.79515943217E+02 0.  0.
          5    1    5    5  501    0 -0.41728040922E+02  0.73621985472E+01 -0.67379528141E+01  0.43161572895E+02  0.47000000000E+01 0. -1.
        -11    1    6    6    0    0 -0.34065216361E+02 -0.40606235027E+02  0.33712357987E+02  0.62815828975E+02  0.00000000000E+00 0.  1.
         12    1    6    6    0    0  0.33456809030E+02 -0.91980776666E+02  0.12487668007E+03  0.15866318594E+03  0.00000000000E+00 0. -1.
         -5    1    3    3    0  503  0.11221643615E+02  0.76247026410E+02  0.46747206665E+01  0.77352940054E+02  0.47000000000E+01 0.  1.
         13    1    4    4    0    0  0.51877682312E+02  0.83196302400E+01  0.10448647673E+03  0.11695269979E+03  0.00000000000E+00 0. -1.
        -14    1    4    4    0    0 -0.20762877674E+02  0.40658156496E+02  0.88389582115E+02  0.99483169458E+02  0.00000000000E+00 0.  1.
</event>
<event>
12    1  0.8053217E-002  0.1856349E+03  0.7818608E-02  0.1163586E+00
         21   -1    0    0  503  502  0.00000000000E+00  0.00000000000E+00  0.50564921816E+03  0.50564921816E+03  0.00000000000E+00 0.  1.
         21   -1    0    0  501  503 -0.00000000000E+00 -0.00000000000E+00 -0.83604914322E+02  0.83604914322E+02  0.00000000000E+00 0.  1.
          6    2    1    2  501    0  0.50622329201E+01 -0.70729679816E+02  0.75213891060E+02  0.19586927655E+03  0.16637106202E+03 0.  0.
         24    2    3    3    0    0  0.37926431829E+02 -0.76894702458E+02  0.42087383973E+01  0.11724431373E+03  0.79858037324E+02 0.  0.
         -6    2    1    2    0  502 -0.50622329201E+01  0.70729679816E+02  0.34683041278E+03  0.39338485593E+03  0.17155755839E+03 0.  0.
        -24    2    5    5    0    0 -0.41044357444E+02  0.70523094726E+02  0.13183122660E+03  0.17534473114E+03  0.81903334875E+02 0.  0.
          5    1    3    3  501    0 -0.32864198909E+02  0.61650226418E+01  0.71005152662E+02  0.78624962822E+02  0.47000000000E+01 0. -1.
        -13    1    4    4    0    0  0.47885447625E+02 -0.68589858487E+02  0.29599460155E+02  0.88733944029E+02  0.00000000000E+00 0.  1.
         14    1    4    4    0    0 -0.99590157956E+01 -0.83048439706E+01 -0.25390721758E+02  0.28510369699E+02  0.00000000000E+00 0. -1.
         -5    1    5    5    0  502  0.35982124524E+02  0.20658509013E+00  0.21499918618E+03  0.21804012479E+03  0.47000000000E+01 0.  1.
         11    1    6    6    0    0  0.22551218514E+01 -0.14054947948E+02  0.42908759229E+02  0.45208281928E+02  0.00000000000E+00 0. -1.
        -12    1    6    6    0    0 -0.43299479295E+02  0.84578042673E+02  0.88922467371E+02  0.13013644921E+03  0.00000000000E+00 0.  1.
</event>
<event>
12    1  0.8053217E-002  0.1933440E+03  0.7818608E-02  0.1155661E+00
         21   -1    0    0  501  502  0.00000000000E+00  0.00000000000E+00  0.56363974997E+03  0.56363974997E+03  0.00000000000E+00 0.  1.
         21   -1    0    0  502  503 -0.00000000000E+00 -0.00000000000E+00 -0.66267501844E+02  0.66267501844E+02  0.00000000000E+00 0.  1.
         -6    2    1    2    0  503  0.69829839241E+02  0.48780068423E+02  0.26661522404E+03  0.32885788814E+03  0.17265031533E+03 0.  0.
        -24    2    3    3    0    0  0.13657152045E+02  0.62061184097E+02  0.70147188709E+02  0.12403226053E+03  0.80157751939E+02 0.  0.
          6    2    1    2  501    0 -0.69829839241E+02 -0.48780068423E+02  0.23075702409E+03  0.30104936368E+03  0.17356904585E+03 0.  0.
         24    2    5    5    0    0 -0.10467090022E+03 -0.42615335483E+02  0.22558016999E+03  0.26498285177E+03  0.80977987556E+02 0.  0.
          5    1    5    5  501    0  0.34841060983E+02 -0.61647329400E+01  0.51768541073E+01  0.36066511906E+02  0.47000000000E+01 0. -1.
        -11    1    6    6    0    0 -0.69019378461E+02 -0.29198491542E+02  0.62711271043E+02  0.97718626818E+02  0.00000000000E+00 0.  1.
         12    1    6    6    0    0 -0.35651521763E+02 -0.13416843941E+02  0.16286889894E+03  0.16726422495E+03  0.00000000000E+00 0. -1.
         -5    1    3    3    0  503  0.56172687196E+02 -0.13281115674E+02  0.19646803533E+03  0.20482562761E+03  0.47000000000E+01 0.  1.
         11    1    4    4    0    0  0.12581963123E+02  0.23184438085E+02 -0.15055822970E+02  0.30372714246E+02  0.00000000000E+00 0. -1.
        -12    1    4    4    0    0  0.10751889218E+01  0.38876746011E+02  0.85203011679E+02  0.93659546288E+02  0.00000000000E+00 0.  1.
</event>
<event>
12    1  0.8053217E-002  0.2739224E+03  0.7818608E-02  0.1099190E+00
         21   -1    0    0  501  502  0.00000000000E+00  0.00000000000E+00  0.56246284517E+03  0.56246284517E+03  0.00000000000E+00 0. -1.
         21   -1    0    0  502  503 -0.00000000000E+00 -0.00000000000E+00 -0.28691069861E+03  0.28691069861E+03  0.00000000000E+00 0.  1.
         -6    2    1    2    0  503  0.13233044084E+03  0.16643984730E+03 -0.17345057657E+03  0.32341070994E+03  0.17116020697E+03 0.  0.
        -24    2    3    3    0    0  0.55788467414E+02  0.16441758806E+03 -0.95533673014E+02  0.21406768507E+03  0.80949334482E+02 0.  0.
          6    2    1    2  501    0 -0.13233044084E+03 -0.16643984730E+03  0.44900272313E+03  0.52596283384E+03  0.17268436195E+03 0.  0.
         24    2    5    5    0    0 -0.15762217088E+03 -0.15646771849E+03  0.43539188100E+03  0.49519824405E+03  0.79550708276E+02 0.  0.
          5    1    5    5  501    0  0.25291730042E+02 -0.99721288147E+01  0.13610842131E+02  0.30764589793E+02  0.47000000000E+01 0. -1.
        -13    1    6    6    0    0 -0.13070769962E+03 -0.10904891591E+03  0.25381207483E+03  0.30560879917E+03  0.00000000000E+00 0.  1.
         14    1    6    6    0    0 -0.26914471261E+02 -0.47418802581E+02  0.18157980617E+03  0.18958944488E+03  0.00000000000E+00 0. -1.
         -5    1    3    3    0  503  0.76541973422E+02  0.20222592435E+01 -0.77916903556E+02  0.10934302487E+03  0.47000000000E+01 0.  1.
         11    1    4    4    0    0  0.72355293316E+02  0.15553176813E+03 -0.92916764933E+02  0.19508701796E+03  0.00000000000E+00 0. -1.
        -12    1    4    4    0    0 -0.16566825902E+02  0.88858199239E+01 -0.26169080807E+01  0.18980667114E+02  0.00000000000E+00 0.  1.
</event>
<event>
12    1  0.8053217E-002  0.2068047E+03  0.7818608E-02  0.1144283E+00
         21   -1    0    0  501  502  0.00000000000E+00  0.00000000000E+00  0.26807563808E+04  0.26807563808E+04  0.00000000000E+00 0.  1.
         21   -1    0    0  502  503 -0.00000000000E+00 -0.00000000000E+00 -0.83907147835E+02  0.83907147835E+02  0.00000000000E+00 0.  1.
         -6    2    1    2    0  503 -0.97368703565E+02  0.59952254018E+02  0.53394960039E+02  0.21281560521E+03  0.17136079735E+03 0.  0.
        -24    2    3    3    0    0 -0.47437409100E+02 -0.24963181180E+02  0.64975618980E+02  0.11351823886E+03  0.76099220078E+02 0.  0.
          6    2    1    2  501    0  0.97368703565E+02 -0.59952254018E+02  0.25434542729E+04  0.25518479234E+04  0.17231729053E+03 0.  0.
         24    2    5    5    0    0  0.75555712525E+02 -0.66137990208E+02  0.24942402293E+04  0.24974587517E+04  0.77349825890E+02 0.  0.
          5    1    5    5  501    0  0.21812991040E+02  0.61857361900E+01  0.49214043647E+02  0.54389171739E+02  0.47000000000E+01 0. -1.
        -13    1    6    6    0    0  0.19353692226E+02 -0.30214461801E+02  0.17131277268E+04  0.17135034542E+04  0.00000000000E+00 0.  1.
         14    1    6    6    0    0  0.56202020299E+02 -0.35923528408E+02  0.78111250247E+03  0.78395529751E+03  0.00000000000E+00 0. -1.
         -5    1    3    3    0  503 -0.49931294464E+02  0.84915435199E+02 -0.11580658941E+02  0.99297366347E+02  0.47000000000E+01 0.  1.
         11    1    4    4    0    0 -0.48614188758E+02 -0.68079630593E+01  0.77281506413E+02  0.91553912768E+02  0.00000000000E+00 0. -1.
        -12    1    4    4    0    0  0.11767796575E+01 -0.18155218121E+02 -0.12305887433E+02  0.21964326097E+02  0.00000000000E+00 0.  1.
</event>
<event>
12    1  0.8053217E-002  0.1742195E+03  0.7818608E-02  0.1173689E+00
         21   -1    0    0  501  502  0.00000000000E+00  0.00000000000E+00  0.57160063896E+02  0.57160063896E+02  0.00000000000E+00 0. -1.
         21   -1    0    0  502  503 -0.00000000000E+00 -0.00000000000E+00 -0.72860849286E+03  0.72860849286E+03  0.00000000000E+00 0. -1.
         -6    2    1    2    0  503  0.26889480877E+01 -0.25834073113E+02 -0.54186620335E+03  0.56918485606E+03  0.17227242455E+03 0.  0.
        -24    2    3    3    0    0 -0.29510349686E+02 -0.34397406146E+02 -0.52241304986E+03  0.53031789541E+03  0.79168385346E+02 0.  0.
          6    2    1    2  501    0 -0.26889480877E+01  0.25834073113E+02 -0.12958222561E+03  0.21658370070E+03  0.17158763486E+03 0.  0.
         24    2    5    5    0    0 -0.57227234235E+02  0.40988841168E+01 -0.12257882766E+03  0.15727113306E+03  0.80105449965E+02 0.  0.
          5    1    5    5  501    0  0.54538286147E+02  0.21735188996E+02 -0.70033979527E+01  0.59312567635E+02  0.47000000000E+01 0. -1.
        -11    1    6    6    0    0 -0.93141226670E+01 -0.34908667395E+02 -0.36937849173E+02  0.51669842673E+02  0.00000000000E+00 0.  1.
         12    1    6    6    0    0 -0.47913111568E+02  0.39007551511E+02 -0.85640978489E+02  0.10560129039E+03  0.00000000000E+00 0. -1.
         -5    1    3    3    0  503  0.32199297774E+02  0.85633330326E+01 -0.19453153492E+02  0.38866960655E+02  0.47000000000E+01 0.  1.
         13    1    4    4    0    0  0.26781656008E+02 -0.17835612356E+02 -0.20840856216E+03  0.21087791480E+03  0.00000000000E+00 0. -1.
        -14    1    4    4    0    0 -0.56292005694E+02 -0.16561793790E+02 -0.31400448770E+03  0.31943998061E+03  0.00000000000E+00 0.  1.
</event>
<event>
12    1  0.8053217E-002  0.1900943E+03  0.7818608E-02  0.1158792E+00
         21   -1    0    0  501  502  0.00000000000E+00  0.00000000000E+00  0.25986716233E+02  0.25986716233E+02  0.00000000000E+00 0.  1.
         21   -1    0    0  502  503 -0.00000000000E+00 -0.00000000000E+00 -0.14007163197E+04  0.14007163197E+04  0.00000000000E+00 0.  1.
         -6    2    1    2    0  503 -0.22058688692E+02 -0.74790216958E+02 -0.77661832320E+03  0.79911006476E+03  0.17134968160E+03 0.  0.
        -24    2    3    3    0    0  0.87590117847E+01 -0.10816825412E+03 -0.66804074224E+03  0.68131785316E+03  0.78348530661E+02 0.  0.
          6    2    1    2  501    0  0.22058688692E+02  0.74790216958E+02 -0.59811128022E+03  0.62759297112E+03  0.17336571625E+03 0.  0.
         24    2    5    5    0    0  0.52863010951E+02  0.93116717891E+02 -0.55821871249E+03  0.57375735218E+03  0.78256930246E+02 0.  0.
          5    1    5    5  501    0 -0.30804322259E+02 -0.18326500933E+02 -0.39892567735E+02  0.53835618941E+02  0.47000000000E+01 0. -1.
        -13    1    6    6    0    0  0.42911922866E+02  0.24047503094E+02 -0.36546947731E+03  0.36876503953E+03  0.00000000000E+00 0.  1.
         14    1    6    6    0    0  0.99510880852E+01  0.69069214797E+02 -0.19274923517E+03  0.20499231265E+03  0.00000000000E+00 0. -1.
         -5    1    3    3    0  503 -0.30817700477E+02  0.33378037166E+02 -0.10857758096E+03  0.11779221160E+03  0.47000000000E+01 0.  1.
         11    1    4    4    0    0  0.20471271565E+02 -0.45864118812E+02 -0.12692379823E+03  0.13649996670E+03  0.00000000000E+00 0. -1.
        -12    1    4    4    0    0 -0.11712259781E+02 -0.62304135313E+02 -0.54111694401E+03  0.54481788646E+03  0.00000000000E+00 0.  1.
</event>
<event>
12    1  0.8053217E-002  0.2014710E+03  0.7818608E-02  0.1148664E+00
         21   -1    0    0  503  502  0.00000000000E+00  0.00000000000E+00  0.18536651188E+04  0.18536651188E+04  0.00000000000E+00 0. -1.
         21   -1    0    0  501  503 -0.00000000000E+00 -0.00000000000E+00 -0.33236383994E+02  0.33236383994E+02  0.00000000000E+00 0. -1.
          6    2    1    2  501    0  0.10393064053E+03 -0.57819059444E+01  0.35601372491E+03  0.40869249364E+03  0.17160644963E+03 0.  0.
         24    2    3    3    0    0  0.27528436148E+02  0.54671478320E+02  0.15312877135E+03  0.18357851610E+03  0.80658946299E+02 0.  0.
         -6    2    1    2    0  502 -0.10393064053E+03  0.57819059444E+01  0.14644150099E+04  0.14782090091E+04  0.17249795671E+03 0.  0.
        -24    2    5    5    0    0 -0.88972652282E+02  0.15764362513E+02  0.14491523498E+04  0.14541584448E+04  0.79809784321E+02 0.  0.
          5    1    3    3  501    0  0.76402204380E+02 -0.60453384265E+02  0.20288495356E+03  0.22511397754E+03  0.47000000000E+01 0. -1.
        -11    1    4    4    0    0  0.36855246694E+02  0.66504841424E+01  0.11676833893E+03  0.12262700813E+03  0.00000000000E+00 0.  1.
         12    1    4    4    0    0 -0.93268105465E+01  0.48020994178E+02  0.36360432426E+02  0.60951507963E+02  0.00000000000E+00 0. -1.
         -5    1    5    5    0  502 -0.14957988246E+02 -0.99824565690E+01  0.15262660029E+02  0.24050564290E+02  0.47000000000E+01 0.  1.
         13    1    6    6    0    0 -0.94765910609E+02 -0.46697036231E+01  0.13056354019E+04  0.13090783730E+04  0.00000000000E+00 0. -1.
        -14    1    6    6    0    0  0.57932583275E+01  0.20434066137E+02  0.14351694795E+03  0.14508007185E+03  0.00000000000E+00 0.  1.
</event>
<event>
12    1  0.8053217E-002  0.1946412E+03  0.7818608E-02  0.1155421E+00
         21   -1    0    0  503  502  0.00000000000E+00  0.00000000000E+00  0.14175286598E+04  0.14175286598E+04  0.00000000000E+00 0.  1.
         21   -1    0    0  501  503 -0.00000000000E+00 -0.00000000000E+00 -0.29134588975E+02  0.29134588975E+02  0.00000000000E+00 0.  1.
          6    2    1    2  501    0 -0.55045310837E+02  0.57528054266E+02  0.45137357733E+03  0.48964045930E+03  0.17225042758E+03 0.  0.
         24    2    3    3    0    0 -0.50205527699E+02 -0.70378994208E+01  0.38656990259E+03  0.39791373399E+03  0.79554528930E+02 0.  0.
         -6    2    1    2    0  502  0.55045310837E+02 -0.57528054266E+02  0.93702049345E+03  0.95702278943E+03  0.17761123575E+03 0.  0.
        -24    2    5    5    0    0 -0.10419449987E+02 -0.82473483673E+02  0.27680646960E+03  0.29308562626E+03  0.48651025228E+02 0.  0.
          5    1    3    3  501    0 -0.48397831377E+01  0.64565953687E+02  0.64803674747E+02  0.91726725315E+02  0.47000000000E+01 0. -1.
        -13    1    4    4    0    0  0.15136954605E+02  0.22311120693E+01  0.18657794510E+02  0.24129205369E+02  0.00000000000E+00 0.  1.
         14    1    4    4    0    0 -0.65342482304E+02 -0.92690114901E+01  0.36791210808E+03  0.37378452862E+03  0.00000000000E+00 0. -1.
         -5    1    5    5    0  502  0.65464760824E+02  0.24945429407E+02  0.66021402385E+03  0.66393716318E+03  0.47000000000E+01 0.  1.
         11    1    6    6    0    0  0.13805668775E+02 -0.79281359717E+01  0.73231766032E+02  0.74942267023E+02  0.00000000000E+00 0. -1.
        -12    1    6    6    0    0 -0.24225118762E+02 -0.74545347702E+02  0.20357470357E+03  0.21814335923E+03  0.00000000000E+00 0.  1.
</event>
<event>
12    1  0.8053217E-002  0.1839344E+03  0.7818608E-02  0.1164819E+00
         21   -1    0    0  501  502  0.00000000000E+00  0.00000000000E+00  0.66836108823E+03  0.66836108823E+03  0.00000000000E+00 0.  1.
         21   -1    0    0  502  503 -0.00000000000E+00 -0.00000000000E+00 -0.53518958992E+02  0.53518958992E+02  0.00000000000E+00 0.  1.
         -6    2    1    2    0  503  0.45276354227E+02 -0.40238565165E+02  0.21393892772E+03  0.28213775661E+03  0.17367428863E+03 0.  0.
        -24    2    3    3    0    0  0.95449969370E+02 -0.36208622690E+02  0.12502289938E+03  0.17985490277E+03  0.79342924527E+02 0.  0.
          6    2    1    2  501    0 -0.45276354227E+02  0.40238565165E+02  0.40090320151E+03  0.43974229061E+03  0.17023752461E+03 0.  0.
         24    2    5    5    0    0  0.29673675271E+02  0.39316131725E+02  0.14709312422E+03  0.17505378851E+03  0.81124327189E+02 0.  0.
          5    1    5    5  501    0 -0.74950029498E+02  0.92243343926E+00  0.25381007730E+03  0.26468850210E+03  0.47000000000E+01 0. -1.
        -11    1    6    6    0    0  0.14085422061E+02  0.30964005361E+02  0.15274558048E+03  0.15648763881E+03  0.00000000000E+00 0.  1.
         12    1    6    6    0    0  0.15588253211E+02  0.83521263644E+01 -0.56524562652E+01  0.18566149703E+02  0.00000000000E+00 0. -1.
         -5    1    3    3    0  503 -0.50173615144E+02 -0.40299424742E+01  0.88916028346E+02  0.10228285384E+03  0.47000000000E+01 0.  1.
         11    1    4    4    0    0  0.46772942364E+02  0.10119751987E+02  0.13623657668E+02  0.49756623337E+02  0.00000000000E+00 0. -1.
        -12    1    4    4    0    0  0.48677027006E+02 -0.46328374677E+02  0.11139924171E+03  0.13009827943E+03  0.00000000000E+00 0.  1.
</event>
<event>
12    1  0.8053217E-002  0.1954359E+03  0.7818608E-02  0.1154509E+00
         21   -1    0    0  501  502  0.00000000000E+00  0.00000000000E+00  0.22847912782E+03  0.22847912782E+03  0.00000000000E+00 0.  1.
         21   -1    0    0  502  503 -0.00000000000E+00 -0.00000000000E+00 -0.26943383323E+03  0.26943383323E+03  0.00000000000E+00 0. -1.
         -6    2    1    2    0  503  0.89044243655E+02 -0.68347006028E+01 -0.17620160817E+03  0.26024322238E+03  0.16942236456E+03 0.  0.
        -24    2    3    3    0    0 -0.51017537272E+01 -0.12726976404E+02 -0.13507411086E+03  0.15722987969E+03  0.79298271248E+02 0.  0.
          6    2    1    2  501    0 -0.89044243655E+02  0.68347006028E+01  0.13524690276E+03  0.23766973867E+03  0.17383782533E+03 0.  0.
         24    2    5    5    0    0 -0.99780887990E+02 -0.18953530233E+02  0.40566635586E+02  0.13884286291E+03  0.85534944569E+02 0.  0.
          5    1    5    5  501    0  0.10736644335E+02  0.25788230836E+02  0.94680267172E+02  0.98826875762E+02  0.47000000000E+01 0. -1.
        -13    1    6    6    0    0 -0.75595741786E+02 -0.17100099030E+02  0.67370373892E+02  0.10269321711E+03  0.00000000000E+00 0.  1.
         14    1    6    6    0    0 -0.24185146204E+02 -0.18534312032E+01 -0.26803738306E+02  0.36149645798E+02  0.00000000000E+00 0. -1.
         -5    1    3    3    0  503  0.94145997383E+02  0.58922758009E+01 -0.41127497311E+02  0.10301334269E+03  0.47000000000E+01 0.  1.
         13    1    4    4    0    0 -0.37544428341E+02 -0.23245876289E+02 -0.93901172491E+02  0.10376601110E+03  0.00000000000E+00 0. -1.
        -14    1    4    4    0    0  0.32442674613E+02  0.10518899885E+02 -0.41172938369E+02  0.53463868592E+02  0.00000000000E+00 0.  1.
</event>
<event>
12    1  0.8053217E-002  0.1959925E+03  0.7818608E-02  0.1153495E+00
         21   -1    0    0  503  502  0.00000000000E+00  0.00000000000E+00  0.13967745484E+03  0.13967745484E+03  0.00000000000E+00 0. -1.
         21   -1    0    0  501  503 -0.00000000000E+00 -0.00000000000E+00 -0.73416799233E+03  0.73416799233E+03  0.00000000000E+00 0. -1.
          6    2    1    2  501    0 -0.89164316350E+02 -0.21589809886E+02 -0.64314473799E+03  0.67190415722E+03  0.17147491734E+03 0.  0.
         24    2    3    3    0    0  0.29111881418E+01  0.32716561366E+02 -0.34670868494E+03  0.35674784039E+03  0.77351541726E+02 0.  0.
         -6    2    1    2    0  502  0.89164316350E+02  0.21589809886E+02  0.48654200506E+02  0.20194128996E+03  0.17319543343E+03 0.  0.
        -24    2    5    5    0    0 -0.18436552105E+02  0.29593193836E+02  0.33046415282E+02  0.92818909090E+02  0.79420531016E+02 0.  0.
          5    1    3    3  501    0 -0.92075504492E+02 -0.54306371253E+02 -0.29643605305E+03  0.31515631683E+03  0.47000000000E+01 0. -1.
        -13    1    4    4    0    0  0.32725762040E+02  0.24837022442E+02 -0.99868160644E+02  0.10798843778E+03  0.00000000000E+00 0.  1.
         14    1    4    4    0    0 -0.29814573898E+02  0.78795389244E+01 -0.24684052429E+03  0.24875940260E+03  0.00000000000E+00 0. -1.
         -5    1    5    5    0  502  0.10760086845E+03 -0.80033839497E+01  0.15607785224E+02  0.10912238087E+03  0.47000000000E+01 0.  1.
         13    1    6    6    0    0 -0.12917782451E+02  0.38798878457E+02  0.54909274614E+02  0.68463497658E+02  0.00000000000E+00 0. -1.
        -14    1    6    6    0    0 -0.55187696538E+01 -0.92056846214E+01 -0.21862859332E+02  0.24355411432E+02  0.00000000000E+00 0.  1.
</event>
<event>
12    1  0.8053217E-002  0.2478846E+03  0.7818608E-02  0.1114931E+00
         21   -1    0    0  501  502  0.00000000000E+00  0.00000000000E+00  0.20828599703E+03  0.20828599703E+03  0.00000000000E+00 0.  1.
         21   -1    0    0  502  503 -0.00000000000E+00 -0.00000000000E+00 -0.33336011325E+03  0.33336011325E+03  0.00000000000E+00 0. -1.
         -6    2    1    2    0  503 -0.79086945677E+02 -0.16098781774E+03 -0.15705325141E+03  0.29344934501E+03  0.17109930412E+03 0.  0.
        -24    2    3    3    0    0 -0.10329100684E+03 -0.70468065499E+02 -0.12551927005E+03  0.19447387278E+03  0.80188650635E+02 0.  0.
          6    2    1    2  501    0  0.79086945677E+02  0.16098781774E+03  0.31979135197E+02  0.24819676527E+03  0.16854419826E+03 0.  0.
         24    2    5    5    0    0  0.92149561972E+02  0.46124938803E+02  0.64151909533E+01  0.12970744868E+03  0.78509972716E+02 0.  0.
          5    1    5    5  501    0 -0.13062616295E+02  0.11486287894E+03  0.25563944244E+02  0.11848931660E+03  0.47000000000E+01 0. -1.
        -13    1    6    6    0    0  0.22158912138E+02  0.48171158856E+02  0.22924636347E+02  0.57766918598E+02  0.00000000000E+00 0.  1.
         14    1    6    6    0    0  0.69990649833E+02 -0.20462200534E+01 -0.16509445394E+02  0.71940530077E+02  0.00000000000E+00 0. -1.
         -5    1    3    3    0  503  0.24204061166E+02 -0.90519752241E+02 -0.31533981360E+02  0.98975472230E+02  0.47000000000E+01 0.  1.
         13    1    4    4    0    0 -0.80477150650E+02 -0.49662953588E+02 -0.38437675177E+02  0.10208053492E+03  0.00000000000E+00 0. -1.
        -14    1    4    4    0    0 -0.22813856193E+02 -0.20805111911E+02 -0.87081594874E+02  0.92393337865E+02  0.00000000000E+00 0.  1.
</event>
<event>
12    1  0.8053217E-002  0.2551582E+03  0.7818608E-02  0.1110104E+00
         21   -1    0    0  501  502  0.00000000000E+00  0.00000000000E+00  0.11354165655E+03  0.11354165655E+03  0.00000000000E+00 0. -1.
         21   -1    0    0  502  503 -0.00000000000E+00 -0.00000000000E+00 -0.61725979777E+03  0.61725979777E+03  0.00000000000E+00 0.  1.
         -6    2    1    2    0  503 -0.14322636017E+03  0.12302465471E+03 -0.34955617973E+03  0.43277620052E+03  0.17163001205E+03 0.  0.
        -24    2    3    3    0    0 -0.15267965884E+02  0.60293973258E+02 -0.88212890659E+02  0.13506678883E+03  0.81197594632E+02 0.  0.
          6    2    1    2  501    0  0.14322636017E+03 -0.12302465471E+03 -0.15416196149E+03  0.29802525379E+03  0.17147677864E+03 0.  0.
         24    2    5    5    0    0  0.33287061287E+02 -0.10875527868E+03 -0.57722282838E+02  0.15101176410E+03  0.80851418484E+02 0.  0.
          5    1    5    5  501    0  0.10993929889E+03 -0.14269376029E+02 -0.96439678655E+02  0.14701348969E+03  0.47000000000E+01 0. -1.
        -13    1    6    6    0    0  0.49600162017E+02 -0.52462242578E+02 -0.57669666320E+02  0.92402669777E+02  0.00000000000E+00 0.  1.
         14    1    6    6    0    0 -0.16313100729E+02 -0.56293036104E+02 -0.52616518286E-01  0.58609094326E+02  0.00000000000E+00 0. -1.
         -5    1    3    3    0  503 -0.12795839429E+03  0.62730681454E+02 -0.26134328907E+03  0.29770941169E+03  0.47000000000E+01 0.  1.
         13    1    4    4    0    0 -0.89480318443E+01  0.65168290066E+02 -0.23481498318E+02  0.69845215064E+02  0.00000000000E+00 0. -1.
        -14    1    4    4    0    0 -0.63199340397E+01 -0.48743168084E+01 -0.64731392341E+02  0.65221573770E+02  0.00000000000E+00 0.  1.
</event>
<event>
12    1  0.8053217E-002  0.1782491E+03  0.7818608E-02  0.1169515E+00
         21   -1    0    0  503  502  0.00000000000E+00  0.00000000000E+00  0.25118007395E+02  0.25118007395E+02  0.00000000000E+00 0. -1.
         21   -1    0    0  501  503 -0.00000000000E+00 -0.00000000000E+00 -0.12685943114E+04  0.12685943114E+04  0.00000000000E+00 0. -1.
          6    2    1    2  501    0 -0.50573689386E+02 -0.57841396796E+01 -0.65732987382E+03  0.68106203809E+03  0.17079748935E+03 0.  0.
         24    2    3    3    0    0 -0.90448165981E+02 -0.31635974934E+02 -0.54196660560E+03  0.55620586113E+03  0.80345832032E+02 0.  0.
         -6    2    1    2    0  502  0.50573689386E+02  0.57841396796E+01 -0.58614643022E+03  0.61265028075E+03  0.17082615289E+03 0.  0.
        -24    2    5    5    0    0 -0.14837386087E+02  0.28690268329E+02 -0.46510256969E+03  0.47309023741E+03  0.80316205583E+02 0.  0.
          5    1    3    3  501    0  0.39874476595E+02  0.25851835254E+02 -0.11536326822E+03  0.12485617696E+03  0.47000000000E+01 0. -1.
        -13    1    4    4    0    0 -0.44069469216E+02 -0.11353146927E+02 -0.44018770159E+03  0.44253386841E+03  0.00000000000E+00 0.  1.
         14    1    4    4    0    0 -0.46378696765E+02 -0.20282828007E+02 -0.10177890401E+03  0.11367199271E+03  0.00000000000E+00 0. -1.
         -5    1    5    5    0  502  0.65411075473E+02 -0.22906128650E+02 -0.12104386053E+03  0.13956004334E+03  0.47000000000E+01 0.  1.
         13    1    6    6    0    0 -0.39549923121E+02  0.39259358353E+02 -0.23979551312E+03  0.24618566519E+03  0.00000000000E+00 0. -1.
        -14    1    6    6    0    0  0.24712537034E+02 -0.10569090023E+02 -0.22530705658E+03  0.22690457222E+03  0.00000000000E+00 0.  1.
</event>
<event>
12    1  0.8053217E-002  0.1840107E+03  0.7818608E-02  0.1164036E+00
         21   -1    0    0  503  502  0.00000000000E+00  0.00000000000E+00  0.25580352871E+03  0.25580352871E+03  0.00000000000E+00 0.  1.
         21   -1    0    0  501  503 -0.00000000000E+00 -0.00000000000E+00 -0.16223775198E+03  0.16223775198E+03  0.00000000000E+00 0.  1.
          6    2    1    2  501    0 -0.41156649682E+02 -0.50333216444E+02 -0.43203358080E+02  0.18876907533E+03  0.17187184517E+03 0.  0.
         24    2    3    3    0    0 -0.13708559573E+02 -0.57316817201E+02 -0.89780993046E+02  0.13405404624E+03  0.80229162156E+02 0.  0.
         -6    2    1    2    0  502  0.41156649682E+02  0.50333216444E+02  0.13676913481E+03  0.22927220536E+03  0.17214135304E+03 0.  0.
        -24    2    5    5    0    0  0.73827899787E+02  0.15074448836E+02  0.33695307261E+02  0.11544384685E+03  0.80710038098E+02 0.  0.
          5    1    3    3  501    0 -0.27448090109E+02  0.69836007572E+01  0.46577634966E+02  0.54715029098E+02  0.47000000000E+01 0. -1.
        -11    1    4    4    0    0 -0.45550372425E+02 -0.29479940198E+02 -0.66326059682E+02  0.85691595242E+02  0.00000000000E+00 0.  1.
         12    1    4    4    0    0  0.31841812852E+02 -0.27836877003E+02 -0.23454933363E+02  0.48362450993E+02  0.00000000000E+00 0. -1.
         -5    1    5    5    0  502 -0.32671250105E+02  0.35258767608E+02  0.10307382755E+03  0.11382835851E+03  0.47000000000E+01 0.  1.
         11    1    6    6    0    0  0.73213602510E+01  0.16072165975E+02 -0.22335975918E+02  0.28474772260E+02  0.00000000000E+00 0. -1.
        -12    1    6    6    0    0  0.66506539536E+02 -0.99771713931E+00  0.56031283179E+02  0.86969074591E+02  0.00000000000E+00 0.  1.
</event>
<event>
12    1  0.8053217E-002  0.1776646E+03  0.7818608E-02  0.1170318E+00
         21   -1    0    0  501  502  0.00000000000E+00  0.00000000000E+00  0.10221083029E+03  0.10221083029E+03  0.00000000000E+00 0. -1.
         21   -1    0    0  502  503 -0.00000000000E+00 -0.00000000000E+00 -0.43863766126E+03  0.43863766126E+03  0.00000000000E+00 0. -1.
         -6    2    1    2    0  503 -0.42606283406E+02 -0.84449320871E+01 -0.31594731565E+03  0.36200746409E+03  0.17128947873E+03 0.  0.
        -24    2    3    3    0    0 -0.39081387531E+02  0.54952471642E+02 -0.24703800608E+03  0.26818721768E+03  0.79683613670E+02 0.  0.
          6    2    1    2  501    0  0.42606283406E+02  0.84449320871E+01 -0.20479515323E+02  0.17884102746E+03  0.17227330116E+03 0.  0.
         24    2    5    5    0    0  0.17477295816E+02  0.64197495836E+02 -0.49358915388E+01  0.11556774225E+03  0.94365066005E+02 0.  0.
          5    1    5    5  501    0  0.25128987590E+02 -0.55752563749E+02 -0.15543623784E+02  0.63273285217E+02  0.47000000000E+01 0. -1.
        -11    1    6    6    0    0  0.56294625586E+02  0.34176618011E+02 -0.83153343953E+01  0.66379747473E+02  0.00000000000E+00 0.  1.
         12    1    6    6    0    0 -0.38817329770E+02  0.30020877825E+02  0.33794428565E+01  0.49187994773E+02  0.00000000000E+00 0. -1.
         -5    1    3    3    0  503 -0.35248958751E+01 -0.63397403729E+02 -0.68909309575E+02  0.93820246411E+02  0.47000000000E+01 0.  1.
         13    1    4    4    0    0 -0.50334731708E+02  0.22866442495E+02 -0.77052400153E+02  0.94834233153E+02  0.00000000000E+00 0. -1.
        -14    1    4    4    0    0  0.11253344177E+02  0.32086029147E+02 -0.16998560592E+03  0.17335298452E+03  0.00000000000E+00 0.  1.
</event>
<event>
12    1  0.8053217E-002  0.2132849E+03  0.7818608E-02  0.1139043E+00
         21   -1    0    0  503  502  0.00000000000E+00  0.00000000000E+00  0.10814536192E+03  0.10814536192E+03  0.00000000000E+00 0. -1.
         21   -1    0    0  501  503 -0.00000000000E+00 -0.00000000000E+00 -0.60323009448E+03  0.60323009448E+03  0.00000000000E+00 0.  1.
          6    2    1    2  501    0  0.12581929005E+03  0.10789569266E+02 -0.44340535943E+03  0.49191887943E+03  0.17154871789E+03 0.  0.
         24    2    3    3    0    0  0.36523997800E+02 -0.51339151208E+02 -0.20005887854E+03  0.22532325514E+03  0.82324380121E+02 0.  0.
         -6    2    1    2    0  502 -0.12581929005E+03 -0.10789569266E+02 -0.51679373118E+02  0.21945657697E+03  0.17188229407E+03 0.  0.
        -24    2    5    5    0    0 -0.13068727150E+03  0.15659380199E+02 -0.85132325014E+02  0.17627748294E+03  0.80634106351E+02 0.  0.
          5    1    3    3  501    0  0.89295292251E+02  0.62128720474E+02 -0.24334648090E+03  0.26659562429E+03  0.47000000000E+01 0. -1.
        -13    1    4    4    0    0  0.87897347019E+01 -0.52111055547E+02 -0.18761415844E+03  0.19491509432E+03  0.00000000000E+00 0.  1.
         14    1    4    4    0    0  0.27734263098E+02  0.77190433878E+00 -0.12444720092E+02  0.30408160814E+02  0.00000000000E+00 0. -1.
         -5    1    5    5    0  502  0.48679814501E+01 -0.26448949465E+02  0.33452951896E+02  0.43179094036E+02  0.47000000000E+01 0.  1.
         11    1    6    6    0    0 -0.25253179299E+02  0.16511852056E+02  0.12424900521E+02  0.32630391907E+02  0.00000000000E+00 0. -1.
        -12    1    6    6    0    0 -0.10543409220E+03 -0.85247185703E+00 -0.97557225535E+02  0.14364709103E+03  0.00000000000E+00 0.  1.
</event>
<event>
12    1  0.8053217E-002  0.2515651E+03  0.7818608E-02  0.1112671E+00
         21   -1    0    0  501  502  0.00000000000E+00  0.00000000000E+00  0.31367298942E+02  0.31367298942E+02  0.00000000000E+00 0. -1.
         21   -1    0    0  502  503 -0.00000000000E+00 -0.00000000000E+00 -0.24458653133E+04  0.24458653133E+04  0.00000000000E+00 0.  1.
         -6    2    1    2    0  503  0.13545450423E+03 -0.12075325524E+03 -0.17406738589E+04  0.17587582159E+04  0.17422889450E+03 0.  0.
        -24    2    3    3    0    0  0.72103828750E+02 -0.85603177555E+02 -0.15246903260E+04  0.15308990214E+04  0.80276755149E+02 0.  0.
          6    2    1    2  501    0 -0.13545450423E+03  0.12075325524E+03 -0.67382415549E+03  0.71847439635E+03  0.17098887190E+03 0.  0.
         24    2    5    5    0    0 -0.65813008173E+02  0.13965340717E+03 -0.52121565621E+03  0.54959989333E+03  0.80992939740E+02 0.  0.
          5    1    5    5  501    0 -0.69641496058E+02 -0.18900151938E+02 -0.15260849928E+03  0.16887450302E+03  0.47000000000E+01 0. -1.
        -11    1    6    6    0    0 -0.54753088511E+02  0.14614243969E+03 -0.42915215162E+03  0.45664765698E+03  0.00000000000E+00 0.  1.
         12    1    6    6    0    0 -0.11059919662E+02 -0.64890325141E+01 -0.92063504589E+02  0.92952236353E+02  0.00000000000E+00 0. -1.
         -5    1    3    3    0  503  0.63350675481E+02 -0.35150077681E+02 -0.21598353288E+03  0.22785919450E+03  0.47000000000E+01 0.  1.
         13    1    4    4    0    0 -0.11619540881E+02 -0.12934218705E+02 -0.75576393383E+02  0.77550622051E+02  0.00000000000E+00 0. -1.
        -14    1    4    4    0    0  0.83723369631E+02 -0.72668958850E+02 -0.14491139326E+04  0.14533483993E+04  0.00000000000E+00 0.  1.
</event>
<event>
12    1  0.8053217E-002  0.1881207E+03  0.7818608E-02  0.1161481E+00
         21   -1    0    0  503  502  0.00000000000E+00  0.00000000000E+00  0.19887849270E+02  0.19887849270E+02  0.00000000000E+00 0.  1.
         21   -1    0    0  501  503 -0.00000000000E+00 -0.00000000000E+00 -0.21171712311E+04  0.21171712311E+04  0.00000000000E+00 0.  1.
          6    2    1    2  501    0  0.52500312390E+02 -0.21931227754E+02 -0.57652735794E+03  0.60471176783E+03  0.17336454696E+03 0.  0.
         24    2    3    3    0    0  0.31251374280E+02 -0.78976580959E+02 -0.31078096239E+03  0.33204177233E+03  0.80330462824E+02 0.  0.
         -6    2    1    2    0  502 -0.52500312390E+02  0.21931227754E+02 -0.15207560239E+04  0.15323473125E+04  0.17931017961E+03 0.  0.
        -24    2    5    5    0    0  0.27031886345E+02  0.25342948092E+02 -0.42853859591E+03  0.43722265733E+03  0.78392193502E+02 0.  0.
          5    1    3    3  501    0  0.21248938110E+02  0.57045353205E+02 -0.26574639555E+03  0.27266999549E+03  0.47000000000E+01 0. -1.
        -11    1    4    4    0    0  0.77669762294E+01 -0.44048946892E+02 -0.26915315996E+03  0.27284438634E+03  0.00000000000E+00 0.  1.
         12    1    4    4    0    0  0.23484398050E+02 -0.34927634067E+02 -0.41627802429E+02  0.59197385992E+02  0.00000000000E+00 0. -1.
         -5    1    5    5    0  502 -0.79532198735E+02 -0.34117203379E+01 -0.10922174279E+04  0.10951246552E+04  0.47000000000E+01 0.  1.
         13    1    6    6    0    0 -0.38210984202E+01 -0.25341787587E+02 -0.17283049286E+03  0.17472030864E+03  0.00000000000E+00 0. -1.
        -14    1    6    6    0    0  0.30852984765E+02  0.50684735679E+02 -0.25570810305E+03  0.26250234868E+03  0.00000000000E+00 0.  1.
</event>
<event>
12    1  0.8053217E-002  0.2018195E+03  0.7818608E-02  0.1148284E+00
         21   -1    0    0  501  502  0.00000000000E+00  0.00000000000E+00  0.57868264282E+03  0.57868264282E+03  0.00000000000E+00 0.  1.
         21   -1    0    0  502  503 -0.00000000000E+00 -0.00000000000E+00 -0.31639015544E+03  0.31639015544E+03  0.00000000000E+00 0.  1.
         -6    2    1    2    0  503  0.10329604476E+03  0.21929236038E+02 -0.26360185617E+03  0.33178250748E+03  0.17158883831E+03 0.  0.
        -24    2    3    3    0    0  0.11735042107E+03 -0.11911727268E+02 -0.13110236444E+03  0.19422909385E+03  0.81388576388E+02 0.  0.
          6    2    1    2  501    0 -0.10329604476E+03 -0.21929236038E+02  0.52589434355E+03  0.56329029078E+03  0.17198874049E+03 0.  0.
         24    2    5    5    0    0 -0.34744735130E+02 -0.32856500587E+02  0.45274428747E+03  0.46233630192E+03  0.80565004727E+02 0.  0.
          5    1    5    5  501    0 -0.68551309634E+02  0.10927264549E+02  0.73150056084E+02  0.10095398887E+03  0.47000000000E+01 0. -1.
        -13    1    6    6    0    0 -0.18524338206E+02 -0.26960629488E+02  0.53422722871E+02  0.62641950539E+02  0.00000000000E+00 0.  1.
         14    1    6    6    0    0 -0.16220396924E+02 -0.58958710981E+01  0.39932156460E+03  0.39969435138E+03  0.00000000000E+00 0. -1.
         -5    1    3    3    0  503 -0.14054376302E+02  0.33840963306E+02 -0.13249949173E+03  0.13755341362E+03  0.47000000000E+01 0.  1.
         13    1    4    4    0    0  0.12450501822E+03 -0.24092470745E+02 -0.12710383461E+03  0.17954757442E+03  0.00000000000E+00 0. -1.
        -14    1    4    4    0    0 -0.71545971512E+01  0.12180743477E+02 -0.39985298310E+01  0.14681519433E+02  0.00000000000E+00 0.  1.
</event>
<event>
12    1  0.8053217E-002  0.2103977E+03  0.7818608E-02  0.1142099E+00
         21   -1    0    0  501  502  0.00000000000E+00  0.00000000000E+00  0.60710432879E+02  0.60710432879E+02  0.00000000000E+00 0. -1.
         21   -1    0    0  502  503 -0.00000000000E+00 -0.00000000000E+00 -0.71451659352E+03  0.71451659352E+03  0.00000000000E+00 0. -1.
         -6    2    1    2    0  503 -0.97035806001E+02 -0.73907110094E+02 -0.32342949417E+03  0.38354354530E+03  0.16619508077E+03 0.  0.
        -24    2    3    3    0    0 -0.13028157403E+03 -0.67157254026E+02 -0.29369974511E+03  0.33819170269E+03  0.81429123738E+02 0.  0.
          6    2    1    2  501    0  0.97035806001E+02  0.73907110094E+02 -0.33037666647E+03  0.39168348110E+03  0.17143219957E+03 0.  0.
         24    2    5    5    0    0  0.64588644068E+02  0.19027702458E+02 -0.76868429661E+02  0.13023925410E+03  0.80745039647E+02 0.  0.
          5    1    5    5  501    0  0.32447161933E+02  0.54879407636E+02 -0.25350823681E+03  0.26144422699E+03  0.47000000000E+01 0. -1.
        -13    1    6    6    0    0  0.63326903849E+02  0.45642979777E+02 -0.52026850460E+02  0.93810295398E+02  0.00000000000E+00 0.  1.
         14    1    6    6    0    0  0.12617402191E+01 -0.26615277319E+02 -0.24841579202E+02  0.36428958705E+02  0.00000000000E+00 0. -1.
         -5    1    3    3    0  503  0.33245768026E+02 -0.67498560680E+01 -0.29729749063E+02  0.45351842609E+02  0.47000000000E+01 0.  1.
         11    1    4    4    0    0 -0.47079443458E+02 -0.53556307212E+02 -0.19906155601E+03  0.21144799626E+03  0.00000000000E+00 0. -1.
        -12    1    4    4    0    0 -0.83202130569E+02 -0.13600946814E+02 -0.94638189095E+02  0.12674370643E+03  0.00000000000E+00 0.  1.
</event>
<event>
12    1  0.8053217E-002  0.2628923E+03  0.7818608E-02  0.1105617E+00
         21   -1    0    0  501  502  0.00000000000E+00  0.00000000000E+00  0.31265569102E+04  0.31265569102E+04  0.00000000000E+00 0.  1.
         21   -1    0    0  502  503 -0.00000000000E+00 -0.00000000000E+00 -0.34342245322E+03  0.34342245322E+03  0.00000000000E+00 0.  1.
         -6    2    1    2    0  503  0.19987136626E+03 -0.87436583923E+01 -0.28672181213E+03  0.38900097165E+03  0.17055012103E+03 0.  0.
        -24    2    3    3    0    0  0.68668019271E+02  0.33628591716E+02 -0.66208916826E+02  0.12888993222E+03  0.79892520979E+02 0.  0.
          6    2    1    2  501    0 -0.19987136626E+03  0.87436583923E+01  0.30698562691E+04  0.30809783918E+04  0.16847944386E+03 0.  0.
         24    2    5    5    0    0 -0.15942212942E+03  0.60199003439E+02  0.19132266473E+04  0.19224888730E+04  0.80547669973E+02 0.  0.
          5    1    5    5  501    0 -0.40449236839E+02 -0.51455345047E+02  0.11566296218E+04  0.11584895189E+04  0.47000000000E+01 0. -1.
        -13    1    6    6    0    0 -0.13085492941E+03  0.32939659630E+02  0.10907414194E+04  0.10990563579E+04  0.00000000000E+00 0.  1.
         14    1    6    6    0    0 -0.28567200011E+02  0.27259343809E+02  0.82248522793E+03  0.82343251509E+03  0.00000000000E+00 0. -1.
         -5    1    3    3    0  503  0.13120334698E+03 -0.42372250108E+02 -0.22051289530E+03  0.26011103943E+03  0.47000000000E+01 0.  1.
         11    1    4    4    0    0 -0.10886278379E+02 -0.14074670125E+02 -0.95481590266E+01  0.20193433014E+02  0.00000000000E+00 0. -1.
        -12    1    4    4    0    0  0.79554297650E+02  0.47703261841E+02 -0.56660757800E+02  0.10869649920E+03  0.00000000000E+00 0.  1.
</event>
<event>
12    1  0.8053217E-002  0.1813639E+03  0.7818608E-02  0.1166565E+00
         21   -1    0    0  503  502  0.00000000000E+00  0.00000000000E+00  0.30750370812E+03  0.30750370812E+03  0.00000000000E+00 0. -1.
         21   -1    0    0  501  503 -0.00000000000E+00 -0.00000000000E+00 -0.14246304939E+03  0.14246304939E+03  0.00000000000E+00 0. -1.
          6    2    1    2  501    0 -0.52487136939E+02 -0.20658704269E+02 -0.30019786323E+02  0.18383154569E+03  0.17236927805E+03 0.  0.
         24    2    3    3    0    0 -0.68643692494E+02  0.36664736274E+02  0.10722741426E+02  0.11151934278E+03  0.79153820022E+02 0.  0.
         -6    2    1    2    0  502  0.52487136939E+02  0.20658704269E+02  0.19506044506E+03  0.26613521182E+03  0.17203979812E+03 0.  0.
        -24    2    5    5    0    0  0.45671628803E+02  0.24605720124E+02  0.28073487116E+02  0.98896567336E+02  0.79379287045E+02 0.  0.
          5    1    3    3  501    0  0.16156555555E+02 -0.57323440543E+02 -0.40742527749E+02  0.72312202916E+02  0.47000000000E+01 0. -1.
        -13    1    4    4    0    0  0.27423171433E+01  0.22143685562E+02  0.28828874649E+02  0.36455001400E+02  0.00000000000E+00 0.  1.
         14    1    4    4    0    0 -0.71386009638E+02  0.14521050712E+02 -0.18106133223E+02  0.75064341375E+02  0.00000000000E+00 0. -1.
         -5    1    5    5    0  502  0.68155081360E+01 -0.39470158548E+01  0.16698695794E+03  0.16723864448E+03  0.47000000000E+01 0.  1.
         11    1    6    6    0    0  0.46491668283E+02 -0.17530580767E+02  0.27412353437E+02  0.56747102153E+02  0.00000000000E+00 0. -1.
        -12    1    6    6    0    0 -0.82003947996E+00  0.42136300891E+02  0.66113367863E+00  0.42149465184E+02  0.00000000000E+00 0.  1.
</event>
<event>
12    1  0.8053217E-002  0.2063233E+03  0.7818608E-02  0.1144706E+00
         21   -1    0    0  501  502  0.00000000000E+00  0.00000000000E+00  0.44486753614E+03  0.44486753614E+03  0.00000000000E+00 0. -1.
         21   -1    0    0  502  503 -0.00000000000E+00 -0.00000000000E+00 -0.15985993052E+03  0.15985993052E+03  0.00000000000E+00 0. -1.
         -6    2    1    2    0  503  0.66356214075E+02  0.93001946038E+02 -0.49531150490E+02  0.21218539162E+03  0.17180452973E+03 0.  0.
        -24    2    3    3    0    0  0.51300185298E+02  0.12540789705E+03 -0.58029968679E+01  0.15551907814E+03  0.76116090544E+02 0.  0.
          6    2    1    2  501    0 -0.66356214075E+02 -0.93001946038E+02  0.33453875612E+03  0.39254207504E+03  0.17064756728E+03 0.  0.
         24    2    5    5    0    0  0.25012663920E+02 -0.73991523040E+02  0.17777727060E+03  0.21004297534E+03  0.80080676267E+02 0.  0.
          5    1    5    5  501    0 -0.91368877995E+02 -0.19010422997E+02  0.15676148552E+03  0.18249909969E+03  0.47000000000E+01 0. -1.
        -11    1    6    6    0    0  0.84855151255E+01  0.11876139851E+02  0.34267628250E+01  0.14992977295E+02  0.00000000000E+00 0.  1.
         12    1    6    6    0    0  0.16527148794E+02 -0.85867662892E+02  0.17435050778E+03  0.19504999805E+03  0.00000000000E+00 0. -1.
         -5    1    3    3    0  503  0.15056028778E+02 -0.32405951013E+02 -0.43728153623E+02  0.56666313475E+02  0.47000000000E+01 0.  1.
         11    1    4    4    0    0  0.34148307989E+02  0.10557058156E+02 -0.15565002659E+02  0.38984967914E+02  0.00000000000E+00 0. -1.
        -12    1    4    4    0    0  0.17151877308E+02  0.11485083889E+03  0.97620057911E+01  0.11653411023E+03  0.00000000000E+00 0.  1.
</event>
<event>
12    1  0.8053217E-002  0.2475645E+03  0.7818608E-02  0.1115971E+00
         21   -1    0    0  501  502  0.00000000000E+00  0.00000000000E+00  0.42581649554E+03  0.42581649554E+03  0.00000000000E+00 0. -1.
         21   -1    0    0  502  503 -0.00000000000E+00 -0.00000000000E+00 -0.16628380938E+03  0.16628380938E+03  0.00000000000E+00 0.  1.
         -6    2    1    2    0  503 -0.43507182130E+02 -0.15964733766E+03  0.10446435607E+02  0.24091352775E+03  0.17478573316E+03 0.  0.
        -24    2    3    3    0    0 -0.94988734585E+02 -0.14230503086E+03  0.11641686050E+02  0.18637340974E+03  0.72979020956E+02 0.  0.
          6    2    1    2  501    0  0.43507182130E+02  0.15964733766E+03  0.24908625055E+03  0.35118677718E+03  0.18414137213E+03 0.  0.
         24    2    5    5    0    0  0.48707577720E+02  0.40405124802E+02  0.32504690341E+02  0.10385014086E+03  0.75652459475E+02 0.  0.
          5    1    5    5  501    0 -0.52003955909E+01  0.11924221286E+03  0.21658156021E+03  0.24733663632E+03  0.47000000000E+01 0. -1.
        -11    1    6    6    0    0 -0.34812805749E+01 -0.61330569085E+01 -0.16847023284E+02  0.18263512669E+02  0.00000000000E+00 0.  1.
         12    1    6    6    0    0  0.52188858295E+02  0.46538181710E+02  0.49351713625E+02  0.85586628189E+02  0.00000000000E+00 0. -1.
         -5    1    3    3    0  503  0.51481552455E+02 -0.17342306801E+02 -0.11952504430E+01  0.54540118005E+02  0.47000000000E+01 0.  1.
         13    1    4    4    0    0 -0.24539223919E+02 -0.46933728965E+02  0.37655070153E+02  0.64983480465E+02  0.00000000000E+00 0. -1.
        -14    1    4    4    0    0 -0.70449510666E+02 -0.95371301891E+02 -0.26013384103E+02  0.12138992928E+03  0.00000000000E+00 0.  1.
</event>
<event>
12    1  0.8053217E-002  0.1790351E+03  0.7818608E-02  0.1169055E+00
         21   -1    0    0  503  502  0.00000000000E+00  0.00000000000E+00  0.44828601433E+02  0.44828601433E+02  0.00000000000E+00 0.  1.
         21   -1    0    0  501  503 -0.00000000000E+00 -0.00000000000E+00 -0.10123751179E+04  0.10123751179E+04  0.00000000000E+00 0.  1.
          6    2    1    2  501    0 -0.43568265685E+02 -0.14769307866E+02 -0.77393903731E+03  0.79437723349E+03  0.17302378270E+03 0.  0.
         24    2    3    3    0    0 -0.94734068402E+02 -0.21644645382E+02 -0.59155599286E+03  0.60477007504E+03  0.79782934130E+02 0.  0.
         -6    2    1    2    0  502  0.43568265685E+02  0.14769307866E+02 -0.19360747917E+03  0.26282648586E+03  0.17169035922E+03 0.  0.
        -24    2    5    5    0    0  0.60394610417E+02  0.14774332608E+02 -0.41176427783E+02  0.10939754032E+03  0.80040825532E+02 0.  0.
          5    1    3    3  501    0  0.51165802717E+02  0.68753375160E+01 -0.18238304445E+03  0.18960715845E+03  0.47000000000E+01 0. -1.
        -13    1    4    4    0    0 -0.50416020076E+02  0.29203469014E+02 -0.26920197417E+03  0.27543478462E+03  0.00000000000E+00 0.  1.
         14    1    4    4    0    0 -0.44318048327E+02 -0.50848114397E+02 -0.32235401870E+03  0.32933529042E+03  0.00000000000E+00 0. -1.
         -5    1    5    5    0  502 -0.16826344731E+02 -0.50247418675E-02 -0.15243105139E+03  0.15342894554E+03  0.47000000000E+01 0.  1.
         13    1    6    6    0    0  0.36091038203E+02  0.49930706036E+01 -0.64657587302E+02  0.74216557373E+02  0.00000000000E+00 0. -1.
        -14    1    6    6    0    0  0.24303572214E+02  0.97812620044E+01  0.23481159520E+02  0.35180982947E+02  0.00000000000E+00 0.  1.
</event>
<event>
12    1  0.8053217E-002  0.2756750E+03  0.7818608E-02  0.1098191E+00
         21   -1    0    0  503  502  0.00000000000E+00  0.00000000000E+00  0.19973445520E+04  0.19973445520E+04  0.00000000000E+00 0.  1.
         21   -1    0    0  501  503 -0.00000000000E+00 -0.00000000000E+00 -0.39641488631E+02  0.39641488631E+02  0.00000000000E+00 0. -1.
          6    2    1    2  501    0  0.13884654735E+03  0.16412866370E+03  0.76604574278E+03  0.81385731490E+03  0.17123395403E+03 0.  0.
         24    2    3    3    0    0  0.14629319156E+03  0.78181629743E+02  0.44811349526E+03  0.48439510284E+03  0.79491168667E+02 0.  0.
         -6    2    1    2    0  502 -0.13884654735E+03 -0.16412866370E+03  0.11916573206E+04  0.12231287257E+04  0.17256919788E+03 0.  0.
        -24    2    5    5    0    0 -0.15638485824E+03 -0.10425323884E+03  0.75943606632E+03  0.78640231081E+03  0.79752704857E+02 0.  0.
          5    1    3    3  501    0 -0.74466442082E+01  0.85947033957E+02  0.31793224752E+03  0.32946221205E+03  0.47000000000E+01 0. -1.
        -13    1    4    4    0    0  0.96601270905E+02  0.88189566918E+02  0.35577784488E+03  0.37906078689E+03  0.00000000000E+00 0.  1.
         14    1    4    4    0    0  0.49691920656E+02 -0.10007937174E+02  0.92335650386E+02  0.10533431595E+03  0.00000000000E+00 0. -1.
         -5    1    5    5    0  502  0.17538310889E+02 -0.59875424856E+02  0.43222125424E+03  0.43672641490E+03  0.47000000000E+01 0.  1.
         11    1    6    6    0    0 -0.59541721552E+02 -0.84347766178E+02  0.33212648087E+03  0.34780420003E+03  0.00000000000E+00 0. -1.
        -12    1    6    6    0    0 -0.96843136690E+02 -0.19905472666E+02  0.42730958544E+03  0.43859811078E+03  0.00000000000E+00 0.  1.
</event>
<event>
12    1  0.8053217E-002  0.1759326E+03  0.7818608E-02  0.1172544E+00
         21   -1    0    0  503  502  0.00000000000E+00  0.00000000000E+00  0.36748845141E+02  0.36748845141E+02  0.00000000000E+00 0.  1.
         21   -1    0    0  501  503 -0.00000000000E+00 -0.00000000000E+00 -0.23793977180E+04  0.23793977180E+04  0.00000000000E+00 0.  1.
          6    2    1    2  501    0 -0.95074662219E+01  0.13902862694E+02 -0.19935635197E+03  0.26588576898E+03  0.17512454303E+03 0.  0.
         24    2    3    3    0    0 -0.26052873116E+02 -0.46480127959E+02 -0.64250915399E+02  0.11690447808E+03  0.81849388345E+02 0.  0.
         -6    2    1    2    0  502  0.95074662219E+01 -0.13902862694E+02 -0.21432925209E+04  0.21502607941E+04  0.17214810855E+03 0.  0.
        -24    2    5    5    0    0  0.34918985498E+02 -0.84814284949E+01 -0.57122735255E+03  0.57797388625E+03  0.80385662342E+02 0.  0.
          5    1    3    3  501    0  0.16545406895E+02  0.60382990653E+02 -0.13510543657E+03  0.14898129091E+03  0.47000000000E+01 0. -1.
        -11    1    4    4    0    0 -0.53651410131E+02 -0.15149274588E+02 -0.40063020212E+02  0.68651437844E+02  0.00000000000E+00 0.  1.
         12    1    4    4    0    0  0.27598537014E+02 -0.31330853371E+02 -0.24187895187E+02  0.48253040235E+02  0.00000000000E+00 0. -1.
         -5    1    5    5    0  502 -0.25411519276E+02 -0.54214341987E+01 -0.15720651683E+04  0.15722869079E+04  0.47000000000E+01 0.  1.
         11    1    6    6    0    0  0.79420122314E+01 -0.43235365316E+02 -0.27188554117E+03  0.27541626653E+03  0.00000000000E+00 0. -1.
        -12    1    6    6    0    0  0.26976973267E+02  0.34753936821E+02 -0.29934181138E+03  0.30255761972E+03  0.00000000000E+00 0.  1.
</event>
<event>
12    1  0.8053217E-002  0.2106878E+03  0.7818608E-02  0.1141285E+00
         21   -1    0    0  501  502  0.00000000000E+00  0.00000000000E+00  0.73003059103E+02  0.73003059103E+02  0.00000000000E+00 0.  1.
         21   -1    0    0  502  503 -0.00000000000E+00 -0.00000000000E+00 -0.61305209390E+03  0.61305209390E+03  0.00000000000E+00 0.  1.
         -6    2    1    2    0  503  0.11843392379E+03  0.14833087442E+02 -0.31034559896E+03  0.37436137302E+03  0.17200416281E+03 0.  0.
        -24    2    3    3    0    0  0.11546255578E+03  0.31385829482E+02 -0.32246780189E+03  0.35310437180E+03  0.79878295229E+02 0.  0.
          6    2    1    2  501    0 -0.11843392379E+03 -0.14833087442E+02 -0.22970343583E+03  0.31169377999E+03  0.17361661574E+03 0.  0.
         24    2    5    5    0    0 -0.94382774075E+02 -0.69397934999E+02 -0.19930878661E+03  0.24459903285E+03  0.79878113577E+02 0.  0.
          5    1    5    5  501    0 -0.24051149718E+02  0.54564847556E+02 -0.30394649225E+02  0.67094747135E+02  0.47000000000E+01 0. -1.
        -13    1    6    6    0    0 -0.15055627224E+02 -0.46138226385E+02 -0.12247196591E+03  0.13173758112E+03  0.00000000000E+00 0.  1.
         14    1    6    6    0    0 -0.79327146851E+02 -0.23259708614E+02 -0.76836820698E+02  0.11286145173E+03  0.00000000000E+00 0. -1.
         -5    1    3    3    0  503  0.29713680107E+01 -0.16552742039E+02  0.12122202927E+02  0.21257001216E+02  0.47000000000E+01 0.  1.
         13    1    4    4    0    0  0.42302458389E+02 -0.22224843542E+02 -0.16058859546E+03  0.16754742208E+03  0.00000000000E+00 0. -1.
        -14    1    4    4    0    0  0.73160097393E+02  0.53610673023E+02 -0.16187920643E+03  0.18555694972E+03  0.00000000000E+00 0.  1.
</event>
<event>
12    1  0.8053217E-002  0.2025162E+03  0.7818608E-02  0.1147710E+00
         21   -1    0    0  501  502  0.00000000000E+00  0.00000000000E+00  0.42968626076E+02  0.42968626076E+02  0.00000000000E+00 0.  1.
         21   -1    0    0  502  503 -0.00000000000E+00 -0.00000000000E+00 -0.31551732163E+04  0.31551732163E+04  0.00000000000E+00 0.  1.
         -6    2    1    2    0  503 -0.10630555821E+03  0.10532161716E+02 -0.28916754078E+04  0.28987325062E+04  0.17161491885E+03 0.  0.
        -24    2    3    3    0    0 -0.94880472753E+02  0.34458734523E+01 -0.10889436870E+04  0.10959445278E+04  0.79258288714E+02 0.  0.
          6    2    1    2  501    0  0.10630555821E+03 -0.10532161716E+02 -0.22052918244E+03  0.29940933618E+03  0.17204950493E+03 0.  0.
         24    2    5    5    0    0  0.11962867255E+03  0.31061270396E+02 -0.11896555256E+03  0.18875320266E+03  0.78734662030E+02 0.  0.
          5    1    5    5  501    0 -0.13323114338E+02 -0.41593432112E+02 -0.10156362988E+03  0.11065613352E+03  0.47000000000E+01 0. -1.
        -11    1    6    6    0    0  0.98517715867E+02 -0.80332376636E+01 -0.99481272831E+02  0.14023835742E+03  0.00000000000E+00 0.  1.
         12    1    6    6    0    0  0.21110956678E+02  0.39094508059E+02 -0.19484279725E+02  0.48514845240E+02  0.00000000000E+00 0. -1.
         -5    1    3    3    0  503 -0.11425085455E+02  0.70862882639E+01 -0.18027317208E+04  0.18027879785E+04  0.47000000000E+01 0.  1.
         11    1    4    4    0    0 -0.89327286426E+02 -0.25865961265E+02 -0.76558879162E+03  0.77121631849E+03  0.00000000000E+00 0. -1.
        -12    1    4    4    0    0 -0.55531863264E+01  0.29311834718E+02 -0.32335489540E+03  0.32472820930E+03  0.00000000000E+00 0.  1.
</event>
<event>
12    1  0.8053217E-002  0.1815955E+03  0.7818608E-02  0.1166523E+00
         21   -1    0    0  501  502  0.00000000000E+00  0.00000000000E+00  0.96441154942E+02  0.96441154942E+02  0.00000000000E+00 0.  1.
         21   -1    0    0  502  503 -0.00000000000E+00 -0.00000000000E+00 -0.35962634573E+03  0.35962634573E+03  0.00000000000E+00 0.  1.
         -6    2    1    2    0  503  0.23003652347E+02  0.45676839470E+02 -0.77875600486E+02  0.19661312713E+03  0.17313743362E+03 0.  0.
        -24    2    3    3    0    0 -0.53596652686E+02  0.25910683174E+02 -0.29145654344E+02  0.10358084608E+03  0.79596217407E+02 0.  0.
          6    2    1    2  501    0 -0.23003652347E+02 -0.45676839470E+02 -0.18530959030E+03  0.25945437354E+03  0.17424518934E+03 0.  0.
         24    2    5    5    0    0 -0.32473728038E+02 -0.50932240387E+02 -0.20953700664E+03  0.23250332023E+03  0.80643664619E+02 0.  0.
          5    1    5    5  501    0  0.94700756904E+01  0.52554009167E+01  0.24227416338E+02  0.26951053315E+02  0.47000000000E+01 0. -1.
        -11    1    6    6    0    0 -0.10966274984E+02 -0.14275507779E+02  0.69854703366E+00  0.18014918188E+02  0.00000000000E+00 0.  1.
         12    1    6    6    0    0 -0.21507453054E+02 -0.36656732608E+02 -0.21023555367E+03  0.21448840204E+03  0.00000000000E+00 0. -1.
         -5    1    3    3    0  503  0.76600305033E+02  0.19766156296E+02 -0.48729946143E+02  0.93032281048E+02  0.47000000000E+01 0.  1.
         13    1    4    4    0    0 -0.62341126316E+02  0.33652476376E+02  0.14215058349E+01  0.70858491908E+02  0.00000000000E+00 0. -1.
        -14    1    4    4    0    0  0.87444736306E+01 -0.77417932018E+01 -0.30567160179E+02  0.32722354170E+02  0.00000000000E+00 0.  1.
</event>
<event>
12    1  0.8053217E-002  0.1904823E+03  0.7818608E-02  0.1158917E+00
         21   -1    0    0  503  502  0.00000000000E+00  0.00000000000E+00  0.29823286555E+03  0.29823286555E+03  0.00000000000E+00 0.  1.
         21   -1    0    0  501  503 -0.00000000000E+00 -0.00000000000E+00 -0.15746107468E+03  0.15746107468E+03  0.00000000000E+00 0.  1.
          6    2    1    2  501    0  0.72871126079E+02 -0.94027776570E+01  0.18328575357E+03  0.26434288825E+03  0.17574095102E+03 0.  0.
         24    2    3    3    0    0  0.61052875309E+02  0.56302201085E+02  0.15092853038E+03  0.19000652316E+03  0.80160252802E+02 0.  0.
         -6    2    1    2    0  502 -0.72871126079E+02  0.94027776570E+01 -0.42513962705E+02  0.19135105198E+03  0.17149103424E+03 0.  0.
        -24    2    5    5    0    0  0.98178952744E+01  0.49478512784E+02 -0.21918866730E+02  0.97065386172E+02  0.79979611021E+02 0.  0.
          5    1    3    3  501    0  0.11818250770E+02 -0.65704978742E+02  0.32357223181E+02  0.74336365090E+02  0.47000000000E+01 0. -1.
        -11    1    4    4    0    0  0.70880406626E+02  0.24004161121E+02  0.70639893922E+02  0.10290882570E+03  0.00000000000E+00 0.  1.
         12    1    4    4    0    0 -0.98275313164E+01  0.32298039964E+02  0.80288636462E+02  0.87097697457E+02  0.00000000000E+00 0. -1.
         -5    1    5    5    0  502 -0.82689021354E+02 -0.40075735127E+02 -0.20595095975E+02  0.94285665807E+02  0.47000000000E+01 0.  1.
         11    1    6    6    0    0  0.36988205506E+01 -0.48784178987E+01  0.24543682358E+02  0.25295702764E+02  0.00000000000E+00 0. -1.
        -12    1    6    6    0    0  0.61190747237E+01  0.54356930683E+02 -0.46462549087E+02  0.71769683408E+02  0.00000000000E+00 0.  1.
</event>
<event>
12    1  0.8053217E-002  0.1926163E+03  0.7818608E-02  0.1156648E+00
         21   -1    0    0  503  502  0.00000000000E+00  0.00000000000E+00  0.61123617213E+02  0.61123617213E+02  0.00000000000E+00 0.  1.
         21   -1    0    0  501  503 -0.00000000000E+00 -0.00000000000E+00 -0.60742295595E+03  0.60742295595E+03  0.00000000000E+00 0.  1.
          6    2    1    2  501    0  0.50374993851E+02 -0.59838709202E+02 -0.30946008943E+03  0.36326986526E+03  0.17343914475E+03 0.  0.
         24    2    3    3    0    0  0.35855567292E+02 -0.84711993907E+02 -0.31049455005E+03  0.33406962299E+03  0.82060366672E+02 0.  0.
         -6    2    1    2    0  502 -0.50374993851E+02  0.59838709202E+02 -0.23683924931E+03  0.30527670791E+03  0.17601911048E+03 0.  0.
        -24    2    5    5    0    0 -0.87662123454E+01 -0.36067077661E+02 -0.10903425713E+03  0.14009372852E+03  0.79750253755E+02 0.  0.
          5    1    3    3  501    0  0.14519426559E+02  0.24873284705E+02  0.10344606199E+01  0.29200242266E+02  0.47000000000E+01 0. -1.
        -11    1    4    4    0    0  0.36165397720E+02 -0.40224811969E+02 -0.64938919427E+02  0.84516476184E+02  0.00000000000E+00 0.  1.
         12    1    4    4    0    0 -0.30983042778E+00 -0.44487181938E+02 -0.24555563062E+03  0.24955314681E+03  0.00000000000E+00 0. -1.
         -5    1    5    5    0  502 -0.41608781505E+02  0.95905786863E+02 -0.12780499219E+03  0.16518297939E+03  0.47000000000E+01 0.  1.
         11    1    6    6    0    0 -0.18013028460E+00 -0.19754874672E+02 -0.11796681613E+03  0.11960960341E+03  0.00000000000E+00 0. -1.
        -12    1    6    6    0    0 -0.85860820608E+01 -0.16312202989E+02  0.89325589977E+01  0.20484125116E+02  0.00000000000E+00 0.  1.
</event>
<event>
12    1  0.8053217E-002  0.2257630E+03  0.7818608E-02  0.1129771E+00
         21   -1    0    0  503  502  0.00000000000E+00  0.00000000000E+00  0.21730069818E+04  0.21730069818E+04  0.00000000000E+00 0.  1.
         21   -1    0    0  501  503 -0.00000000000E+00 -0.00000000000E+00 -0.24087128554E+02  0.24087128554E+02  0.00000000000E+00 0. -1.
          6    2    1    2  501    0  0.13063635797E+03 -0.64838386065E+02  0.88614754091E+03  0.91429916679E+03  0.17150984752E+03 0.  0.
         24    2    3    3    0    0  0.15148548153E+02  0.16399390272E+02  0.37524420348E+03  0.38422245468E+03  0.79500087572E+02 0.  0.
         -6    2    1    2    0  502 -0.13063635797E+03  0.64838386065E+02  0.12627723124E+04  0.12827949436E+04  0.17233421049E+03 0.  0.
        -24    2    5    5    0    0  0.18735671887E+01  0.10846054576E+02  0.39350131910E+03  0.40181355795E+03  0.80558674664E+02 0.  0.
          5    1    3    3  501    0  0.11548780981E+03 -0.81237776337E+02  0.51090333743E+03  0.53007671211E+03  0.47000000000E+01 0. -1.
        -11    1    4    4    0    0 -0.11491603161E+02 -0.26591494897E+02  0.90552931002E+02  0.95073644387E+02  0.00000000000E+00 0.  1.
         12    1    4    4    0    0  0.26640151314E+02  0.42990885169E+02  0.28469127247E+03  0.28914881029E+03  0.00000000000E+00 0. -1.
         -5    1    5    5    0  502 -0.13250992516E+03  0.53992331489E+02  0.86927099325E+03  0.88098138563E+03  0.47000000000E+01 0.  1.
         13    1    6    6    0    0  0.48018751219E+01 -0.20584310217E+02  0.28671165773E+02  0.35620325358E+02  0.00000000000E+00 0. -1.
        -14    1    6    6    0    0 -0.29283079331E+01  0.31430364793E+02  0.36483015333E+03  0.36619323259E+03  0.00000000000E+00 0.  1.
</event>
<event>
12    1  0.8053217E-002  0.2249601E+03  0.7818608E-02  0.1131319E+00
         21   -1    0    0  501  502  0.00000000000E+00  0.00000000000E+00  0.33721259049E+03  0.33721259049E+03  0.00000000000E+00 0.  1.
         21   -1    0    0  502  503 -0.00000000000E+00 -0.00000000000E+00 -0.19783268955E+03  0.19783268955E+03  0.00000000000E+00 0.  1.
         -6    2    1    2    0  503  0.11212264952E+03 -0.77210956857E+02 -0.67687424528E+02  0.22929388388E+03  0.17164229477E+03 0.  0.
        -24    2    3    3    0    0  0.55624260938E+02 -0.48255920432E+01 -0.92427614346E+02  0.13407899039E+03  0.79479349681E+02 0.  0.
          6    2    1    2  501    0 -0.11212264952E+03  0.77210956857E+02  0.20706732547E+03  0.30575139615E+03  0.17909220691E+03 0.  0.
         24    2    5    5    0    0  0.12702290660E+01  0.25869021200E+02  0.26139947948E+02  0.86090873508E+02  0.77830083406E+02 0.  0.
          5    1    5    5  501    0 -0.11339287858E+03  0.51341935657E+02  0.18092737753E+03  0.21966052265E+03  0.47000000000E+01 0. -1.
        -11    1    6    6    0    0 -0.28242803974E+02  0.37956382675E+02  0.26438292035E+02  0.54197105530E+02  0.00000000000E+00 0.  1.
         12    1    6    6    0    0  0.29513033040E+02 -0.12087361475E+02 -0.29834408789E+00  0.31893767978E+02  0.00000000000E+00 0. -1.
         -5    1    3    3    0  503  0.56498388580E+02 -0.72385364814E+02  0.24740189818E+02  0.95214893497E+02  0.47000000000E+01 0.  1.
         13    1    4    4    0    0  0.38944648482E+02  0.23144119449E+02 -0.11345889714E+02  0.46701874950E+02  0.00000000000E+00 0. -1.
        -14    1    4    4    0    0  0.16679612456E+02 -0.27969711492E+02 -0.81081724632E+02  0.87377115436E+02  0.00000000000E+00 0.  1.
</event>
<event>
12    1  0.8053217E-002  0.2156678E+03  0.7818608E-02  0.1138239E+00
         21   -1    0    0  503  502  0.00000000000E+00  0.00000000000E+00  0.12806757107E+04  0.12806757107E+04  0.00000000000E+00 0. -1.
         21   -1    0    0  501  503 -0.00000000000E+00 -0.00000000000E+00 -0.35389823819E+02  0.35389823819E+02  0.00000000000E+00 0. -1.
          6    2    1    2  501    0 -0.47224227219E+02 -0.11084361714E+03  0.62204147509E+03  0.65836783773E+03  0.17887475489E+03 0.  0.
         24    2    3    3    0    0 -0.59290688208E+02 -0.22388912156E+02  0.17378590729E+03  0.20128471797E+03  0.79355825365E+02 0.  0.
         -6    2    1    2    0  502  0.47224227219E+02  0.11084361714E+03  0.62324441183E+03  0.65769769682E+03  0.17209366180E+03 0.  0.
        -24    2    5    5    0    0  0.22784926607E+02 -0.23107188286E+02  0.22521506871E+03  0.23699644216E+03  0.66275118953E+02 0.  0.
          5    1    3    3  501    0  0.12066460990E+02 -0.88454704981E+02  0.44825556779E+03  0.45708311976E+03  0.47000000000E+01 0. -1.
        -11    1    4    4    0    0 -0.93634368842E+01 -0.39800073951E+02  0.39024533241E+02  0.56521093686E+02  0.00000000000E+00 0.  1.
         12    1    4    4    0    0 -0.49927251324E+02  0.17411161795E+02  0.13476137405E+03  0.14476362428E+03  0.00000000000E+00 0. -1.
         -5    1    5    5    0  502  0.24439300611E+02  0.13395080542E+03  0.39802934312E+03  0.42070125466E+03  0.47000000000E+01 0.  1.
         11    1    6    6    0    0  0.37618273438E+02  0.16289217387E+01  0.73711449581E+02  0.82771768628E+02  0.00000000000E+00 0. -1.
        -12    1    6    6    0    0 -0.14833346830E+02 -0.24736110025E+02  0.15150361913E+03  0.15422467353E+03  0.00000000000E+00 0.  1.
</event>
<event>
12    1  0.8053217E-002  0.2514874E+03  0.7818608E-02  0.1112585E+00
         21   -1    0    0  501  502  0.00000000000E+00  0.00000000000E+00  0.60806461755E+02  0.60806461755E+02  0.00000000000E+00 0.  1.
         21   -1    0    0  502  503 -0.00000000000E+00 -0.00000000000E+00 -0.10998169152E+04  0.10998169152E+04  0.00000000000E+00 0.  1.
         -6    2    1    2    0  503 -0.18313199935E+03  0.18540696198E+02 -0.66235205138E+03  0.70848863661E+03  0.17136166908E+03 0.  0.
        -24    2    3    3    0    0 -0.12422935597E+03  0.45467029524E+02 -0.27405655649E+03  0.31480090480E+03  0.80575615717E+02 0.  0.
          6    2    1    2  501    0  0.18313199935E+03 -0.18540696198E+02 -0.37665840205E+03  0.45213474033E+03  0.16933158294E+03 0.  0.
         24    2    5    5    0    0  0.77052277253E+02 -0.51476754677E+02 -0.27620359847E+03  0.30229833304E+03  0.80678030767E+02 0.  0.
          5    1    5    5  501    0  0.10607972210E+03  0.32936058479E+02 -0.10045480358E+03  0.14983640729E+03  0.47000000000E+01 0. -1.
        -13    1    6    6    0    0  0.65670091643E+02  0.43455871205E+01 -0.15349216516E+03  0.16700685563E+03  0.00000000000E+00 0.  1.
         14    1    6    6    0    0  0.11382185610E+02 -0.55822341797E+02 -0.12271143332E+03  0.13529147741E+03  0.00000000000E+00 0. -1.
         -5    1    3    3    0  503 -0.58902643385E+02 -0.26926333327E+02 -0.38829549489E+03  0.39368773181E+03  0.47000000000E+01 0.  1.
         13    1    4    4    0    0 -0.23793570182E+02  0.48765190336E+02 -0.10267474839E+03  0.11613045134E+03  0.00000000000E+00 0. -1.
        -14    1    4    4    0    0 -0.10043578579E+03 -0.32981608110E+01 -0.17138180810E+03  0.19867045346E+03  0.00000000000E+00 0.  1.
</event>
<event>
12    1  0.8053217E-002  0.1949437E+03  0.7818608E-02  0.1154828E+00
         21   -1    0    0  503  502  0.00000000000E+00  0.00000000000E+00  0.63003841768E+03  0.63003841768E+03  0.00000000000E+00 0. -1.
         21   -1    0    0  501  503 -0.00000000000E+00 -0.00000000000E+00 -0.59335731048E+02  0.59335731048E+02  0.00000000000E+00 0.  1.
          6    2    1    2  501    0  0.72259133348E+02  0.51443237187E+02  0.29962192423E+03  0.35745816583E+03  0.17359508585E+03 0.  0.
         24    2    3    3    0    0  0.88229039291E+01 -0.33775473195E+02  0.16359576300E+03  0.18479783355E+03  0.78536866437E+02 0.  0.
         -6    2    1    2    0  502 -0.72259133348E+02 -0.51443237187E+02  0.27108076240E+03  0.33191598290E+03  0.16975173330E+03 0.  0.
        -24    2    5    5    0    0 -0.53439344256E+01  0.38475877294E+01  0.21256648238E+03  0.22712700384E+03  0.79742114818E+02 0.  0.
          5    1    3    3  501    0  0.63436229419E+02  0.85218710381E+02  0.13602616123E+03  0.17266033228E+03  0.47000000000E+01 0. -1.
        -13    1    4    4    0    0 -0.16223610017E+01  0.14935832991E+02  0.13597673533E+01  0.15085096275E+02  0.00000000000E+00 0.  1.
         14    1    4    4    0    0  0.10445264931E+02 -0.48711306186E+02  0.16223599565E+03  0.16971273728E+03  0.00000000000E+00 0. -1.
         -5    1    5    5    0  502 -0.66915198923E+02 -0.55290824916E+02  0.58514280019E+02  0.10478897906E+03  0.47000000000E+01 0.  1.
         11    1    6    6    0    0 -0.32185388395E+02  0.24655539644E+02  0.15568783934E+03  0.16088038470E+03  0.00000000000E+00 0. -1.
        -12    1    6    6    0    0  0.26841453970E+02 -0.20807951915E+02  0.56878643039E+02  0.66246619144E+02  0.00000000000E+00 0.  1.
</event>
<event>
12    1  0.8053217E-002  0.1793664E+03  0.7818608E-02  0.1168561E+00
         21   -1    0    0  501  502  0.00000000000E+00  0.00000000000E+00  0.23506144293E+03  0.23506144293E+03  0.00000000000E+00 0.  1.
         21   -1    0    0  502  503 -0.00000000000E+00 -0.00000000000E+00 -0.20166707066E+03  0.20166707066E+03  0.00000000000E+00 0.  1.
         -6    2    1    2    0  503 -0.48430003700E+02  0.25722420868E+02  0.14088651550E+03  0.22761884967E+03  0.17015940257E+03 0.  0.
        -24    2    3    3    0    0 -0.87463192164E+02  0.22229423750E+02  0.52748719446E+02  0.13104684585E+03  0.79037276895E+02 0.  0.
          6    2    1    2  501    0  0.48430003700E+02 -0.25722420868E+02 -0.10749214323E+03  0.20910966392E+03  0.17077816750E+03 0.  0.
         24    2    5    5    0    0  0.21342297939E+01 -0.95975775571E+01 -0.13677538758E+03  0.15181300037E+03  0.65138406523E+02 0.  0.
          5    1    5    5  501    0  0.46295773906E+02 -0.16124843311E+02  0.29283244351E+02  0.57296663542E+02  0.47000000000E+01 0. -1.
        -13    1    6    6    0    0  0.13251900624E+01  0.17588873638E+02 -0.66103420793E+01  0.18836698940E+02  0.00000000000E+00 0.  1.
         14    1    6    6    0    0  0.80903973154E+00 -0.27186451195E+02 -0.13016504550E+03  0.13297630143E+03  0.00000000000E+00 0. -1.
         -5    1    3    3    0  503  0.39033188464E+02  0.34929971184E+01  0.88137796051E+02  0.96572003828E+02  0.47000000000E+01 0.  1.
         11    1    4    4    0    0 -0.35002844857E+02  0.41243626589E+02 -0.24111988318E+00  0.54095231039E+02  0.00000000000E+00 0. -1.
        -12    1    4    4    0    0 -0.52460347307E+02 -0.19014202839E+02  0.52989839329E+02  0.76951614807E+02  0.00000000000E+00 0.  1.
</event>
<event>
12    1  0.8053217E-002  0.2099657E+03  0.7818608E-02  0.1142727E+00
         21   -1    0    0  503  502  0.00000000000E+00  0.00000000000E+00  0.11850549586E+03  0.11850549586E+03  0.00000000000E+00 0. -1.
         21   -1    0    0  501  503 -0.00000000000E+00 -0.00000000000E+00 -0.49135139235E+03  0.49135139235E+03  0.00000000000E+00 0.  1.
          6    2    1    2  501    0  0.10786364483E+03 -0.51604552420E+02 -0.34094478350E+03  0.39748160001E+03  0.16568247114E+03 0.  0.
         24    2    3    3    0    0  0.14264916013E+03 -0.44491611732E+02 -0.27088128220E+03  0.31879481450E+03  0.76975179795E+02 0.  0.
         -6    2    1    2    0  502 -0.10786364483E+03  0.51604552420E+02 -0.31901112993E+02  0.21237528820E+03  0.17259196482E+03 0.  0.
        -24    2    5    5    0    0 -0.12820362120E+03  0.32830462652E+02 -0.70763522198E+02  0.16443200989E+03  0.67204181684E+02 0.  0.
          5    1    3    3  501    0 -0.34785515298E+02 -0.71129406871E+01 -0.70063501305E+02  0.78686785516E+02  0.47000000000E+01 0. -1.
        -13    1    4    4    0    0  0.12019321441E+03 -0.45636185503E+02 -0.26649452848E+03  0.29588579541E+03  0.00000000000E+00 0.  1.
         14    1    4    4    0    0  0.22455945718E+02  0.11445737703E+01 -0.43867537196E+01  0.22909019084E+02  0.00000000000E+00 0. -1.
         -5    1    5    5    0  502  0.20339976373E+02  0.18774089767E+02  0.38862409206E+02  0.47943278306E+02  0.47000000000E+01 0.  1.
         13    1    6    6    0    0 -0.12322508129E+03  0.48085804364E+02 -0.61151738232E+02  0.14572645720E+03  0.00000000000E+00 0. -1.
        -14    1    6    6    0    0 -0.49785399133E+01 -0.15255341711E+02 -0.96117839664E+01  0.18705552689E+02  0.00000000000E+00 0.  1.
</event>
<event>
12    1  0.8053217E-002  0.1987146E+03  0.7818608E-02  0.1150876E+00
         21   -1    0    0  503  502  0.00000000000E+00  0.00000000000E+00  0.17084658280E+03  0.17084658280E+03  0.00000000000E+00 0.  1.
         21   -1    0    0  501  503 -0.00000000000E+00 -0.00000000000E+00 -0.29696139394E+03  0.29696139394E+03  0.00000000000E+00 0. -1.
          6    2    1    2  501    0  0.96918327685E+02  0.21292190853E+02 -0.17343702654E+03  0.26375729587E+03  0.17216558691E+03 0.  0.
         24    2    3    3    0    0  0.84927986578E+02 -0.10074168108E+02 -0.19159042450E+03  0.22529624268E+03  0.82080779975E+02 0.  0.
         -6    2    1    2    0  502 -0.96918327685E+02 -0.21292190853E+02  0.47322215393E+02  0.20405068088E+03  0.17190337014E+03 0.  0.
        -24    2    5    5    0    0 -0.14408248979E+02 -0.29067222297E+01 -0.32729021195E+02  0.87533604773E+02  0.79842948739E+02 0.  0.
          5    1    3    3  501    0  0.11990341107E+02  0.31366358962E+02  0.18153397958E+02  0.38461053181E+02  0.47000000000E+01 0. -1.
        -11    1    4    4    0    0  0.10231908887E+01  0.14441602182E+02  0.24927890862E+00  0.14479949349E+02  0.00000000000E+00 0.  1.
         12    1    4    4    0    0  0.83904795689E+02 -0.24515770291E+02 -0.19183970341E+03  0.21081629334E+03  0.00000000000E+00 0. -1.
         -5    1    5    5    0  502 -0.82510078706E+02 -0.18385468624E+02  0.80051236588E+02  0.11651707610E+03  0.47000000000E+01 0.  1.
         13    1    6    6    0    0 -0.45191678774E+02 -0.13555892086E+02 -0.27302693945E+02  0.54511348702E+02  0.00000000000E+00 0. -1.
        -14    1    6    6    0    0  0.30783429795E+02  0.10649169856E+02 -0.54263272502E+01  0.33022256071E+02  0.00000000000E+00 0.  1.
</event>
<event>
12    1  0.8053217E-002  0.2100205E+03  0.7818608E-02  0.1142596E+00
         21   -1    0    0  501  502  0.00000000000E+00  0.00000000000E+00  0.23012327075E+02  0.23012327075E+02  0.00000000000E+00 0.  1.
         21   -1    0    0  502  503 -0.00000000000E+00 -0.00000000000E+00 -0.19021747764E+04  0.19021747764E+04  0.00000000000E+00 0. -1.
         -6    2    1    2    0  503 -0.84878731088E+02  0.70552275201E+02 -0.82494470704E+03  0.85125929292E+03  0.17868013760E+03 0.  0.
        -24    2    3    3    0    0 -0.12223793819E+03  0.60373649952E+02 -0.74610820038E+03  0.76330135098E+03  0.85816167424E+02 0.  0.
          6    2    1    2  501    0  0.84878731088E+02 -0.70552275201E+02 -0.10542177423E+04  0.10739278106E+04  0.17252209024E+03 0.  0.
         24    2    5    5    0    0  0.46732679244E+02 -0.10378764577E+03 -0.54850971310E+03  0.56567353177E+03  0.78535472595E+02 0.  0.
          5    1    5    5  501    0  0.38146051845E+02  0.33235370565E+02 -0.50570802920E+03  0.50825427880E+03  0.47000000000E+01 0. -1.
        -13    1    6    6    0    0  0.65360290414E+02 -0.54328564796E+02 -0.35986946606E+03  0.36976964873E+03  0.00000000000E+00 0.  1.
         14    1    6    6    0    0 -0.18627611171E+02 -0.49459080970E+02 -0.18864024704E+03  0.19590388305E+03  0.00000000000E+00 0. -1.
         -5    1    3    3    0  503  0.37359207101E+02  0.10178625249E+02 -0.78836506665E+02  0.87957941940E+02  0.47000000000E+01 0.  1.
         11    1    4    4    0    0 -0.43025604211E+02 -0.10915082047E+02 -0.11519629828E+03  0.12345253652E+03  0.00000000000E+00 0. -1.
        -12    1    4    4    0    0 -0.79212333978E+02  0.71288731999E+02 -0.63091190210E+03  0.63984881446E+03  0.00000000000E+00 0.  1.
</event>
<event>
12    1  0.8053217E-002  0.2048071E+03  0.7818608E-02  0.1146508E+00
         21   -1    0    0  503  502  0.00000000000E+00  0.00000000000E+00  0.91105650427E+03  0.91105650427E+03  0.00000000000E+00 0.  1.
         21   -1    0    0  501  503 -0.00000000000E+00 -0.00000000000E+00 -0.60113884568E+02  0.60113884568E+02  0.00000000000E+00 0. -1.
          6    2    1    2  501    0 -0.11144928446E+03 -0.14016564641E+02  0.18082043168E+03  0.27044955417E+03  0.16682183834E+03 0.  0.
         24    2    3    3    0    0 -0.10470212655E+02  0.41697646401E+02  0.78694504585E+02  0.11633063502E+03  0.74105819769E+02 0.  0.
         -6    2    1    2    0  502  0.11144928446E+03  0.14016564641E+02  0.67012218802E+03  0.70072083467E+03  0.17125575660E+03 0.  0.
        -24    2    5    5    0    0  0.14604984898E+03  0.17631624725E+02  0.51766776456E+03  0.54427688638E+03  0.81338686986E+02 0.  0.
          5    1    3    3  501    0 -0.10097907181E+03 -0.55714211041E+02  0.10212592710E+03  0.15411891915E+03  0.47000000000E+01 0. -1.
        -11    1    4    4    0    0 -0.16988300086E+02  0.57372861639E+02  0.79302314021E+02  0.99343367174E+02  0.00000000000E+00 0.  1.
         12    1    4    4    0    0  0.65180874304E+01 -0.15675215239E+02 -0.60780943532E+00  0.16987267845E+02  0.00000000000E+00 0. -1.
         -5    1    5    5    0  502 -0.34600564522E+02 -0.36150600841E+01  0.15245442346E+03  0.15644394829E+03  0.47000000000E+01 0.  1.
         13    1    6    6    0    0  0.91023778247E+02 -0.98756900283E+00  0.18064383361E+03  0.20228321265E+03  0.00000000000E+00 0. -1.
        -14    1    6    6    0    0  0.55026070737E+02  0.18619193727E+02  0.33702393095E+03  0.34199367372E+03  0.00000000000E+00 0.  1.
</event>
<event>
12    1  0.8053217E-002  0.2371791E+03  0.7818608E-02  0.1121705E+00
         21   -1    0    0  501  502  0.00000000000E+00  0.00000000000E+00  0.41315726181E+03  0.41315726181E+03  0.00000000000E+00 0. -1.
         21   -1    0    0  502  503 -0.00000000000E+00 -0.00000000000E+00 -0.14437434831E+03  0.14437434831E+03  0.00000000000E+00 0.  1.
         -6    2    1    2    0  503  0.83427546941E+02  0.13995808864E+03  0.20118140398E+03  0.31101108926E+03  0.17235288848E+03 0.  0.
        -24    2    3    3    0    0  0.41239000727E+02  0.13076187549E+03  0.71377042179E+02  0.17413265373E+03  0.80175904622E+02 0.  0.
          6    2    1    2  501    0 -0.83427546941E+02 -0.13995808864E+03  0.67601509515E+02  0.24652052087E+03  0.17220331285E+03 0.  0.
         24    2    5    5    0    0 -0.80503496345E+02 -0.12680693949E+03 -0.77083037798E+01  0.16987092352E+03  0.78967714176E+02 0.  0.
          5    1    5    5  501    0 -0.29240505959E+01 -0.13151149144E+02  0.75309813295E+02  0.76649597352E+02  0.47000000000E+01 0. -1.
        -13    1    6    6    0    0 -0.46242861958E+02 -0.10136935919E+03  0.27256107682E+02  0.11470416152E+03  0.00000000000E+00 0.  1.
         14    1    6    6    0    0 -0.34260634387E+02 -0.25437580306E+02 -0.34964411462E+02  0.55166761997E+02  0.00000000000E+00 0. -1.
         -5    1    3    3    0  503  0.42188546214E+02  0.91962131463E+01  0.12980436181E+03  0.13687843553E+03  0.47000000000E+01 0.  1.
         13    1    4    4    0    0 -0.19217214808E+02  0.67015029242E+02  0.20771253482E+02  0.72744487492E+02  0.00000000000E+00 0. -1.
        -14    1    4    4    0    0  0.60456215534E+02  0.63746846251E+02  0.50605788697E+02  0.10138816624E+03  0.00000000000E+00 0.  1.
</event>
<event>
12    1  0.8053217E-002  0.1752165E+03  0.7818608E-02  0.1172548E+00
         21   -1    0    0  503  502  0.00000000000E+00  0.00000000000E+00  0.15749859498E+04  0.15749859498E+04  0.00000000000E+00 0.  1.
         21   -1    0    0  501  503 -0.00000000000E+00 -0.00000000000E+00 -0.43562470927E+02  0.43562470927E+02  0.00000000000E+00 0.  1.
          6    2    1    2  501    0  0.70701849144E+01  0.31498633869E+02  0.16410152629E+03  0.24006275318E+03  0.17221690708E+03 0.  0.
         24    2    3    3    0    0 -0.38163198780E+02 -0.32539210717E+02  0.71526094424E+02  0.11865762510E+03  0.80302053741E+02 0.  0.
         -6    2    1    2    0  502 -0.70701849144E+01 -0.31498633869E+02  0.13673219525E+04  0.13784856675E+04  0.17207923224E+03 0.  0.
        -24    2    5    5    0    0 -0.11807076378E+02 -0.73924041498E+02  0.60883923345E+03  0.61878804443E+03  0.81297360183E+02 0.  0.
          5    1    3    3  501    0  0.45233383694E+02  0.64037844586E+02  0.92575431871E+02  0.12140512809E+03  0.47000000000E+01 0. -1.
        -13    1    4    4    0    0 -0.72202126929E+01  0.11116600346E+02 -0.13033296583E+02  0.18589703989E+02  0.00000000000E+00 0.  1.
         14    1    4    4    0    0 -0.30942986087E+02 -0.43655811063E+02  0.84559391007E+02  0.10006792111E+03  0.00000000000E+00 0. -1.
         -5    1    5    5    0  502  0.47368914640E+01  0.42425407629E+02  0.75848271908E+03  0.75969762307E+03  0.47000000000E+01 0.  1.
         13    1    6    6    0    0  0.25161723935E+02 -0.56508524742E+02  0.24613028342E+03  0.25378424328E+03  0.00000000000E+00 0. -1.
        -14    1    6    6    0    0 -0.36968800313E+02 -0.17415516756E+02  0.36270895003E+03  0.36500380115E+03  0.00000000000E+00 0.  1.
</event>
<event>
12    1  0.8053217E-002  0.1980538E+03  0.7818608E-02  0.1152474E+00
         21   -1    0    0  503  502  0.00000000000E+00  0.00000000000E+00  0.51898235324E+02  0.51898235324E+02  0.00000000000E+00 0. -1.
         21   -1    0    0  501  503 -0.00000000000E+00 -0.00000000000E+00 -0.74816263257E+03  0.74816263257E+03  0.00000000000E+00 0. -1.
          6    2    1    2  501    0 -0.77602379207E+02 -0.56431606824E+02 -0.30334051843E+03  0.36227168103E+03  0.17325889658E+03 0.  0.
         24    2    3    3    0    0 -0.99107817094E+02  0.28759631236E+01 -0.24683660294E+03  0.27745037369E+03  0.78865523127E+02 0.  0.
         -6    2    1    2    0  502  0.77602379207E+02  0.56431606824E+02 -0.39292387882E+03  0.43778918687E+03  0.16752176601E+03 0.  0.
        -24    2    5    5    0    0  0.92485974347E+02  0.70268047586E+02 -0.39147104961E+03  0.41688059510E+03  0.83955904618E+02 0.  0.
          5    1    3    3  501    0  0.21505437887E+02 -0.59307569948E+02 -0.56503915492E+02  0.84821307333E+02  0.47000000000E+01 0. -1.
        -11    1    4    4    0    0 -0.36141209468E+02  0.30750700851E+02 -0.50077455073E+02  0.68989449419E+02  0.00000000000E+00 0.  1.
         12    1    4    4    0    0 -0.62966607626E+02 -0.27874737727E+02 -0.19675914787E+03  0.20846092427E+03  0.00000000000E+00 0. -1.
         -5    1    5    5    0  502 -0.14883595140E+02 -0.13836440762E+02 -0.14528292038E+01  0.20908591773E+02  0.47000000000E+01 0.  1.
         13    1    6    6    0    0  0.48864214212E+02  0.62668374327E+02 -0.13530213066E+03  0.15691304322E+03  0.00000000000E+00 0. -1.
        -14    1    6    6    0    0  0.43621760135E+02  0.75996732600E+01 -0.25616891896E+03  0.25996755188E+03  0.00000000000E+00 0.  1.
</event>
<event>
12    1  0.8053217E-002  0.1924777E+03  0.7818608E-02  0.1156358E+00
         21   -1    0    0  501  502  0.00000000000E+00  0.00000000000E+00  0.47526424530E+02  0.47526424530E+02  0.00000000000E+00 0. -1.
         21   -1    0    0  502  503 -0.00000000000E+00 -0.00000000000E+00 -0.77881755975E+03  0.77881755975E+03  0.00000000000E+00 0. -1.
         -6    2    1    2    0  503 -0.81209791878E+02  0.30116104378E+02 -0.34892048615E+03  0.39848858864E+03  0.17188845099E+03 0.  0.
        -24    2    3    3    0    0  0.23544090345E+02  0.60370384175E+01 -0.11870310636E+03  0.14437186504E+03  0.78498649237E+02 0.  0.
          6    2    1    2  501    0  0.81209791878E+02 -0.30116104378E+02 -0.38237064907E+03  0.42785539564E+03  0.17132109113E+03 0.  0.
         24    2    5    5    0    0  0.89728949390E+01 -0.66178880888E+02 -0.26450221941E+03  0.28490872782E+03  0.82166915466E+02 0.  0.
          5    1    5    5  501    0  0.72236896939E+02  0.36062776510E+02 -0.11786842966E+03  0.14294666782E+03  0.47000000000E+01 0. -1.
        -11    1    6    6    0    0 -0.58213533502E+01 -0.13081172576E+02 -0.19806983187E+03  0.19858666503E+03  0.00000000000E+00 0.  1.
         12    1    6    6    0    0  0.14794248289E+02 -0.53097708312E+02 -0.66432387541E+02  0.86322062793E+02  0.00000000000E+00 0. -1.
         -5    1    3    3    0  503 -0.10475388222E+03  0.24079065960E+02 -0.23021737979E+03  0.25411672360E+03  0.47000000000E+01 0.  1.
         13    1    4    4    0    0 -0.71934768680E+01  0.27340720320E+02 -0.97209223336E+02  0.10123682235E+03  0.00000000000E+00 0. -1.
        -14    1    4    4    0    0  0.30737567213E+02 -0.21303681902E+02 -0.21493883028E+02  0.43135042696E+02  0.00000000000E+00 0.  1.
</event>
<event>
12    1  0.8053217E-002  0.2480296E+03  0.7818608E-02  0.1116184E+00
         21   -1    0    0  501  502  0.00000000000E+00  0.00000000000E+00  0.32234357329E+02  0.32234357329E+02  0.00000000000E+00 0. -1.
         21   -1    0    0  502  503 -0.00000000000E+00 -0.00000000000E+00 -0.22358793341E+04  0.22358793341E+04  0.00000000000E+00 0. -1.
         -6    2    1    2    0  503 -0.27464417781E+02 -0.16220377081E+03 -0.16019611961E+04  0.16210485377E+04  0.18561877679E+03 0.  0.
        -24    2    3    3    0    0 -0.23294447890E+01 -0.43689795166E+01 -0.76046672496E+03  0.76449811703E+03  0.78250986424E+02 0.  0.
          6    2    1    2  501    0  0.27464417781E+02  0.16220377081E+03 -0.60168378067E+03  0.64706515372E+03  0.17206273195E+03 0.  0.
         24    2    5    5    0    0 -0.22018696601E+02  0.21361435757E+02 -0.27163736007E+03  0.28479747409E+03  0.79884991864E+02 0.  0.
          5    1    5    5  501    0  0.49483114382E+02  0.14084233505E+03 -0.33004642060E+03  0.36226767963E+03  0.47000000000E+01 0. -1.
        -13    1    6    6    0    0 -0.37980717195E+02 -0.18147832140E+02 -0.11477997680E+03  0.12225515025E+03  0.00000000000E+00 0.  1.
         14    1    6    6    0    0  0.15962020594E+02  0.39509267897E+02 -0.15685738327E+03  0.16254232384E+03  0.00000000000E+00 0. -1.
         -5    1    3    3    0  503 -0.25134972992E+02 -0.15783479129E+03 -0.84149447116E+03  0.85655042070E+03  0.47000000000E+01 0.  1.
         13    1    4    4    0    0  0.37368133162E+02 -0.58238765818E+01 -0.42767029294E+03  0.42933922996E+03  0.00000000000E+00 0. -1.
        -14    1    4    4    0    0 -0.39697577951E+02  0.14548970653E+01 -0.33279643202E+03  0.33515888707E+03  0.00000000000E+00 0.  1.
</event>
<event>
12    1  0.8053217E-002  0.1737226E+03  0.7818608E-02  0.1174306E+00
         21   -1    0    0  503  502  0.00000000000E+00  0.00000000000E+00  0.82721358784E+03  0.82721358784E+03  0.00000000000E+00 0. -1.
         21   -1    0    0  501  503 -0.00000000000E+00 -0.00000000000E+00 -0.53059400951E+02  0.53059400951E+02  0.00000000000E+00 0. -1.
          6    2    1    2  501    0 -0.13377871794E+02 -0.14494318738E+02  0.14018826856E+03  0.22323146791E+03  0.17259920305E+03 0.  0.
         24    2    3    3    0    0 -0.34443938332E+02  0.19193129875E+02  0.14747614114E+03  0.18256420294E+03  0.10012849178E+03 0.  0.
         -6    2    1    2    0  502  0.13377871794E+02  0.14494318738E+02  0.63396591833E+03  0.65704152088E+03  0.17146930288E+03 0.  0.
        -24    2    5    5    0    0  0.18154403988E+02  0.55403274686E+02  0.58343341457E+03  0.59168112100E+03  0.79327766152E+02 0.  0.
          5    1    3    3  501    0  0.21066066539E+02 -0.33687448612E+02 -0.72878725838E+01  0.40667264971E+02  0.47000000000E+01 0. -1.
        -11    1    4    4    0    0  0.19402940790E+02 -0.68733137586E+01  0.11013591721E+03  0.11204301322E+03  0.00000000000E+00 0.  1.
         12    1    4    4    0    0 -0.53846879122E+02  0.26066443633E+02  0.37340223935E+02  0.70521189712E+02  0.00000000000E+00 0. -1.
         -5    1    5    5    0  502 -0.47765321945E+01 -0.40908955948E+02  0.50532503763E+02  0.65360399885E+02  0.47000000000E+01 0.  1.
         13    1    6    6    0    0  0.42263951620E+02  0.60212740607E+01  0.21823852934E+03  0.22237480306E+03  0.00000000000E+00 0. -1.
        -14    1    6    6    0    0 -0.24109547632E+02  0.49382000625E+02  0.36519488523E+03  0.36930631794E+03  0.00000000000E+00 0.  1.
</event>
<event>
12    1  0.8053217E-002  0.3807523E+03  0.7818608E-02  0.1050663E+00
         21   -1    0    0  503  502  0.00000000000E+00  0.00000000000E+00  0.30898464206E+03  0.30898464206E+03  0.00000000000E+00 0. -1.
         21   -1    0    0  501  503 -0.00000000000E+00 -0.00000000000E+00 -0.47759193718E+03  0.47759193718E+03  0.00000000000E+00 0.  1.
          6    2    1    2  501    0 -0.31721309889E+03  0.12187760120E+03 -0.13674962809E+03  0.40456492234E+03  0.17173821887E+03 0.  0.
         24    2    3    3    0    0 -0.33136603865E+03  0.12468223913E+03 -0.12076690227E+03  0.38252611062E+03  0.79952912965E+02 0.  0.
         -6    2    1    2    0  502  0.31721309889E+03 -0.12187760120E+03 -0.31857667036E+02  0.38201165690E+03  0.17157999671E+03 0.  0.
        -24    2    5    5    0    0  0.12764229890E+03 -0.50012819986E+02  0.49074973097E+02  0.16366830978E+03  0.74733687255E+02 0.  0.
          5    1    3    3  501    0  0.14152939759E+02 -0.28046379259E+01 -0.15982725816E+02  0.22038811724E+02  0.47000000000E+01 0. -1.
        -13    1    4    4    0    0 -0.25261192309E+03  0.12403712427E+03 -0.11345578805E+03  0.30343072970E+03  0.00000000000E+00 0.  1.
         14    1    4    4    0    0 -0.78754115559E+02  0.64511485889E+00 -0.73111142273E+01  0.79095380914E+02  0.00000000000E+00 0. -1.
         -5    1    5    5    0  502  0.18957079999E+03 -0.71864781219E+02 -0.80932640133E+02  0.21834334711E+03  0.47000000000E+01 0.  1.
         11    1    6    6    0    0  0.11984722484E+03 -0.21745474000E+02  0.22034442847E+02  0.12378101475E+03  0.00000000000E+00 0. -1.
        -12    1    6    6    0    0  0.77950740622E+01 -0.28267345986E+02  0.27040530250E+02  0.39887295032E+02  0.00000000000E+00 0.  1.
</event>
<event>
12    1  0.8053217E-002  0.2119538E+03  0.7818608E-02  0.1140106E+00
         21   -1    0    0  503  502  0.00000000000E+00  0.00000000000E+00  0.76700921362E+02  0.76700921362E+02  0.00000000000E+00 0.  1.
         21   -1    0    0  501  503 -0.00000000000E+00 -0.00000000000E+00 -0.59407830754E+03  0.59407830754E+03  0.00000000000E+00 0.  1.
          6    2    1    2  501    0  0.18811557423E+02 -0.12206869502E+03 -0.21659633408E+03  0.30304849924E+03  0.17224917985E+03 0.  0.
         24    2    3    3    0    0  0.71482936643E+02 -0.11683071349E+03 -0.16581678777E+03  0.22954773079E+03  0.80235451997E+02 0.  0.
         -6    2    1    2    0  502 -0.18811557423E+02  0.12206869502E+03 -0.30078105209E+03  0.36773072966E+03  0.17176148358E+03 0.  0.
        -24    2    5    5    0    0 -0.26164864911E+02  0.62824806171E+01 -0.18779599718E+03  0.20571767089E+03  0.79550951234E+02 0.  0.
          5    1    3    3  501    0 -0.52671379220E+02 -0.52379815272E+01 -0.50779546317E+02  0.73500768456E+02  0.47000000000E+01 0. -1.
        -11    1    4    4    0    0 -0.59164100130E+01 -0.64980624885E+02 -0.75579590342E+02  0.99848685491E+02  0.00000000000E+00 0.  1.
         12    1    4    4    0    0  0.77399346656E+02 -0.51850088609E+02 -0.90237197426E+02  0.12969904530E+03  0.00000000000E+00 0. -1.
         -5    1    5    5    0  502  0.73533074879E+01  0.11578621440E+03 -0.11298505491E+03  0.16201305877E+03  0.47000000000E+01 0.  1.
         11    1    6    6    0    0 -0.63446857431E+01  0.40429973380E+01 -0.18548548615E+03  0.18563799837E+03  0.00000000000E+00 0. -1.
        -12    1    6    6    0    0 -0.19820179167E+02  0.22394832791E+01 -0.23105110298E+01  0.20079672527E+02  0.00000000000E+00 0.  1.
</event>
<event>
12    1  0.8053217E-002  0.1872727E+03  0.7818608E-02  0.1161066E+00
         21   -1    0    0  503  502  0.00000000000E+00  0.00000000000E+00  0.10490066352E+04  0.10490066352E+04  0.00000000000E+00 0. -1.
         21   -1    0    0  501  503 -0.00000000000E+00 -0.00000000000E+00 -0.43699391014E+02  0.43699391014E+02  0.00000000000E+00 0. -1.
          6    2    1    2  501    0 -0.17332971224E+01 -0.72571721458E+02  0.23716346728E+03  0.30218796843E+03  0.17263081698E+03 0.  0.
         24    2    3    3    0    0 -0.16957090450E+01  0.27307076155E+02  0.78484591384E+02  0.11463303972E+03  0.78945239711E+02 0.  0.
         -6    2    1    2    0  502  0.17332971224E+01  0.72571721458E+02  0.76814377690E+03  0.79051805779E+03  0.17205893938E+03 0.  0.
        -24    2    5    5    0    0  0.51137297462E+02  0.94071445095E+02  0.54938365308E+03  0.56517149105E+03  0.78306807177E+02 0.  0.
          5    1    3    3  501    0 -0.37588077434E-01 -0.99878797614E+02  0.15867887590E+03  0.18755492871E+03  0.47000000000E+01 0. -1.
        -13    1    4    4    0    0 -0.24958250651E+01 -0.25227802449E+01  0.84179184159E+02  0.84253953074E+02  0.00000000000E+00 0.  1.
         14    1    4    4    0    0  0.80011602015E+00  0.29829856400E+02 -0.56945927745E+01  0.30379086645E+02  0.00000000000E+00 0. -1.
         -5    1    5    5    0  502 -0.49404000340E+02 -0.21499723637E+02  0.21876012382E+03  0.22534656674E+03  0.47000000000E+01 0.  1.
         13    1    6    6    0    0  0.67511647484E+02  0.51867643912E+02  0.30645200858E+03  0.31805802708E+03  0.00000000000E+00 0. -1.
        -14    1    6    6    0    0 -0.16374350022E+02  0.42203801183E+02  0.24293164450E+03  0.24711346396E+03  0.00000000000E+00 0.  1.
</event>
<event>
12    1  0.8053217E-002  0.2251059E+03  0.7818608E-02  0.1130354E+00
         21   -1    0    0  503  502  0.00000000000E+00  0.00000000000E+00  0.68451361747E+02  0.68451361747E+02  0.00000000000E+00 0.  1.
         21   -1    0    0  501  503 -0.00000000000E+00 -0.00000000000E+00 -0.85169693559E+03  0.85169693559E+03  0.00000000000E+00 0. -1.
          6    2    1    2  501    0 -0.26812732842E+02 -0.14222303211E+03 -0.22316828216E+03  0.31698066179E+03  0.17241329497E+03 0.  0.
         24    2    3    3    0    0  0.43583977744E+02 -0.28937222935E+02 -0.75416866323E+02  0.11787781826E+03  0.73963168701E+02 0.  0.
         -6    2    1    2    0  502  0.26812732842E+02  0.14222303211E+03 -0.56007729169E+03  0.60316763555E+03  0.17081659874E+03 0.  0.
        -24    2    5    5    0    0  0.26482869805E+02  0.17074010329E+03 -0.43669010110E+03  0.47644028665E+03  0.80271894687E+02 0.  0.
          5    1    3    3  501    0 -0.70396710586E+02 -0.11328580917E+03 -0.14775141584E+03  0.19910284354E+03  0.47000000000E+01 0. -1.
        -11    1    4    4    0    0 -0.14132254005E+02 -0.15611322686E+02  0.11304301053E+01  0.21088192703E+02  0.00000000000E+00 0.  1.
         12    1    4    4    0    0  0.57716231749E+02 -0.13325900249E+02 -0.76547296428E+02  0.96789625555E+02  0.00000000000E+00 0. -1.
         -5    1    5    5    0  502  0.32986303727E+00 -0.28517071184E+02 -0.12338719058E+03  0.12672734890E+03  0.47000000000E+01 0.  1.
         11    1    6    6    0    0  0.36526350450E+02  0.14540110991E+03 -0.28206560391E+03  0.31943177980E+03  0.00000000000E+00 0. -1.
        -12    1    6    6    0    0 -0.10043480645E+02  0.25338993378E+02 -0.15462449720E+03  0.15700850685E+03  0.00000000000E+00 0.  1.
</event>
<event>
12    1  0.8053217E-002  0.1746028E+03  0.7818608E-02  0.1175160E+00
         21   -1    0    0  503  502  0.00000000000E+00  0.00000000000E+00  0.36203076961E+03  0.36203076961E+03  0.00000000000E+00 0.  1.
         21   -1    0    0  501  503 -0.00000000000E+00 -0.00000000000E+00 -0.83979461427E+02  0.83979461427E+02  0.00000000000E+00 0.  1.
          6    2    1    2  501    0 -0.16530794317E+02  0.25416943464E+02  0.18160560808E+03  0.24654113056E+03  0.16395927542E+03 0.  0.
         24    2    3    3    0    0  0.37831162374E+02 -0.22783654281E+02  0.86150885144E+02  0.12649024931E+03  0.81409559701E+02 0.  0.
         -6    2    1    2    0  502  0.16530794317E+02 -0.25416943464E+02  0.96445700102E+02  0.19946910048E+03  0.17195016953E+03 0.  0.
        -24    2    5    5    0    0  0.46146159003E+02  0.29261482905E+02  0.17043194688E+02  0.98505503067E+02  0.80169578250E+02 0.  0.
          5    1    3    3  501    0 -0.54361956691E+02  0.48200597745E+02  0.95454722941E+02  0.12005088125E+03  0.47000000000E+01 0. -1.
        -11    1    4    4    0    0 -0.41004001529E+01  0.14124504084E+02 -0.82027731049E+01  0.16840438938E+02  0.00000000000E+00 0.  1.
         12    1    4    4    0    0  0.41931562527E+02 -0.36908158364E+02  0.94353658249E+02  0.10964981037E+03  0.00000000000E+00 0. -1.
         -5    1    5    5    0  502 -0.29615364686E+02 -0.54678426370E+02  0.79402505414E+02  0.10096359741E+03  0.47000000000E+01 0.  1.
         11    1    6    6    0    0  0.64617095057E+02  0.35030650834E+02  0.24922150332E+02  0.77612041905E+02  0.00000000000E+00 0. -1.
        -12    1    6    6    0    0 -0.18470936054E+02 -0.57691679288E+01 -0.78789556436E+01  0.20893461162E+02  0.00000000000E+00 0.  1.
</event>
<event>
12    1  0.8053217E-002  0.2009783E+03  0.7818608E-02  0.1151190E+00
         21   -1    0    0  501  502  0.00000000000E+00  0.00000000000E+00  0.21295298813E+03  0.21295298813E+03  0.00000000000E+00 0. -1.
         21   -1    0    0  502  503 -0.00000000000E+00 -0.00000000000E+00 -0.23373189163E+03  0.23373189163E+03  0.00000000000E+00 0. -1.
         -6    2    1    2    0  503 -0.24467277501E+02  0.74028878446E+02 -0.11736825369E+03  0.22370102628E+03  0.17374671126E+03 0.  0.
        -24    2    3    3    0    0 -0.77510464463E+02  0.62910969749E+02 -0.52910874801E+02  0.13935630937E+03  0.81577926390E+02 0.  0.
          6    2    1    2  501    0  0.24467277501E+02 -0.74028878446E+02  0.96589350189E+02  0.22298385348E+03  0.18523869421E+03 0.  0.
         24    2    5    5    0    0  0.30841102464E+02 -0.11400506814E+03  0.39473163862E+02  0.15281926036E+03  0.88584798401E+02 0.  0.
          5    1    5    5  501    0 -0.63738249634E+01  0.39976189699E+02  0.57116186327E+02  0.70164593122E+02  0.47000000000E+01 0. -1.
        -11    1    6    6    0    0  0.21374297276E+01 -0.10161996648E+03 -0.10389532158E+01  0.10164775264E+03  0.00000000000E+00 0.  1.
         12    1    6    6    0    0  0.28703672736E+02 -0.12385101662E+02  0.40512117078E+02  0.51171507715E+02  0.00000000000E+00 0. -1.
         -5    1    3    3    0  503  0.53043186962E+02  0.11117908696E+02 -0.64457378889E+02  0.84344716907E+02  0.47000000000E+01 0.  1.
         13    1    4    4    0    0 -0.42048964228E+01 -0.15785884512E+02 -0.22096181073E+02  0.27479383577E+02  0.00000000000E+00 0. -1.
        -14    1    4    4    0    0 -0.73305568040E+02  0.78696854261E+02 -0.30814693728E+02  0.11187692580E+03  0.00000000000E+00 0.  1.
</event>
<event>
12    1  0.8053217E-002  0.2204424E+03  0.7818608E-02  0.1134001E+00
         21   -1    0    0  503  502  0.00000000000E+00  0.00000000000E+00  0.24070608955E+04  0.24070608955E+04  0.00000000000E+00 0.  1.
         21   -1    0    0  501  503 -0.00000000000E+00 -0.00000000000E+00 -0.22821939635E+02  0.22821939635E+02  0.00000000000E+00 0. -1.
          6    2    1    2  501    0  0.85158717463E+02  0.10305447167E+03  0.76832405290E+03  0.79932266417E+03  0.17527874915E+03 0.  0.
         24    2    3    3    0    0  0.11374444667E+03  0.11843262593E+03  0.70399002561E+03  0.72711055570E+03  0.78254188523E+02 0.  0.
         -6    2    1    2    0  502 -0.85158717463E+02 -0.10305447167E+03  0.16159149029E+04  0.16305601709E+04  0.17225929935E+03 0.  0.
        -24    2    5    5    0    0 -0.23518263803E+02 -0.98142050617E+02  0.64536470091E+03  0.65803075644E+03  0.79523005503E+02 0.  0.
          5    1    3    3  501    0 -0.28585729203E+02 -0.15378154261E+02  0.64334027282E+02  0.72212108464E+02  0.47000000000E+01 0. -1.
        -13    1    4    4    0    0  0.40401506956E+02  0.91228143932E+02  0.46715756972E+03  0.47769346966E+03  0.00000000000E+00 0.  1.
         14    1    4    4    0    0  0.73342939710E+02  0.27204481999E+02  0.23683245589E+03  0.24941708604E+03  0.00000000000E+00 0. -1.
         -5    1    5    5    0  502 -0.61640453660E+02 -0.49124210529E+01  0.97055020203E+03  0.97252941450E+03  0.47000000000E+01 0.  1.
         13    1    6    6    0    0 -0.41819154751E+02 -0.10157392371E+03  0.54754353143E+03  0.55845324110E+03  0.00000000000E+00 0. -1.
        -14    1    6    6    0    0  0.18300890948E+02  0.34318730976E+01  0.97821169484E+02  0.99577515341E+02  0.00000000000E+00 0.  1.
</event>
<event>
12    1  0.8053217E-002  0.2237261E+03  0.7818608E-02  0.1131345E+00
         21   -1    0    0  503  502  0.00000000000E+00  0.00000000000E+00  0.10272893221E+03  0.10272893221E+03  0.00000000000E+00 0.  1.
         21   -1    0    0  501  503 -0.00000000000E+00 -0.00000000000E+00 -0.11669285258E+04  0.11669285258E+04  0.00000000000E+00 0.  1.
          6    2    1    2  501    0  0.13419040069E+03  0.46820626554E+02 -0.10180490885E+04  0.10423422357E+04  0.17278354965E+03 0.  0.
         24    2    3    3    0    0  0.12724615166E+02  0.59811242261E+02 -0.54215364791E+03  0.55099586753E+03  0.76984203278E+02 0.  0.
         -6    2    1    2    0  502 -0.13419040069E+03 -0.46820626554E+02 -0.46150505124E+02  0.22731522234E+03  0.17129829677E+03 0.  0.
        -24    2    5    5    0    0 -0.42482881600E+02  0.31648109150E+02 -0.33856022378E+02  0.10590329604E+03  0.85222531175E+02 0.  0.
          5    1    3    3  501    0  0.12146578553E+03 -0.12990615706E+02 -0.47589544054E+03  0.49134636814E+03  0.47000000000E+01 0. -1.
        -13    1    4    4    0    0  0.34997573947E+02  0.56558433336E+01 -0.28855016537E+03  0.29071982506E+03  0.00000000000E+00 0.  1.
         14    1    4    4    0    0 -0.22272958782E+02  0.54155398927E+02 -0.25360348254E+03  0.26027604247E+03  0.00000000000E+00 0. -1.
         -5    1    5    5    0  502 -0.91707519095E+02 -0.78468735704E+02 -0.12294482746E+02  0.12141192630E+03  0.47000000000E+01 0.  1.
         13    1    6    6    0    0  0.13883287439E+02  0.21581511918E+02 -0.40827609132E+02  0.48222411742E+02  0.00000000000E+00 0. -1.
        -14    1    6    6    0    0 -0.56366169039E+02  0.10066597232E+02  0.69715867538E+01  0.57680884302E+02  0.00000000000E+00 0.  1.
</event>
<event>
12    1  0.8053217E-002  0.2213092E+03  0.7818608E-02  0.1133374E+00
         21   -1    0    0  501  502  0.00000000000E+00  0.00000000000E+00  0.19143733867E+03  0.19143733867E+03  0.00000000000E+00 0. -1.
         21   -1    0    0  502  503 -0.00000000000E+00 -0.00000000000E+00 -0.32518323038E+03  0.32518323038E+03  0.00000000000E+00 0. -1.
         -6    2    1    2    0  503  0.94494390044E+02 -0.10192611783E+03 -0.18830379703E+03  0.28868569795E+03  0.16900588445E+03 0.  0.
        -24    2    3    3    0    0  0.38462652100E+02  0.84867554956E+01 -0.45885981969E+02  0.99912070820E+02  0.79532998993E+02 0.  0.
          6    2    1    2  501    0 -0.94494390044E+02  0.10192611783E+03  0.54557905328E+02  0.22793487110E+03  0.17221967711E+03 0.  0.
         24    2    5    5    0    0 -0.55639070762E+02  0.13729794706E+03  0.43128770700E+02  0.17395693803E+03  0.80339859117E+02 0.  0.
          5    1    5    5  501    0 -0.38855319282E+02 -0.35371829235E+02  0.11429134628E+02  0.53977933068E+02  0.47000000000E+01 0. -1.
        -11    1    6    6    0    0 -0.17655841193E+02  0.55804691993E+02 -0.22431645029E+02  0.62682302729E+02  0.00000000000E+00 0.  1.
         12    1    6    6    0    0 -0.37983229569E+02  0.81493255070E+02  0.65560415729E+02  0.11127463530E+03  0.00000000000E+00 0. -1.
         -5    1    3    3    0  503  0.56031737944E+02 -0.11041287332E+03 -0.14241781507E+03  0.18877362713E+03  0.47000000000E+01 0.  1.
         11    1    4    4    0    0  0.46702988232E+02 -0.25735305373E+02 -0.31115214348E+02  0.61738412811E+02  0.00000000000E+00 0. -1.
        -12    1    4    4    0    0 -0.82403361321E+01  0.34222060869E+02 -0.14770767621E+02  0.38173658009E+02  0.00000000000E+00 0.  1.
</event>
<event>
12    1  0.8053217E-002  0.2169743E+03  0.7818608E-02  0.1136278E+00
         21   -1    0    0  503  502  0.00000000000E+00  0.00000000000E+00  0.10179525454E+04  0.10179525454E+04  0.00000000000E+00 0. -1.
         21   -1    0    0  501  503 -0.00000000000E+00 -0.00000000000E+00 -0.95710625043E+02  0.95710625043E+02  0.00000000000E+00 0.  1.
          6    2    1    2  501    0 -0.13144891687E+03 -0.91572181360E+01  0.59964433197E+02  0.22450608835E+03  0.17159422504E+03 0.  0.
         24    2    3    3    0    0 -0.11361423919E+02  0.20166544825E+02 -0.63960601502E+01  0.84125555104E+02  0.80625231487E+02 0.  0.
         -6    2    1    2    0  502  0.13144891687E+03  0.91572181360E+01  0.86227748714E+03  0.88915708207E+03  0.17238091361E+03 0.  0.
        -24    2    5    5    0    0  0.16116654070E+02  0.48012331149E+02  0.35492011598E+03  0.36738621021E+03  0.80245923548E+02 0.  0.
          5    1    3    3  501    0 -0.12008749295E+03 -0.29323762961E+02  0.66360493347E+02  0.14038053325E+03  0.47000000000E+01 0. -1.
        -11    1    4    4    0    0  0.78840555086E+01  0.12531458490E+02 -0.41116270515E+02  0.43700611943E+02  0.00000000000E+00 0.  1.
         12    1    4    4    0    0 -0.19245479428E+02  0.76350863343E+01  0.34720210365E+02  0.40424943160E+02  0.00000000000E+00 0. -1.
         -5    1    5    5    0  502  0.11533226280E+03 -0.38855113013E+02  0.50735737116E+03  0.52177087186E+03  0.47000000000E+01 0.  1.
         13    1    6    6    0    0  0.20221722608E+02 -0.23339573385E+01  0.25116049945E+03  0.25198405090E+03  0.00000000000E+00 0. -1.
        -14    1    6    6    0    0 -0.41050685384E+01  0.50346288488E+02  0.10375961652E+03  0.11540215931E+03  0.00000000000E+00 0.  1.
</event>
<event>
12    1  0.8053217E-002  0.4682580E+03  0.7818608E-02  0.1022417E+00
         21   -1    0    0  501  502  0.00000000000E+00  0.00000000000E+00  0.19865646070E+04  0.19865646070E+04  0.00000000000E+00 0. -1.
         21   -1    0    0  502  503 -0.00000000000E+00 -0.00000000000E+00 -0.14419062062E+03  0.14419062062E+03  0.00000000000E+00 0.  1.
         -6    2    1    2    0  503  0.32640125389E+03  0.28816757139E+03  0.14371775994E+04  0.15115221012E+04  0.17216643766E+03 0.  0.
        -24    2    3    3    0    0  0.32292280808E+03  0.23078823249E+03  0.11526458229E+04  0.12212034659E+04  0.72132959661E+02 0.  0.
          6    2    1    2  501    0 -0.32640125389E+03 -0.28816757139E+03  0.40519638694E+03  0.61923312645E+03  0.17229981186E+03 0.  0.
         24    2    5    5    0    0 -0.16083963071E+03 -0.18427555007E+03  0.15129724493E+03  0.29877865625E+03  0.80938025328E+02 0.  0.
          5    1    5    5  501    0 -0.16556162318E+03 -0.10389202132E+03  0.25389914201E+03  0.32045447021E+03  0.47000000000E+01 0. -1.
        -11    1    6    6    0    0 -0.11947417751E+03 -0.14554811083E+03  0.15217563583E+03  0.24210690985E+03  0.00000000000E+00 0.  1.
         12    1    6    6    0    0 -0.41365453205E+02 -0.38727439241E+02 -0.87839090057E+00  0.56671746396E+02  0.00000000000E+00 0. -1.
         -5    1    3    3    0  503  0.34784458076E+01  0.57379338906E+02  0.28453177656E+03  0.29031863528E+03  0.47000000000E+01 0.  1.
         13    1    4    4    0    0  0.19024289963E+03  0.13443778859E+03  0.56577206695E+03  0.61185285126E+03  0.00000000000E+00 0. -1.
        -14    1    4    4    0    0  0.13267990845E+03  0.96350443896E+02  0.58687375594E+03  0.60935061463E+03  0.00000000000E+00 0.  1.
</event>
<event>
12    1  0.8053217E-002  0.1886524E+03  0.7818608E-02  0.1161050E+00
         21   -1    0    0  503  502  0.00000000000E+00  0.00000000000E+00  0.90178727618E+02  0.90178727618E+02  0.00000000000E+00 0.  1.
         21   -1    0    0  501  503 -0.00000000000E+00 -0.00000000000E+00 -0.40220376236E+03  0.40220376236E+03  0.00000000000E+00 0.  1.
          6    2    1    2  501    0  0.56065864494E+02  0.40835204394E+02 -0.10374205654E+03  0.21529551408E+03  0.17543901792E+03 0.  0.
         24    2    3    3    0    0  0.73354701838E+02 -0.26415552544E+02 -0.45516733380E+02  0.12455496932E+03  0.85810685043E+02 0.  0.
         -6    2    1    2    0  502 -0.56065864494E+02 -0.40835204394E+02 -0.20828297820E+03  0.27708697590E+03  0.16906950679E+03 0.  0.
        -24    2    5    5    0    0 -0.22253882335E+02 -0.64198573901E+02 -0.51730215369E+02  0.11516120673E+03  0.77261867584E+02 0.  0.
          5    1    3    3  501    0 -0.17288837344E+02  0.67250756938E+02 -0.58225323164E+02  0.90740544758E+02  0.47000000000E+01 0. -1.
        -11    1    4    4    0    0  0.54063057511E+02 -0.56607192364E+02 -0.41229235520E+02  0.88470550334E+02  0.00000000000E+00 0.  1.
         12    1    4    4    0    0  0.19291644326E+02  0.30191639820E+02 -0.42874978598E+01  0.36084418989E+02  0.00000000000E+00 0. -1.
         -5    1    5    5    0  502 -0.33811982159E+02  0.23363369507E+02 -0.15655276283E+03  0.16192576918E+03  0.47000000000E+01 0.  1.
         11    1    6    6    0    0  0.25723254081E+02 -0.43502989795E+02 -0.22907958250E+02  0.55488471531E+02  0.00000000000E+00 0. -1.
        -12    1    6    6    0    0 -0.47977136416E+02 -0.20695584105E+02 -0.28822257120E+02  0.59672735195E+02  0.00000000000E+00 0.  1.
</event>
<event>
12    1  0.8053217E-002  0.2531917E+03  0.7818608E-02  0.1111420E+00
         21   -1    0    0  501  502  0.00000000000E+00  0.00000000000E+00  0.43170014469E+02  0.43170014469E+02  0.00000000000E+00 0. -1.
         21   -1    0    0  502  503 -0.00000000000E+00 -0.00000000000E+00 -0.21115760904E+04  0.21115760904E+04  0.00000000000E+00 0.  1.
         -6    2    1    2    0  503 -0.78570641772E+02 -0.16753362542E+03 -0.16220701731E+04  0.16415972004E+04  0.17172320921E+03 0.  0.
        -24    2    3    3    0    0  0.91450163504E+01 -0.75014741662E+02 -0.97563787445E+03  0.98269615530E+03  0.90064581168E+02 0.  0.
          6    2    1    2  501    0  0.78570641772E+02  0.16753362542E+03 -0.44633590284E+03  0.51314890445E+03  0.17281550447E+03 0.  0.
         24    2    5    5    0    0  0.89370821376E+02  0.91728503433E+02 -0.17497986884E+03  0.23115733084E+03  0.80090542816E+02 0.  0.
          5    1    5    5  501    0 -0.10800179604E+02  0.75805121987E+02 -0.27135603400E+03  0.28199157361E+03  0.47000000000E+01 0. -1.
        -13    1    6    6    0    0  0.43393120077E+02  0.29223883886E+02 -0.13303512678E+03  0.14295224104E+03  0.00000000000E+00 0.  1.
         14    1    6    6    0    0  0.45977701300E+02  0.62504619548E+02 -0.41944742054E+02  0.88205089806E+02  0.00000000000E+00 0. -1.
         -5    1    3    3    0  503 -0.87715658122E+02 -0.92518883758E+02 -0.64643229863E+03  0.65890104511E+03  0.47000000000E+01 0.  1.
         13    1    4    4    0    0  0.36654645539E+02 -0.57808810002E+02 -0.37591770973E+03  0.38209886946E+03  0.00000000000E+00 0. -1.
        -14    1    4    4    0    0 -0.27509629188E+02 -0.17205931660E+02 -0.59972016472E+03  0.60059728583E+03  0.00000000000E+00 0.  1.
</event>
<event>
12    1  0.8053217E-002  0.2579003E+03  0.7818608E-02  0.1108690E+00
         21   -1    0    0  501  502  0.00000000000E+00  0.00000000000E+00  0.48422213810E+02  0.48422213810E+02  0.00000000000E+00 0. -1.
         21   -1    0    0  502  503 -0.00000000000E+00 -0.00000000000E+00 -0.15243194320E+04  0.15243194320E+04  0.00000000000E+00 0.  1.
         -6    2    1    2    0  503 -0.15683245636E+03 -0.10588134731E+03 -0.48516895537E+03  0.54945562034E+03  0.17522923387E+03 0.  0.
        -24    2    3    3    0    0 -0.13106309499E+03 -0.10889835816E+03 -0.23478271029E+03  0.29768484352E+03  0.66760450365E+02 0.  0.
          6    2    1    2  501    0  0.15683245636E+03  0.10588134731E+03 -0.99072826287E+03  0.10232860255E+04  0.17252396959E+03 0.  0.
         24    2    5    5    0    0  0.63246628887E+02  0.83794468498E+02 -0.33011742121E+03  0.35569714646E+03  0.80754561449E+02 0.  0.
          5    1    5    5  501    0  0.93585827469E+02  0.22086878816E+02 -0.66061084166E+03  0.66758887905E+03  0.47000000000E+01 0. -1.
        -13    1    6    6    0    0  0.16259821576E+02  0.56388995551E+02 -0.26217330404E+03  0.26866138906E+03  0.00000000000E+00 0.  1.
         14    1    6    6    0    0  0.46986807312E+02  0.27405472947E+02 -0.67944117171E+02  0.87035757404E+02  0.00000000000E+00 0. -1.
         -5    1    3    3    0  503 -0.25769361368E+02  0.30170108441E+01 -0.25038624507E+03  0.25177077682E+03  0.47000000000E+01 0.  1.
         13    1    4    4    0    0 -0.15258951157E+02 -0.14381859420E+02 -0.20301076437E+01  0.21066437949E+02  0.00000000000E+00 0. -1.
        -14    1    4    4    0    0 -0.11580414383E+03 -0.94516498737E+02 -0.23275260265E+03  0.27661840557E+03  0.00000000000E+00 0.  1.
</event>
<event>
12    1  0.8053217E-002  0.2823643E+03  0.7818608E-02  0.1094421E+00
         21   -1    0    0  503  502  0.00000000000E+00  0.00000000000E+00  0.78634773210E+03  0.78634773210E+03  0.00000000000E+00 0.  1.
         21   -1    0    0  501  503 -0.00000000000E+00 -0.00000000000E+00 -0.10144154617E+03  0.10144154617E+03  0.00000000000E+00 0. -1.
          6    2    1    2  501    0  0.11862250477E+03 -0.18903741431E+03  0.32903739804E+03  0.43358414975E+03  0.17298312911E+03 0.  0.
         24    2    3    3    0    0  0.11360175325E+03 -0.75717261905E+02  0.17241828619E+03  0.24014604315E+03  0.96455142607E+02 0.  0.
         -6    2    1    2    0  502 -0.11862250477E+03  0.18903741431E+03  0.35586878789E+03  0.45420512852E+03  0.17278096519E+03 0.  0.
        -24    2    5    5    0    0 -0.97356718373E+02  0.21227218677E+03  0.30559191832E+03  0.39469091227E+03  0.88637936552E+02 0.  0.
          5    1    3    3  501    0  0.50207515189E+01 -0.11332015241E+03  0.15661911185E+03  0.19343810660E+03  0.47000000000E+01 0. -1.
        -13    1    4    4    0    0 -0.16822654258E+01  0.64618283147E+01  0.57262224071E+02  0.57650217239E+02  0.00000000000E+00 0.  1.
         14    1    4    4    0    0  0.11528401868E+03 -0.82179090219E+02  0.11515606212E+03  0.18249582591E+03  0.00000000000E+00 0. -1.
         -5    1    5    5    0  502 -0.21265786399E+02 -0.23234772461E+02  0.50276869565E+02  0.59514216249E+02  0.47000000000E+01 0.  1.
         11    1    6    6    0    0 -0.10133738993E+03  0.16443505603E+03  0.28037552903E+03  0.34046819459E+03  0.00000000000E+00 0. -1.
        -12    1    6    6    0    0  0.39806715590E+01  0.47837130745E+02  0.25216389299E+02  0.54222717686E+02  0.00000000000E+00 0.  1.
</event>
<event>
12    1  0.8053217E-002  0.1955789E+03  0.7818608E-02  0.1153627E+00
         21   -1    0    0  503  502  0.00000000000E+00  0.00000000000E+00  0.38470452875E+02  0.38470452875E+02  0.00000000000E+00 0. -1.
         21   -1    0    0  501  503 -0.00000000000E+00 -0.00000000000E+00 -0.11125605279E+04  0.11125605279E+04  0.00000000000E+00 0. -1.
          6    2    1    2  501    0  0.90659109860E+02 -0.18968362596E+02 -0.34691406354E+03  0.39801301356E+03  0.17171522503E+03 0.  0.
         24    2    3    3    0    0  0.35857443860E+02 -0.37234563284E+02 -0.32016944258E+03  0.33418322871E+03  0.80608866820E+02 0.  0.
         -6    2    1    2    0  502 -0.90659109860E+02  0.18968362596E+02 -0.72717601151E+03  0.75301796723E+03  0.17225630404E+03 0.  0.
        -24    2    5    5    0    0  0.20889256005E+02  0.94851566625E+01 -0.28381374695E+03  0.29571592618E+03  0.79820654107E+02 0.  0.
          5    1    3    3  501    0  0.54801666000E+02  0.18266200689E+02 -0.26744620963E+02  0.63829784853E+02  0.47000000000E+01 0. -1.
        -13    1    4    4    0    0 -0.42286246421E+01  0.22914724518E+02 -0.69667568361E+02  0.73461118610E+02  0.00000000000E+00 0.  1.
         14    1    4    4    0    0  0.40086068502E+02 -0.60149287802E+02 -0.25050187421E+03  0.26072211010E+03  0.00000000000E+00 0. -1.
         -5    1    5    5    0  502 -0.11154836586E+03  0.94832059332E+01 -0.44336226455E+03  0.45730204105E+03  0.47000000000E+01 0.  1.
         13    1    6    6    0    0 -0.82551868918E+01 -0.24764556794E+02 -0.18880687823E+03  0.19060290830E+03  0.00000000000E+00 0. -1.
        -14    1    6    6    0    0  0.29144442897E+02  0.34249713457E+02 -0.95006868724E+02  0.10511301788E+03  0.00000000000E+00 0.  1.
</event>
<event>
12    1  0.8053217E-002  0.1963328E+03  0.7818608E-02  0.1152957E+00
         21   -1    0    0  503  502  0.00000000000E+00  0.00000000000E+00  0.50316327874E+03  0.50316327874E+03  0.00000000000E+00 0.  1.
         21   -1    0    0  501  503 -0.00000000000E+00 -0.00000000000E+00 -0.97628840756E+02  0.97628840756E+02  0.00000000000E+00 0. -1.
          6    2    1    2  501    0 -0.82698804663E+02 -0.45611523111E+02  0.62699383720E+02  0.20571942527E+03  0.17166760289E+03 0.  0.
         24    2    3    3    0    0 -0.60307924610E+02  0.15668851901E+02  0.88970708084E+02  0.13522894113E+03  0.80551355863E+02 0.  0.
         -6    2    1    2    0  502  0.82698804663E+02  0.45611523111E+02  0.34283505426E+03  0.39507269422E+03  0.17212511715E+03 0.  0.
        -24    2    5    5    0    0  0.45839231329E+02 -0.81400264601E+01  0.73639970490E+02  0.11806016679E+03  0.79673474685E+02 0.  0.
          5    1    3    3  501    0 -0.22390880053E+02 -0.61280375012E+02 -0.26271324364E+02  0.70490484145E+02  0.47000000000E+01 0. -1.
        -13    1    4    4    0    0 -0.77465303343E+02  0.16099121016E+02  0.87554527245E+02  0.11800783940E+03  0.00000000000E+00 0.  1.
         14    1    4    4    0    0  0.17157378733E+02 -0.43026911524E+00  0.14161808389E+01  0.17221101726E+02  0.00000000000E+00 0. -1.
         -5    1    5    5    0  502  0.36859573334E+02  0.53751549571E+02  0.26919508377E+03  0.27701252743E+03  0.47000000000E+01 0.  1.
         13    1    6    6    0    0  0.74403009872E+01  0.24731791703E+02  0.60576037067E+02  0.65851923786E+02  0.00000000000E+00 0. -1.
        -14    1    6    6    0    0  0.38398930342E+02 -0.32871818163E+02  0.13063933423E+02  0.52208243001E+02  0.00000000000E+00 0.  1.
</event>
<event>
12    1  0.8053217E-002  0.1891265E+03  0.7818608E-02  0.1159874E+00
         21   -1    0    0  503  502  0.00000000000E+00  0.00000000000E+00  0.21557268632E+02  0.21557268632E+02  0.00000000000E+00 0. -1.
         21   -1    0    0  501  503 -0.00000000000E+00 -0.00000000000E+00 -0.25364433975E+04  0.25364433975E+04  0.00000000000E+00 0. -1.
          6    2    1    2  501    0 -0.72618590131E+02  0.26503788142E+02 -0.20256037882E+04  0.20344138062E+04  0.17260625014E+03 0.  0.
         24    2    3    3    0    0 -0.75664466053E+01  0.64437689536E+02 -0.76233931695E+03  0.76889811028E+03  0.76378026120E+02 0.  0.
         -6    2    1    2    0  502  0.72618590131E+02 -0.26503788142E+02 -0.48928234066E+03  0.52358685994E+03  0.16961745372E+03 0.  0.
        -24    2    5    5    0    0  0.89100729896E+02 -0.66472178798E+00 -0.20740948039E+03  0.24001373421E+03  0.81538445722E+02 0.  0.
          5    1    3    3  501    0 -0.65052143525E+02 -0.37933901393E+02 -0.12632644713E+04  0.12655156959E+04  0.47000000000E+01 0. -1.
        -11    1    4    4    0    0 -0.26145776463E+01  0.28019504450E+02 -0.65183284748E+03  0.65244002767E+03  0.00000000000E+00 0.  1.
         12    1    4    4    0    0 -0.49518689590E+01  0.36418185086E+02 -0.11050646947E+03  0.11645808262E+03  0.00000000000E+00 0. -1.
         -5    1    5    5    0  502 -0.16482139765E+02 -0.25839066354E+02 -0.28187286027E+03  0.28357312573E+03  0.47000000000E+01 0.  1.
         11    1    6    6    0    0  0.22509371836E+02 -0.37568317530E+02 -0.89840048904E+02  0.99946409088E+02  0.00000000000E+00 0. -1.
        -12    1    6    6    0    0  0.66591358060E+02  0.36903595742E+02 -0.11756943149E+03  0.14006732512E+03  0.00000000000E+00 0.  1.
</event>
<event>
12    1  0.8053217E-002  0.2058915E+03  0.7818608E-02  0.1145015E+00
         21   -1    0    0  501  502  0.00000000000E+00  0.00000000000E+00  0.24177947722E+03  0.24177947722E+03  0.00000000000E+00 0.  1.
         21   -1    0    0  502  503 -0.00000000000E+00 -0.00000000000E+00 -0.18543949994E+03  0.18543949994E+03  0.00000000000E+00 0. -1.
         -6    2    1    2    0  503  0.44405723787E+02  0.10275145095E+03  0.79648891686E+02  0.22076061017E+03  0.17280501173E+03 0.  0.
        -24    2    3    3    0    0  0.39488134811E+02  0.31548647197E+02 -0.22946053480E+02  0.95693289433E+02  0.77949049651E+02 0.  0.
          6    2    1    2  501    0 -0.44405723787E+02 -0.10275145095E+03 -0.23308914402E+02  0.20645836698E+03  0.17190701797E+03 0.  0.
         24    2    5    5    0    0 -0.82941902917E+02 -0.11215896516E+03 -0.22674949654E+01  0.16131005852E+03  0.80974074367E+02 0.  0.
          5    1    5    5  501    0  0.38536179130E+02  0.94075142087E+01 -0.21041419437E+02  0.45148308467E+02  0.47000000000E+01 0. -1.
        -13    1    6    6    0    0 -0.75980177508E+02 -0.95715810677E+02 -0.32270304139E+02  0.12639571321E+03  0.00000000000E+00 0.  1.
         14    1    6    6    0    0 -0.69617254087E+01 -0.16443154482E+02  0.30002809174E+02  0.34914345309E+02  0.00000000000E+00 0. -1.
         -5    1    3    3    0  503  0.49175889764E+01  0.71202803753E+02  0.10259494517E+03  0.12506732074E+03  0.47000000000E+01 0.  1.
         13    1    4    4    0    0 -0.12448917284E+02 -0.16000469598E+02 -0.14166874310E+02  0.24732385583E+02  0.00000000000E+00 0. -1.
        -14    1    4    4    0    0  0.51937052095E+02  0.47549116796E+02 -0.87791791708E+01  0.70960903851E+02  0.00000000000E+00 0.  1.
</event>
<event>
12    1  0.8053217E-002  0.1817488E+03  0.7818608E-02  0.1166529E+00
         21   -1    0    0  503  502  0.00000000000E+00  0.00000000000E+00  0.76062681041E+03  0.76062681041E+03  0.00000000000E+00 0.  1.
         21   -1    0    0  501  503 -0.00000000000E+00 -0.00000000000E+00 -0.10277539170E+03  0.10277539170E+03  0.00000000000E+00 0.  1.
          6    2    1    2  501    0 -0.31881703515E+02  0.48176327905E+02 -0.88607345026E+00  0.18005184465E+03  0.17052999750E+03 0.  0.
         24    2    3    3    0    0  0.35990518961E+02  0.42967008154E+01  0.32636289850E+02  0.92428222843E+02  0.78511590671E+02 0.  0.
         -6    2    1    2    0  502  0.31881703515E+02 -0.48176327905E+02  0.65873749216E+03  0.68335035746E+03  0.17232302772E+03 0.  0.
        -24    2    5    5    0    0 -0.98600112028E+01  0.35003849873E+02  0.31082127072E+03  0.32317109673E+03  0.80667255457E+02 0.  0.
          5    1    3    3  501    0 -0.67872222476E+02  0.43879627090E+02 -0.33522363300E+02  0.87623621807E+02  0.47000000000E+01 0. -1.
        -11    1    4    4    0    0  0.58167263621E+01 -0.24133278447E+02 -0.15214759071E+02  0.29115946280E+02  0.00000000000E+00 0.  1.
         12    1    4    4    0    0  0.30173792599E+02  0.28429979263E+02  0.47851048921E+02  0.63312276562E+02  0.00000000000E+00 0. -1.
         -5    1    5    5    0  502  0.41741714717E+02 -0.83180177778E+02  0.34791622144E+03  0.36017926073E+03  0.47000000000E+01 0.  1.
         13    1    6    6    0    0 -0.32457704700E+02 -0.49024355259E+01  0.61947904181E+02  0.70107626553E+02  0.00000000000E+00 0. -1.
        -14    1    6    6    0    0  0.22597693497E+02  0.39906285399E+02  0.24887336654E+03  0.25306347018E+03  0.00000000000E+00 0.  1.
</event>
<event>
12    1  0.8053217E-002  0.1839323E+03  0.7818608E-02  0.1164220E+00
         21   -1    0    0  503  502  0.00000000000E+00  0.00000000000E+00  0.27314341044E+03  0.27314341044E+03  0.00000000000E+00 0. -1.
         21   -1    0    0  501  503 -0.00000000000E+00 -0.00000000000E+00 -0.25775358134E+03  0.25775358134E+03  0.00000000000E+00 0. -1.
          6    2    1    2  501    0  0.34237635236E+02 -0.56752303364E+02 -0.18397673329E+03  0.25964415657E+03  0.17080576702E+03 0.  0.
         24    2    3    3    0    0  0.52066425794E+02  0.86765005865E+01 -0.16540606505E+03  0.18917605118E+03  0.75114696476E+02 0.  0.
         -6    2    1    2    0  502 -0.34237635236E+02  0.56752303364E+02  0.19936656239E+03  0.27125283522E+03  0.17157515791E+03 0.  0.
        -24    2    5    5    0    0 -0.96315988257E+01  0.52329764335E+02  0.21905394267E+03  0.23908610051E+03  0.79664055427E+02 0.  0.
          5    1    3    3  501    0 -0.17828790558E+02 -0.65428803950E+02 -0.18570668240E+02  0.70468105395E+02  0.47000000000E+01 0. -1.
        -13    1    4    4    0    0  0.14012898692E+01  0.34745152593E+02 -0.59545478675E+02  0.68955444111E+02  0.00000000000E+00 0.  1.
         14    1    4    4    0    0  0.50665135925E+02 -0.26068652007E+02 -0.10586058637E+03  0.12022060707E+03  0.00000000000E+00 0. -1.
         -5    1    5    5    0  502 -0.24606036410E+02  0.44225390291E+01 -0.19687380281E+02  0.32166734705E+02  0.47000000000E+01 0.  1.
         13    1    6    6    0    0 -0.20270178683E+01 -0.17963049596E+02  0.91300780979E+02  0.93073157030E+02  0.00000000000E+00 0. -1.
        -14    1    6    6    0    0 -0.76045809574E+01  0.70292813931E+02  0.12775316169E+03  0.14601294348E+03  0.00000000000E+00 0.  1.
</event>
<event>
12    1  0.8053217E-002  0.2371745E+03  0.7818608E-02  0.1122100E+00
         21   -1    0    0  501  502  0.00000000000E+00  0.00000000000E+00  0.55066171230E+03  0.55066171230E+03  0.00000000000E+00 0.  1.
         21   -1    0    0  502  503 -0.00000000000E+00 -0.00000000000E+00 -0.10556419403E+03  0.10556419403E+03  0.00000000000E+00 0.  1.
         -6    2    1    2    0  503  0.57023662719E+02  0.14933436511E+03  0.15628532486E+03  0.28403671238E+03  0.17521215854E+03 0.  0.
        -24    2    3    3    0    0  0.41741237356E+02  0.34616573265E+01  0.50658751114E+02  0.10322890701E+03  0.79596383148E+02 0.  0.
          6    2    1    2  501    0 -0.57023662719E+02 -0.14933436511E+03  0.28881219341E+03  0.37218919395E+03  0.17192981801E+03 0.  0.
         24    2    5    5    0    0 -0.21311017649E+02 -0.71570493173E+02  0.51288736137E+02  0.11967761887E+03  0.78202960544E+02 0.  0.
          5    1    5    5  501    0 -0.35712645070E+02 -0.77763871937E+02  0.23752345727E+03  0.25251157508E+03  0.47000000000E+01 0. -1.
        -11    1    6    6    0    0  0.14270159415E+01 -0.47365031897E+02  0.67697868505E+02  0.82634641774E+02  0.00000000000E+00 0.  1.
         12    1    6    6    0    0 -0.22738033590E+02 -0.24205461277E+02 -0.16409132367E+02  0.37042977097E+02  0.00000000000E+00 0. -1.
         -5    1    3    3    0  503  0.15282425363E+02  0.14587270778E+03  0.10562657375E+03  0.18080780537E+03  0.47000000000E+01 0.  1.
         13    1    4    4    0    0  0.41858240625E+02  0.55350933485E+01 -0.92995870400E+01  0.43234614439E+02  0.00000000000E+00 0. -1.
        -14    1    4    4    0    0 -0.11700326895E+00 -0.20734360219E+01  0.59958338154E+02  0.59994292569E+02  0.00000000000E+00 0.  1.
</event>
<event>
12    1  0.8053217E-002  0.2148947E+03  0.7818608E-02  0.1137961E+00
         21   -1    0    0  501  502  0.00000000000E+00  0.00000000000E+00  0.11252430697E+03  0.11252430697E+03  0.00000000000E+00 0.  1.
         21   -1    0    0  502  503 -0.00000000000E+00 -0.00000000000E+00 -0.43655348701E+03  0.43655348701E+03  0.00000000000E+00 0.  1.
         -6    2    1    2    0  503 -0.11018502289E+03 -0.69161227248E+02 -0.92543639575E+02  0.23397444458E+03  0.17104297959E+03 0.  0.
        -24    2    3    3    0    0 -0.12805445162E+02 -0.66407805824E+02 -0.87437014955E+02  0.13630904076E+03  0.79755544686E+02 0.  0.
          6    2    1    2  501    0  0.11018502289E+03  0.69161227248E+02 -0.23148554046E+03  0.31510334940E+03  0.16964831487E+03 0.  0.
         24    2    5    5    0    0  0.42438153053E+02  0.70957785048E+02 -0.21718020598E+03  0.24568002056E+03  0.79720929119E+02 0.  0.
          5    1    5    5  501    0  0.67746869836E+02 -0.17965578002E+01 -0.14305334480E+02  0.69423328839E+02  0.47000000000E+01 0. -1.
        -11    1    6    6    0    0  0.54195757238E+02  0.30583089113E+02 -0.75231419442E+02  0.97633354514E+02  0.00000000000E+00 0.  1.
         12    1    6    6    0    0 -0.11757604185E+02  0.40374695936E+02 -0.14194878654E+03  0.14804666605E+03  0.00000000000E+00 0. -1.
         -5    1    3    3    0  503 -0.97379577727E+02 -0.27534214242E+01 -0.51066246207E+01  0.97665403817E+02  0.47000000000E+01 0.  1.
         13    1    4    4    0    0  0.16958131288E+02 -0.55412170878E+02 -0.19185177823E+02  0.61042263607E+02  0.00000000000E+00 0. -1.
        -14    1    4    4    0    0 -0.29763576450E+02 -0.10995634946E+02 -0.68251837132E+02  0.75266777152E+02  0.00000000000E+00 0.  1.
</event>
<event>
12    1  0.8053217E-002  0.1940131E+03  0.7818608E-02  0.1156939E+00
         21   -1    0    0  501  502  0.00000000000E+00  0.00000000000E+00  0.14798364949E+02  0.14798364949E+02  0.00000000000E+00 0. -1.
         21   -1    0    0  502  503 -0.00000000000E+00 -0.00000000000E+00 -0.26888503493E+04  0.26888503493E+04  0.00000000000E+00 0. -1.
         -6    2    1    2    0  503  0.54232475875E+01 -0.71240834773E+02 -0.17887688305E+04  0.17992595774E+04  0.18037857318E+03 0.  0.
        -24    2    3    3    0    0  0.34355871645E+02 -0.32710228778E+02 -0.43207570045E+03  0.44170293272E+03  0.78497037326E+02 0.  0.
          6    2    1    2  501    0 -0.54232475875E+01  0.71240834773E+02 -0.88528315381E+03  0.90438913683E+03  0.17055433224E+03 0.  0.
         24    2    5    5    0    0  0.53598288460E+02  0.84032472402E+01 -0.43441511480E+03  0.44532902886E+03  0.81596941699E+02 0.  0.
          5    1    5    5  501    0 -0.59021536048E+02  0.62837587532E+02 -0.45086803901E+03  0.45906010796E+03  0.47000000000E+01 0. -1.
        -13    1    6    6    0    0  0.16892684489E+02 -0.70385575347E+01 -0.36379725107E+03  0.36425724971E+03  0.00000000000E+00 0.  1.
         14    1    6    6    0    0  0.36705603971E+02  0.15441804775E+02 -0.70617863729E+02  0.81071779154E+02  0.00000000000E+00 0. -1.
         -5    1    3    3    0  503 -0.28932624058E+02 -0.38530605994E+02 -0.13566931301E+04  0.13575566447E+04  0.47000000000E+01 0.  1.
         11    1    4    4    0    0  0.36676331057E+02  0.32076813090E+01 -0.35187730427E+03  0.35379807764E+03  0.00000000000E+00 0. -1.
        -12    1    4    4    0    0 -0.23204594113E+01 -0.35917910087E+02 -0.80198396176E+02  0.87904855077E+02  0.00000000000E+00 0.  1.
</event>
<event>
12    1  0.8053217E-002  0.1760472E+03  0.7818608E-02  0.1171871E+00
         21   -1    0    0  501  502  0.00000000000E+00  0.00000000000E+00  0.46872604917E+02  0.46872604917E+02  0.00000000000E+00 0.  1.
         21   -1    0    0  502  503 -0.00000000000E+00 -0.00000000000E+00 -0.11123844210E+04  0.11123844210E+04  0.00000000000E+00 0.  1.
         -6    2    1    2    0  503 -0.35495099010E+01 -0.37694040230E+02 -0.90371839769E+03  0.92070600993E+03  0.17192781829E+03 0.  0.
        -24    2    3    3    0    0 -0.50447501088E+02 -0.69468525348E+02 -0.61851919865E+03  0.62989728823E+03  0.82666608978E+02 0.  0.
          6    2    1    2  501    0  0.35495099010E+01  0.37694040230E+02 -0.16179341841E+03  0.23855101600E+03  0.17116085215E+03 0.  0.
         24    2    5    5    0    0  0.38879512388E+02  0.62715450070E+02 -0.16261548030E+03  0.19499592661E+03  0.78324790458E+02 0.  0.
          5    1    5    5  501    0 -0.35330002487E+02 -0.25021409840E+02  0.82206189764E+00  0.43555089391E+02  0.47000000000E+01 0. -1.
        -11    1    6    6    0    0  0.23063686704E+02  0.77898375344E+02 -0.14741158899E+03  0.16831597397E+03  0.00000000000E+00 0.  1.
         12    1    6    6    0    0  0.15815825684E+02 -0.15182925274E+02 -0.15203891318E+02  0.26679952645E+02  0.00000000000E+00 0. -1.
         -5    1    3    3    0  503  0.46897991187E+02  0.31774485118E+02 -0.28519919904E+03  0.29080872170E+03  0.47000000000E+01 0.  1.
         13    1    4    4    0    0 -0.42550046864E+02 -0.35562899706E+01 -0.12865039611E+03  0.13555101662E+03  0.00000000000E+00 0. -1.
        -14    1    4    4    0    0 -0.78974542247E+01 -0.65912235377E+02 -0.48986880254E+03  0.49434627161E+03  0.00000000000E+00 0.  1.
</event>
<event>
12    1  0.8053217E-002  0.1945680E+03  0.7818608E-02  0.1154728E+00
         21   -1    0    0  501  502  0.00000000000E+00  0.00000000000E+00  0.88020804827E+03  0.88020804827E+03  0.00000000000E+00 0. -1.
         21   -1    0    0  502  503 -0.00000000000E+00 -0.00000000000E+00 -0.62018760021E+02  0.62018760021E+02  0.00000000000E+00 0. -1.
         -6    2    1    2    0  503  0.40730328186E+02  0.80483083703E+02  0.14497787944E+03  0.24146272345E+03  0.17073129442E+03 0.  0.
        -24    2    3    3    0    0  0.91858755153E+00  0.11431825692E+03  0.11848709653E+03  0.18269500087E+03  0.79175524187E+02 0.  0.
          6    2    1    2  501    0 -0.40730328186E+02 -0.80483083703E+02  0.67321140881E+03  0.70076408484E+03  0.17239551982E+03 0.  0.
         24    2    5    5    0    0  0.38394539681E+02 -0.59238183137E+02  0.29072643083E+03  0.30957495041E+03  0.79570656154E+02 0.  0.
          5    1    5    5  501    0 -0.79124867868E+02 -0.21244900567E+02  0.38248497798E+03  0.39118913443E+03  0.47000000000E+01 0. -1.
        -11    1    6    6    0    0  0.52951032591E+01  0.19885310922E+02  0.58953708406E+02  0.62442000639E+02  0.00000000000E+00 0.  1.
         12    1    6    6    0    0  0.33099436422E+02 -0.79123494059E+02  0.23177272242E+03  0.24713294977E+03  0.00000000000E+00 0. -1.
         -5    1    3    3    0  503  0.39811740635E+02 -0.33835173213E+02  0.26490782913E+02  0.58767722587E+02  0.47000000000E+01 0.  1.
         13    1    4    4    0    0  0.20408886458E+02  0.51566315610E+02  0.10734292892E+02  0.56487455209E+02  0.00000000000E+00 0. -1.
        -14    1    4    4    0    0 -0.19490298906E+02  0.62751941305E+02  0.10775280364E+03  0.12620754566E+03  0.00000000000E+00 0.  1.
</event>
<event>
12    1  0.8053217E-002  0.1779240E+03  0.7818608E-02  0.1170416E+00
         21   -1    0    0  503  502  0.00000000000E+00  0.00000000000E+00  0.48258215024E+03  0.48258215024E+03  0.00000000000E+00 0.  1.
         21   -1    0    0  501  503 -0.00000000000E+00 -0.00000000000E+00 -0.64728146480E+02  0.64728146480E+02  0.00000000000E+00 0.  1.
          6    2    1    2  501    0 -0.33251309197E+02 -0.78388624777E+00  0.20926906871E+03  0.27314859592E+03  0.17236690022E+03 0.  0.
         24    2    3    3    0    0  0.31569547752E+02 -0.42781008028E+02  0.93001551892E+02  0.13348569032E+03  0.79638494917E+02 0.  0.
         -6    2    1    2    0  502  0.33251309197E+02  0.78388624777E+00  0.20858493505E+03  0.27416170080E+03  0.17478758255E+03 0.  0.
        -24    2    5    5    0    0  0.71431559636E+02  0.22739783197E+01  0.63145948166E+02  0.12371389987E+03  0.78804058033E+02 0.  0.
          5    1    3    3  501    0 -0.64820856949E+02  0.41997121780E+02  0.11626751682E+03  0.13966290560E+03  0.47000000000E+01 0. -1.
        -11    1    4    4    0    0  0.92612132243E+01  0.23310634000E+02  0.16861900521E+02  0.30223822013E+02  0.00000000000E+00 0.  1.
         12    1    4    4    0    0  0.22308334528E+02 -0.66091642028E+02  0.76139651370E+02  0.10326186831E+03  0.00000000000E+00 0. -1.
         -5    1    5    5    0  502 -0.38180250439E+02 -0.14900920719E+01  0.14543898688E+03  0.15044780092E+03  0.47000000000E+01 0.  1.
         13    1    6    6    0    0  0.34525205484E+02  0.40349502101E+02  0.35865987419E+02  0.64081519857E+02  0.00000000000E+00 0. -1.
        -14    1    6    6    0    0  0.36906354152E+02 -0.38075523782E+02  0.27279960747E+02  0.59632380016E+02  0.00000000000E+00 0.  1.
</event>
<event>
12    1  0.8053217E-002  0.1775255E+03  0.7818608E-02  0.1170793E+00
         21   -1    0    0  501  502  0.00000000000E+00  0.00000000000E+00  0.21901269130E+03  0.21901269130E+03  0.00000000000E+00 0.  1.
         21   -1    0    0  502  503 -0.00000000000E+00 -0.00000000000E+00 -0.16205395195E+03  0.16205395195E+03  0.00000000000E+00 0.  1.
         -6    2    1    2    0  503 -0.38515958082E+02 -0.53233505079E+01  0.95619716973E+02  0.20163933012E+03  0.17321510353E+03 0.  0.
        -24    2    3    3    0    0 -0.52816062084E+02  0.56869348676E+02  0.66736377180E+02  0.13143418698E+03  0.82447208775E+02 0.  0.
          6    2    1    2  501    0  0.38515958082E+02  0.53233505079E+01 -0.38660977627E+02  0.17942731312E+03  0.17084400024E+03 0.  0.
         24    2    5    5    0    0 -0.24892288112E+02 -0.28583253830E+02 -0.57308395025E+02  0.10499560161E+03  0.79392668493E+02 0.  0.
          5    1    5    5  501    0  0.63408246194E+02  0.33906604338E+02  0.18647417398E+02  0.74431711513E+02  0.47000000000E+01 0. -1.
        -13    1    6    6    0    0 -0.16347737193E+02 -0.28174334745E+02 -0.76956319024E+02  0.83566241314E+02  0.00000000000E+00 0.  1.
         14    1    6    6    0    0 -0.85445509192E+01 -0.40891908555E+00  0.19647924000E+02  0.21429360297E+02  0.00000000000E+00 0. -1.
         -5    1    3    3    0  503  0.14300104002E+02 -0.62192699184E+02  0.28883339793E+02  0.70205143144E+02  0.47000000000E+01 0.  1.
         13    1    4    4    0    0 -0.10511059435E+02 -0.20974547328E+02  0.22089771895E+02  0.32223780480E+02  0.00000000000E+00 0. -1.
        -14    1    4    4    0    0 -0.42305002650E+02  0.77843896004E+02  0.44646605285E+02  0.99210406499E+02  0.00000000000E+00 0.  1.
</event>
<event>
12    1  0.8053217E-002  0.3532884E+03  0.7818608E-02  0.1061357E+00
         21   -1    0    0  501  502  0.00000000000E+00  0.00000000000E+00  0.47782716809E+03  0.47782716809E+03  0.00000000000E+00 0. -1.
         21   -1    0    0  502  503 -0.00000000000E+00 -0.00000000000E+00 -0.27234915291E+03  0.27234915291E+03  0.00000000000E+00 0.  1.
         -6    2    1    2    0  503  0.17013693060E+03 -0.25733100945E+03  0.24722751747E+02  0.35333236455E+03  0.17048965307E+03 0.  0.
        -24    2    3    3    0    0  0.40252346135E+02 -0.38782661740E+02  0.43908456586E+01  0.98246375175E+02  0.80676666319E+02 0.  0.
          6    2    1    2  501    0 -0.17013693060E+03  0.25733100945E+03  0.18075526343E+03  0.39684395645E+03  0.17218256861E+03 0.  0.
         24    2    5    5    0    0 -0.15393854678E+03  0.11124071675E+03  0.10842619207E+03  0.23295879598E+03  0.80261997542E+02 0.  0.
          5    1    5    5  501    0 -0.16198383824E+02  0.14609029270E+03  0.72329071359E+02  0.16388516047E+03  0.47000000000E+01 0. -1.
        -13    1    6    6    0    0 -0.81592850024E+02  0.22641303466E+02  0.16626896612E+02  0.86292963147E+02  0.00000000000E+00 0.  1.
         14    1    6    6    0    0 -0.72345696752E+02  0.88599413287E+02  0.91799295461E+02  0.14666583283E+03  0.00000000000E+00 0. -1.
         -5    1    3    3    0  503  0.12988458446E+03 -0.21854834771E+03  0.20331906088E+02  0.25508598937E+03  0.47000000000E+01 0.  1.
         13    1    4    4    0    0  0.67812308475E+01  0.14477682937E+02  0.27019996118E+02  0.31395359295E+02  0.00000000000E+00 0. -1.
        -14    1    4    4    0    0  0.33471115288E+02 -0.53260344677E+02 -0.22629150459E+02  0.66851015880E+02  0.00000000000E+00 0.  1.
</event>
<event>
12    1  0.8053217E-002  0.2014377E+03  0.7818608E-02  0.1148563E+00
         21   -1    0    0  501  502  0.00000000000E+00  0.00000000000E+00  0.92613967622E+03  0.92613967622E+03  0.00000000000E+00 0.  1.
         21   -1    0    0  502  503 -0.00000000000E+00 -0.00000000000E+00 -0.26472001373E+03  0.26472001373E+03  0.00000000000E+00 0. -1.
         -6    2    1    2    0  503 -0.90497754961E+02 -0.51010382399E+02 -0.21327848049E+03  0.29326624768E+03  0.17241078570E+03 0.  0.
        -24    2    3    3    0    0 -0.57681426839E+02 -0.87694510375E+02 -0.89291663877E+02  0.15978419896E+03  0.80873449591E+02 0.  0.
          6    2    1    2  501    0  0.90497754961E+02  0.51010382399E+02  0.87469814298E+03  0.89759344227E+03  0.17258401869E+03 0.  0.
         24    2    5    5    0    0  0.27305469486E+02  0.57865742647E+02  0.75617901325E+03  0.76302325604E+03  0.79396198616E+02 0.  0.
          5    1    5    5  501    0  0.63192285475E+02 -0.68553602482E+01  0.11851912973E+03  0.13457018623E+03  0.47000000000E+01 0. -1.
        -13    1    6    6    0    0  0.22102376204E+02  0.37469705774E+02  0.14271141255E+03  0.14919464185E+03  0.00000000000E+00 0.  1.
         14    1    6    6    0    0  0.52030932814E+01  0.20396036873E+02  0.61346760070E+03  0.61382861420E+03  0.00000000000E+00 0. -1.
         -5    1    3    3    0  503 -0.32816328122E+02  0.36684127976E+02 -0.12398681661E+03  0.13348204872E+03  0.47000000000E+01 0.  1.
         11    1    4    4    0    0 -0.47016608780E+02 -0.12893678104E+02 -0.90820415997E+01  0.49591248380E+02  0.00000000000E+00 0. -1.
        -12    1    4    4    0    0 -0.10664818058E+02 -0.74800832271E+02 -0.80209622278E+02  0.11019295058E+03  0.00000000000E+00 0.  1.
</event>
<event>
12    1  0.8053217E-002  0.1816397E+03  0.7818608E-02  0.1168455E+00
         21   -1    0    0  501  502  0.00000000000E+00  0.00000000000E+00  0.18969529478E+03  0.18969529478E+03  0.00000000000E+00 0. -1.
         21   -1    0    0  502  503 -0.00000000000E+00 -0.00000000000E+00 -0.18107467433E+03  0.18107467433E+03  0.00000000000E+00 0.  1.
         -6    2    1    2    0  503  0.82568988546E+01  0.60490822941E+02 -0.50406784022E+02  0.17977986552E+03  0.16140830255E+03 0.  0.
        -24    2    3    3    0    0  0.21805383794E+02  0.99834628634E+02 -0.39296455946E+02  0.13645520880E+03  0.81445593622E+02 0.  0.
          6    2    1    2  501    0 -0.82568988546E+01 -0.60490822941E+02  0.59027404477E+02  0.19099010359E+03  0.17107211682E+03 0.  0.
         24    2    5    5    0    0  0.30037153418E+02 -0.84078014834E+02  0.50486284474E+01  0.12057285910E+03  0.80876341025E+02 0.  0.
          5    1    5    5  501    0 -0.38294052273E+02  0.23587191893E+02  0.53978776029E+02  0.70417244497E+02  0.47000000000E+01 0. -1.
        -11    1    6    6    0    0  0.49490280962E+02 -0.20532652317E+02 -0.28060745947E+01  0.53654000554E+02  0.00000000000E+00 0.  1.
         12    1    6    6    0    0 -0.19453127544E+02 -0.63545362517E+02  0.78547030421E+01  0.66918858542E+02  0.00000000000E+00 0. -1.
         -5    1    3    3    0  503 -0.13548484939E+02 -0.39343805693E+02 -0.11110328076E+02  0.43324656727E+02  0.47000000000E+01 0.  1.
         11    1    4    4    0    0  0.34204919311E+02  0.46172539626E+01 -0.76444312255E+01  0.35351561040E+02  0.00000000000E+00 0. -1.
        -12    1    4    4    0    0 -0.12399535517E+02  0.95217374672E+02 -0.31652024721E+02  0.10110364775E+03  0.00000000000E+00 0.  1.
</event>
<event>
12    1  0.8053217E-002  0.1971642E+03  0.7818608E-02  0.1152979E+00
         21   -1    0    0  501  502  0.00000000000E+00  0.00000000000E+00  0.48385716742E+03  0.48385716742E+03  0.00000000000E+00 0. -1.
         21   -1    0    0  502  503 -0.00000000000E+00 -0.00000000000E+00 -0.67517918492E+03  0.67517918492E+03  0.00000000000E+00 0.  1.
         -6    2    1    2    0  503  0.78304467676E+02 -0.43695371989E+02 -0.64041802249E+03  0.67008131808E+03  0.17559286465E+03 0.  0.
        -24    2    3    3    0    0  0.29651574932E+02 -0.36288620731E+02 -0.15544300745E+03  0.18259304217E+03  0.83556032655E+02 0.  0.
          6    2    1    2  501    0 -0.78304467676E+02  0.43695371989E+02  0.44909600499E+03  0.48895503427E+03  0.17131529017E+03 0.  0.
         24    2    5    5    0    0 -0.86309971058E+02 -0.14841935698E+02  0.38008211461E+03  0.39798409637E+03  0.79115314337E+02 0.  0.
          5    1    5    5  501    0  0.80055033811E+01  0.58537307686E+02  0.69013890382E+02  0.90970937894E+02  0.47000000000E+01 0. -1.
        -11    1    6    6    0    0 -0.24233810888E+02  0.93742383475E-01  0.17672827164E+02  0.29993585944E+02  0.00000000000E+00 0.  1.
         12    1    6    6    0    0 -0.62076160169E+02 -0.14935678081E+02  0.36240928744E+03  0.36799051043E+03  0.00000000000E+00 0. -1.
         -5    1    3    3    0  503  0.48652892744E+02 -0.74067512577E+01 -0.48497501503E+03  0.48748827590E+03  0.47000000000E+01 0.  1.
         11    1    4    4    0    0  0.47808599525E+02 -0.51265185441E+01 -0.42992394106E+02  0.64500304897E+02  0.00000000000E+00 0. -1.
        -12    1    4    4    0    0 -0.18157024593E+02 -0.31162102187E+02 -0.11245061335E+03  0.11809273728E+03  0.00000000000E+00 0.  1.
</event>
<event>
12    1  0.8053217E-002  0.2142446E+03  0.7818608E-02  0.1138366E+00
         21   -1    0    0  503  502  0.00000000000E+00  0.00000000000E+00  0.17930999544E+03  0.17930999544E+03  0.00000000000E+00 0. -1.
         21   -1    0    0  501  503 -0.00000000000E+00 -0.00000000000E+00 -0.53574679565E+03  0.53574679565E+03  0.00000000000E+00 0. -1.
          6    2    1    2  501    0  0.56931688741E+02  0.11364224332E+03 -0.43703402039E+03  0.48672322388E+03  0.17246734484E+03 0.  0.
         24    2    3    3    0    0  0.91964553307E+02  0.68423401555E+02 -0.38559330735E+03  0.40964999761E+03  0.77405948874E+02 0.  0.
         -6    2    1    2    0  502 -0.56931688741E+02 -0.11364224332E+03  0.80597220176E+02  0.22833356720E+03  0.17171059770E+03 0.  0.
        -24    2    5    5    0    0 -0.69779314289E+02 -0.95158406646E+02  0.11763450175E+03  0.18473810956E+03  0.79787330217E+02 0.  0.
          5    1    3    3  501    0 -0.35032864567E+02  0.45218841765E+02 -0.51440713041E+02  0.77073226275E+02  0.47000000000E+01 0. -1.
        -11    1    4    4    0    0  0.71428762978E+02  0.55696945273E+01 -0.21862352835E+03  0.23006376687E+03  0.00000000000E+00 0.  1.
         12    1    4    4    0    0  0.20535790329E+02  0.62853707027E+02 -0.16696977900E+03  0.17958623074E+03  0.00000000000E+00 0. -1.
         -5    1    5    5    0  502  0.12847625548E+02 -0.18483836674E+02 -0.37037281577E+02  0.43595457642E+02  0.47000000000E+01 0.  1.
         13    1    6    6    0    0  0.67046912054E+01 -0.58565246497E+01  0.46439323232E+02  0.47284907818E+02  0.00000000000E+00 0. -1.
        -14    1    6    6    0    0 -0.76484005494E+02 -0.89301881996E+02  0.71195178522E+02  0.13745320174E+03  0.00000000000E+00 0.  1.
</event>
<event>
12    1  0.8053217E-002  0.2118373E+03  0.7818608E-02  0.1140141E+00
         21   -1    0    0  503  502  0.00000000000E+00  0.00000000000E+00  0.51768824934E+03  0.51768824934E+03  0.00000000000E+00 0. -1.
         21   -1    0    0  501  503 -0.00000000000E+00 -0.00000000000E+00 -0.12773175588E+03  0.12773175588E+03  0.00000000000E+00 0. -1.
          6    2    1    2  501    0  0.11955509263E+03  0.30685385814E+02  0.11970765758E+02  0.21217529170E+03  0.17216283600E+03 0.  0.
         24    2    3    3    0    0  0.10943996596E+03 -0.24374862489E+02 -0.31020489504E+02  0.14143432224E+03  0.80437284068E+02 0.  0.
         -6    2    1    2    0  502 -0.11955509263E+03 -0.30685385814E+02  0.37798572770E+03  0.43324471353E+03  0.17202545851E+03 0.  0.
        -24    2    5    5    0    0 -0.13068607004E+03 -0.30339346937E+02  0.38761972675E+03  0.41778760065E+03  0.79360580989E+02 0.  0.
          5    1    3    3  501    0  0.10115126671E+02  0.55060248303E+02  0.42991255263E+02  0.70740969458E+02  0.47000000000E+01 0. -1.
        -11    1    4    4    0    0  0.53927756959E+02 -0.48582217828E+02  0.16912094357E+01  0.72603684818E+02  0.00000000000E+00 0.  1.
         12    1    4    4    0    0  0.55512208997E+02  0.24207355339E+02 -0.32711698940E+02  0.68830637421E+02  0.00000000000E+00 0. -1.
         -5    1    5    5    0  502  0.11130977408E+02 -0.34603887647E+00 -0.96339990455E+01  0.15457112880E+02  0.47000000000E+01 0.  1.
         11    1    6    6    0    0 -0.44083594850E+02 -0.15141988138E+02  0.25119767527E+03  0.25548564579E+03  0.00000000000E+00 0. -1.
        -12    1    6    6    0    0 -0.86602475187E+02 -0.15197358799E+02  0.13642205148E+03  0.16230195486E+03  0.00000000000E+00 0.  1.
</event>
<event>
12    1  0.8053217E-002  0.2271079E+03  0.7818608E-02  0.1128706E+00
         21   -1    0    0  503  502  0.00000000000E+00  0.00000000000E+00  0.16888596567E+03  0.16888596567E+03  0.00000000000E+00 0. -1.
         21   -1    0    0  501  503 -0.00000000000E+00 -0.00000000000E+00 -0.35583850825E+03  0.35583850825E+03  0.00000000000E+00 0. -1.
          6    2    1    2  501    0  0.14006280501E+03  0.46689730450E+02 -0.19233854815E+03  0.29755270942E+03  0.17247022207E+03 0.  0.
         24    2    3    3    0    0  0.14220908356E+03 -0.15610641272E+02 -0.14464321734E+03  0.21892143441E+03  0.80856778027E+02 0.  0.
         -6    2    1    2    0  502 -0.14006280501E+03 -0.46689730450E+02  0.53860055654E+01  0.22717176450E+03  0.17257022122E+03 0.  0.
        -24    2    5    5    0    0 -0.34783983818E+02 -0.25375655200E+02 -0.52418793106E+02  0.10510045442E+03  0.80277806655E+02 0.  0.
          5    1    3    3  501    0 -0.21462785528E+01  0.62300371722E+02 -0.47695330804E+02  0.78631275004E+02  0.47000000000E+01 0. -1.
        -11    1    4    4    0    0  0.20991705705E+02  0.11966005061E+02  0.46926043787E+01  0.24614173181E+02  0.00000000000E+00 0.  1.
         12    1    4    4    0    0  0.12121737786E+03 -0.27576646333E+02 -0.14933582172E+03  0.19430726123E+03  0.00000000000E+00 0. -1.
         -5    1    5    5    0  502 -0.10527882119E+03 -0.21314075250E+02  0.57804798671E+02  0.12207131008E+03  0.47000000000E+01 0.  1.
         11    1    6    6    0    0 -0.39338774157E+02  0.43149560830E+01 -0.62015409023E+02  0.73566765285E+02  0.00000000000E+00 0. -1.
        -12    1    6    6    0    0  0.45547903388E+01 -0.29690611283E+02  0.95966159170E+01  0.31533689134E+02  0.00000000000E+00 0.  1.
</event>
<event>
12    1  0.8053217E-002  0.2497127E+03  0.7818608E-02  0.1113552E+00
         21   -1    0    0  503  502  0.00000000000E+00  0.00000000000E+00  0.14149694027E+03  0.14149694027E+03  0.00000000000E+00 0.  1.
         21   -1    0    0  501  503 -0.00000000000E+00 -0.00000000000E+00 -0.47429132473E+03  0.47429132473E+03  0.00000000000E+00 0. -1.
          6    2    1    2  501    0 -0.17873670939E+03  0.27047581326E+02 -0.24935320855E+03  0.35289298467E+03  0.17227319314E+03 0.  0.
         24    2    3    3    0    0 -0.55547290478E+02  0.36490512546E+02 -0.18399999388E+03  0.21304329911E+03  0.84346846789E+02 0.  0.
         -6    2    1    2    0  502  0.17873670939E+03 -0.27047581326E+02 -0.83441175912E+02  0.26289528034E+03  0.17167735915E+03 0.  0.
        -24    2    5    5    0    0  0.12234306631E+03 -0.67807988908E+02 -0.10379914903E+03  0.19024412153E+03  0.76503680968E+02 0.  0.
          5    1    3    3  501    0 -0.12318941892E+03 -0.94429312195E+01 -0.65353214668E+02  0.13984968556E+03  0.47000000000E+01 0. -1.
        -13    1    4    4    0    0 -0.16462332431E+02 -0.87223001037E+01  0.97226587934E+00  0.18655621381E+02  0.00000000000E+00 0.  1.
         14    1    4    4    0    0 -0.39084958047E+02  0.45212812650E+02 -0.18497225976E+03  0.19438767773E+03  0.00000000000E+00 0. -1.
         -5    1    5    5    0  502  0.56393643083E+02  0.40760407581E+02  0.20357973122E+02  0.72651158807E+02  0.47000000000E+01 0.  1.
         13    1    6    6    0    0  0.62973824211E+01 -0.34648304540E+02 -0.41483723946E+02  0.54415635485E+02  0.00000000000E+00 0. -1.
        -14    1    6    6    0    0  0.11604568389E+03 -0.33159684368E+02 -0.62315425089E+02  0.13582848604E+03  0.00000000000E+00 0.  1.
</event>
<event>
12    1  0.8053217E-002  0.2157308E+03  0.7818608E-02  0.1137207E+00
         21   -1    0    0  501  502  0.00000000000E+00  0.00000000000E+00  0.68957724007E+02  0.68957724007E+02  0.00000000000E+00 0. -1.
         21   -1    0    0  502  503 -0.00000000000E+00 -0.00000000000E+00 -0.72253872207E+03  0.72253872207E+03  0.00000000000E+00 0. -1.
         -6    2    1    2    0  503 -0.74086478440E+02  0.10615870959E+03 -0.22381066376E+03  0.31085525468E+03  0.17257258832E+03 0.  0.
        -24    2    3    3    0    0 -0.11577203479E+03  0.10259404787E+03 -0.18072434290E+03  0.25061479098E+03  0.78852917809E+02 0.  0.
          6    2    1    2  501    0  0.74086478440E+02 -0.10615870959E+03 -0.42977033430E+03  0.48064119139E+03  0.17191549293E+03 0.  0.
         24    2    5    5    0    0  0.10378885141E+03 -0.62024011673E+02 -0.21370186526E+03  0.25807035810E+03  0.79452619913E+02 0.  0.
          5    1    5    5  501    0 -0.29702372971E+02 -0.44134697921E+02 -0.21606846904E+03  0.22257083330E+03  0.47000000000E+01 0. -1.
        -13    1    6    6    0    0  0.17907714427E+01 -0.23269766031E+01  0.70700481709E+01  0.76555381006E+01  0.00000000000E+00 0.  1.
         14    1    6    6    0    0  0.10199807997E+03 -0.59697035070E+02 -0.22077191343E+03  0.25041482000E+03  0.00000000000E+00 0. -1.
         -5    1    3    3    0  503  0.41685556345E+02  0.35646617195E+01 -0.43086320860E+02  0.60240463695E+02  0.47000000000E+01 0.  1.
         11    1    4    4    0    0 -0.86790513678E+02  0.29847270107E+02 -0.72129163101E+02  0.11673075416E+03  0.00000000000E+00 0. -1.
        -12    1    4    4    0    0 -0.28981521107E+02  0.72746777767E+02 -0.10859517980E+03  0.13388403682E+03  0.00000000000E+00 0.  1.
</event>
<event>
12    1  0.8053217E-002  0.1811231E+03  0.7818608E-02  0.1167977E+00
         21   -1    0    0  501  502  0.00000000000E+00  0.00000000000E+00  0.59566366316E+03  0.59566366316E+03  0.00000000000E+00 0. -1.
         21   -1    0    0  502  503 -0.00000000000E+00 -0.00000000000E+00 -0.89795212990E+02  0.89795212990E+02  0.00000000000E+00 0.  1.
         -6    2    1    2    0  503 -0.54237894421E+02 -0.10498641032E+02  0.46858768687E+03  0.50053881382E+03  0.16707098252E+03 0.  0.
        -24    2    3    3    0    0 -0.45934308354E+02 -0.64728562079E+02  0.23312923124E+03  0.25872771357E+03  0.79316100989E+02 0.  0.
          6    2    1    2  501    0  0.54237894421E+02  0.10498641032E+02  0.37280763300E+02  0.18492006233E+03  0.17249232877E+03 0.  0.
         24    2    5    5    0    0  0.47262281000E+02 -0.60510881619E+02  0.12137347309E+02  0.10912235222E+03  0.76583826985E+02 0.  0.
          5    1    5    5  501    0  0.69756134210E+01  0.71009522650E+02  0.25143415991E+02  0.75797710106E+02  0.47000000000E+01 0. -1.
        -11    1    6    6    0    0  0.48001739140E+02 -0.18726141078E+00  0.78753384820E+01  0.48643838084E+02  0.00000000000E+00 0.  1.
         12    1    6    6    0    0 -0.73945814079E+00 -0.60323620208E+02  0.42620088272E+01  0.60478514140E+02  0.00000000000E+00 0. -1.
         -5    1    3    3    0  503 -0.83035860671E+01  0.54229921048E+02  0.23545845563E+03  0.24181110025E+03  0.47000000000E+01 0.  1.
         13    1    4    4    0    0 -0.63589099405E+00 -0.11502446960E+02  0.14859900217E+03  0.14904487273E+03  0.00000000000E+00 0. -1.
        -14    1    4    4    0    0 -0.45298417360E+02 -0.53226115120E+02  0.84530229079E+02  0.10968284084E+03  0.00000000000E+00 0.  1.
</event>
<event>
12    1  0.8053217E-002  0.3766044E+03  0.7818608E-02  0.1052554E+00
         21   -1    0    0  503  502  0.00000000000E+00  0.00000000000E+00  0.20351508756E+04  0.20351508756E+04  0.00000000000E+00 0. -1.
         21   -1    0    0  501  503 -0.00000000000E+00 -0.00000000000E+00 -0.69462301291E+02  0.69462301291E+02  0.00000000000E+00 0.  1.
          6    2    1    2  501    0 -0.18806315908E+03  0.27698175601E+03  0.89087103852E+03  0.96572616398E+03  0.16397918027E+03 0.  0.
         24    2    3    3    0    0 -0.54744884335E+02  0.12986980028E+03  0.52296114634E+03  0.54764068389E+03  0.80986361109E+02 0.  0.
         -6    2    1    2    0  502  0.18806315908E+03 -0.27698175601E+03  0.10748175358E+04  0.11388870129E+04  0.17246520797E+03 0.  0.
        -24    2    5    5    0    0  0.37661864714E+02 -0.68174804614E+02  0.44075158122E+03  0.45457522940E+03  0.79438421428E+02 0.  0.
          5    1    3    3  501    0 -0.13331827475E+03  0.14711195573E+03  0.36790989218E+03  0.41808548009E+03  0.47000000000E+01 0. -1.
        -13    1    4    4    0    0 -0.65722107456E+02  0.13456567495E+03  0.46717824727E+03  0.49059436503E+03  0.00000000000E+00 0.  1.
         14    1    4    4    0    0  0.10977223121E+02 -0.46958746656E+01  0.55782899073E+02  0.57046318858E+02  0.00000000000E+00 0. -1.
         -5    1    5    5    0  502  0.15040129437E+03 -0.20880695140E+03  0.63406595454E+03  0.68431178347E+03  0.47000000000E+01 0.  1.
         13    1    6    6    0    0  0.44406230043E+02 -0.72251782463E+02  0.43814103091E+03  0.44627323055E+03  0.00000000000E+00 0. -1.
        -14    1    6    6    0    0 -0.67443653290E+01  0.40769778489E+01  0.26105503117E+01  0.83019988558E+01  0.00000000000E+00 0.  1.
</event>
<event>
12    1  0.8053217E-002  0.2139132E+03  0.7818608E-02  0.1138589E+00
         21   -1    0    0  503  502  0.00000000000E+00  0.00000000000E+00  0.19857465677E+03  0.19857465677E+03  0.00000000000E+00 0.  1.
         21   -1    0    0  501  503 -0.00000000000E+00 -0.00000000000E+00 -0.44004622123E+03  0.44004622123E+03  0.00000000000E+00 0. -1.
          6    2    1    2  501    0  0.45152788127E+02  0.11872133255E+03 -0.34129719816E+03  0.40256157790E+03  0.17157656441E+03 0.  0.
         24    2    3    3    0    0  0.43801124987E+02 -0.23242689050E+01 -0.16960909600E+03  0.19243599867E+03  0.79626800531E+02 0.  0.
         -6    2    1    2    0  502 -0.45152788127E+02 -0.11872133255E+03  0.99825633695E+02  0.23605930010E+03  0.17212003644E+03 0.  0.
        -24    2    5    5    0    0 -0.15993265868E+01 -0.11961133303E+03  0.15681508107E+02  0.14119086497E+03  0.73345223572E+02 0.  0.
          5    1    3    3  501    0  0.13516631394E+01  0.12104560145E+03 -0.17168810216E+03  0.21012557923E+03  0.47000000000E+01 0. -1.
        -11    1    4    4    0    0  0.50989448157E+02 -0.12887201798E+02 -0.17162375537E+03  0.17950130139E+03  0.00000000000E+00 0.  1.
         12    1    4    4    0    0 -0.71883231699E+01  0.10562932893E+02  0.20146593731E+01  0.12934697278E+02  0.00000000000E+00 0. -1.
         -5    1    5    5    0  502 -0.43553461540E+02  0.89000047679E+00  0.84144125588E+02  0.94868435129E+02  0.47000000000E+01 0.  1.
         11    1    6    6    0    0  0.76312721731E+01 -0.67605703579E+02  0.44232395518E+02  0.81149690602E+02  0.00000000000E+00 0. -1.
        -12    1    6    6    0    0 -0.92305987600E+01 -0.52005629446E+02 -0.28550887412E+02  0.60041174369E+02  0.00000000000E+00 0.  1.
</event>
<event>
12    1  0.8053217E-002  0.2700838E+03  0.7818608E-02  0.1101284E+00
         21   -1    0    0  501  502  0.00000000000E+00  0.00000000000E+00  0.36988062979E+03  0.36988062979E+03  0.00000000000E+00 0. -1.
         21   -1    0    0  502  503 -0.00000000000E+00 -0.00000000000E+00 -0.19695362184E+03  0.19695362184E+03  0.00000000000E+00 0.  1.
         -6    2    1    2    0  503  0.11139133299E+03 -0.17555915058E+03  0.88418656905E+02  0.28418847982E+03  0.17238384135E+03 0.  0.
        -24    2    3    3    0    0 -0.10603486675E+02 -0.61368582454E+02  0.53464915780E+02  0.11340769668E+03  0.78257725527E+02 0.  0.
          6    2    1    2  501    0 -0.11139133299E+03  0.17555915058E+03  0.84508351043E+02  0.28264577181E+03  0.17180781853E+03 0.  0.
         24    2    5    5    0    0  0.69731906511E+01  0.51404436232E+02  0.97051030945E+01  0.95450233791E+02  0.79533116702E+02 0.  0.
          5    1    5    5  501    0 -0.11836452364E+03  0.12415471435E+03  0.74803247948E+02  0.18719553802E+03  0.47000000000E+01 0. -1.
        -13    1    6    6    0    0  0.21428762925E+02  0.27698027065E+02 -0.30601094245E+02  0.46505908794E+02  0.00000000000E+00 0.  1.
         14    1    6    6    0    0 -0.14455572273E+02  0.23706409167E+02  0.40306197340E+02  0.48944324996E+02  0.00000000000E+00 0. -1.
         -5    1    3    3    0  503  0.12199481966E+03 -0.11419056812E+03  0.34953741125E+02  0.17078078314E+03  0.47000000000E+01 0.  1.
         11    1    4    4    0    0  0.30917036114E+02 -0.33536379909E+02  0.42261127114E+02  0.62181627226E+02  0.00000000000E+00 0. -1.
        -12    1    4    4    0    0 -0.41520522789E+02 -0.27832202545E+02  0.11203788666E+02  0.51226069453E+02  0.00000000000E+00 0.  1.
</event>
<event>
12    1  0.8053217E-002  0.1900875E+03  0.7818608E-02  0.1158491E+00
         21   -1    0    0  501  502  0.00000000000E+00  0.00000000000E+00  0.20174728081E+03  0.20174728081E+03  0.00000000000E+00 0.  1.
         21   -1    0    0  502  503 -0.00000000000E+00 -0.00000000000E+00 -0.43125890112E+03  0.43125890112E+03  0.00000000000E+00 0.  1.
         -6    2    1    2    0  503 -0.74936924215E+02  0.26168556353E+02 -0.35692887405E+03  0.40416471830E+03  0.17219338674E+03 0.  0.
        -24    2    3    3    0    0 -0.45596662641E+02 -0.16101763313E+02 -0.69304058604E+02  0.11193577495E+03  0.73404650728E+02 0.  0.
          6    2    1    2  501    0  0.74936924215E+02 -0.26168556353E+02  0.12741725374E+03  0.22884146363E+03  0.17272209753E+03 0.  0.
         24    2    5    5    0    0  0.78491684725E+02 -0.47563041538E+02  0.15239570008E+03  0.19542929369E+03  0.80901000841E+02 0.  0.
          5    1    5    5  501    0 -0.35547605103E+01  0.21394485185E+02 -0.24978446345E+02  0.33412169945E+02  0.47000000000E+01 0. -1.
        -11    1    6    6    0    0  0.13646781280E+02  0.16698427002E+02  0.51387011399E+01  0.22169311064E+02  0.00000000000E+00 0.  1.
         12    1    6    6    0    0  0.64844903445E+02 -0.64261468541E+02  0.14725699894E+03  0.17325998262E+03  0.00000000000E+00 0. -1.
         -5    1    3    3    0  503 -0.29340261574E+02  0.42270319666E+02 -0.28762481545E+03  0.29222894335E+03  0.47000000000E+01 0.  1.
         13    1    4    4    0    0 -0.37656268673E+02  0.17445107146E+02 -0.89881048274E+01  0.42463070568E+02  0.00000000000E+00 0. -1.
        -14    1    4    4    0    0 -0.79403939679E+01 -0.33546870459E+02 -0.60315953776E+02  0.69472704380E+02  0.00000000000E+00 0.  1.
</event>
<event>
12    1  0.8053217E-002  0.2027183E+03  0.7818608E-02  0.1147647E+00
         21   -1    0    0  501  502  0.00000000000E+00  0.00000000000E+00  0.88652098807E+03  0.88652098807E+03  0.00000000000E+00 0.  1.
         21   -1    0    0  502  503 -0.00000000000E+00 -0.00000000000E+00 -0.80488624400E+02  0.80488624400E+02  0.00000000000E+00 0.  1.
         -6    2    1    2    0  503  0.94496180603E+02 -0.48486808130E+02  0.87732196895E+02  0.22088832834E+03  0.17266793714E+03 0.  0.
        -24    2    3    3    0    0  0.55944590971E+02 -0.21988439545E+02 -0.21763212819E+02  0.10172573627E+03  0.79127740111E+02 0.  0.
          6    2    1    2  501    0 -0.94496180603E+02  0.48486808130E+02  0.71830016677E+03  0.74612128413E+03  0.17164306665E+03 0.  0.
         24    2    5    5    0    0  0.49904213550E+01  0.32434880920E+01  0.43557415321E+03  0.44297011603E+03  0.80388159722E+02 0.  0.
          5    1    5    5  501    0 -0.99486601958E+02  0.45243320038E+02  0.28272601356E+03  0.30315116810E+03  0.47000000000E+01 0. -1.
        -11    1    6    6    0    0  0.64774189934E+01 -0.29959674145E+02  0.34723796685E+03  0.34858821646E+03  0.00000000000E+00 0.  1.
         12    1    6    6    0    0 -0.14869976385E+01  0.33203162237E+02  0.88336186359E+02  0.94381899562E+02  0.00000000000E+00 0. -1.
         -5    1    3    3    0  503  0.38551589633E+02 -0.26498368585E+02  0.10949540971E+03  0.11916259207E+03  0.47000000000E+01 0.  1.
         13    1    4    4    0    0  0.72432076430E+01 -0.39519406567E+02  0.94608506118E+01  0.41276570190E+02  0.00000000000E+00 0. -1.
        -14    1    4    4    0    0  0.48701383328E+02  0.17530967022E+02 -0.31224063431E+02  0.60449166081E+02  0.00000000000E+00 0.  1.
</event>
<event>
12    1  0.8053217E-002  0.2046189E+03  0.7818608E-02  0.1146689E+00
         21   -1    0    0  503  502  0.00000000000E+00  0.00000000000E+00  0.29707111291E+04  0.29707111291E+04  0.00000000000E+00 0.  1.
         21   -1    0    0  501  503 -0.00000000000E+00 -0.00000000000E+00 -0.15508911373E+02  0.15508911373E+02  0.00000000000E+00 0.  1.
          6    2    1    2  501    0  0.40859334449E+02 -0.10255141594E+03  0.97424116818E+03  0.99471920112E+03  0.16773239756E+03 0.  0.
         24    2    3    3    0    0  0.87268731986E+02 -0.99072822776E+02  0.74675255273E+03  0.76247128844E+03  0.79321087262E+02 0.  0.
         -6    2    1    2    0  502 -0.40859334449E+02  0.10255141594E+03  0.19809610496E+04  0.19915008394E+04  0.17228649155E+03 0.  0.
        -24    2    5    5    0    0  0.70885548551E+01 -0.67975727355E+01  0.55632674447E+03  0.56186410415E+03  0.78072852623E+02 0.  0.
          5    1    3    3  501    0 -0.46409397538E+02 -0.34785931657E+01  0.22748861545E+03  0.23224791269E+03  0.47000000000E+01 0. -1.
        -11    1    4    4    0    0  0.60443205461E+02 -0.49365931916E+02  0.23518629812E+03  0.24779622908E+03  0.00000000000E+00 0.  1.
         12    1    4    4    0    0  0.26825526525E+02 -0.49706890860E+02  0.51156625461E+03  0.51467505936E+03  0.00000000000E+00 0. -1.
         -5    1    5    5    0  502 -0.47947889304E+02  0.10934898868E+03  0.14246343051E+04  0.14296367352E+04  0.47000000000E+01 0.  1.
         13    1    6    6    0    0  0.18044506497E+02  0.32660502591E+02  0.29445452071E+03  0.29680932837E+03  0.00000000000E+00 0. -1.
        -14    1    6    6    0    0 -0.10955951642E+02 -0.39458075326E+02  0.26187222376E+03  0.26505477578E+03  0.00000000000E+00 0.  1.
</event>
<event>
12    1  0.8053217E-002  0.2583598E+03  0.7818608E-02  0.1108207E+00
         21   -1    0    0  503  502  0.00000000000E+00  0.00000000000E+00  0.19052749463E+03  0.19052749463E+03  0.00000000000E+00 0.  1.
         21   -1    0    0  501  503 -0.00000000000E+00 -0.00000000000E+00 -0.99483791582E+03  0.99483791582E+03  0.00000000000E+00 0. -1.
          6    2    1    2  501    0  0.17621094106E+03  0.77367937696E+02 -0.87930802245E+03  0.91634045575E+03  0.17164247423E+03 0.  0.
         24    2    3    3    0    0  0.10274413780E+02  0.21971807406E+01 -0.24791382821E+03  0.25917510950E+03  0.74833682159E+02 0.  0.
         -6    2    1    2    0  502 -0.17621094106E+03 -0.77367937696E+02  0.74997601258E+02  0.26902495471E+03  0.17237660087E+03 0.  0.
        -24    2    5    5    0    0 -0.78368589973E+02 -0.70176660194E+02  0.10208410945E+03  0.16713968068E+03  0.80300111611E+02 0.  0.
          5    1    3    3  501    0  0.16593652728E+03  0.75170756955E+02 -0.63139419424E+03  0.65716534624E+03  0.47000000000E+01 0. -1.
        -11    1    4    4    0    0 -0.37013832058E+01  0.37403226972E+02 -0.13024542910E+03  0.13556022067E+03  0.00000000000E+00 0.  1.
         12    1    4    4    0    0  0.13975796986E+02 -0.35206046231E+02 -0.11766839911E+03  0.12361488883E+03  0.00000000000E+00 0. -1.
         -5    1    5    5    0  502 -0.97842351084E+02 -0.71912775017E+01 -0.27086508192E+02  0.10188527403E+03  0.47000000000E+01 0.  1.
         11    1    6    6    0    0  0.74615077146E+01 -0.41020565518E+02  0.31767778572E+02  0.52417102631E+02  0.00000000000E+00 0. -1.
        -12    1    6    6    0    0 -0.85830097687E+02 -0.29156094676E+02  0.70316330878E+02  0.11472257805E+03  0.00000000000E+00 0.  1.
</event>
<event>
12    1  0.8053217E-002  0.2151131E+03  0.7818608E-02  0.1137735E+00
         21   -1    0    0  501  502  0.00000000000E+00  0.00000000000E+00  0.15686662157E+03  0.15686662157E+03  0.00000000000E+00 0. -1.
         21   -1    0    0  502  503 -0.00000000000E+00 -0.00000000000E+00 -0.70378351422E+03  0.70378351422E+03  0.00000000000E+00 0. -1.
         -6    2    1    2    0  503 -0.60770591811E+02  0.11458312659E+03 -0.60208366462E+03  0.63935777710E+03  0.17161372383E+03 0.  0.
        -24    2    3    3    0    0 -0.44495874053E+02  0.14209652135E+03 -0.39979306753E+03  0.43450312375E+03  0.82384243103E+02 0.  0.
          6    2    1    2  501    0  0.60770591811E+02 -0.11458312659E+03  0.55166771975E+02  0.22129235868E+03  0.17060063761E+03 0.  0.
         24    2    5    5    0    0  0.97851250347E+02 -0.10335482167E+03  0.71892427688E+02  0.17883193443E+03  0.80964518495E+02 0.  0.
          5    1    5    5  501    0 -0.37080658536E+02 -0.11228304918E+02 -0.16725655713E+02  0.42460424254E+02  0.47000000000E+01 0. -1.
        -11    1    6    6    0    0  0.64289469168E+02 -0.10604906035E+03  0.34943679163E+02  0.12884331477E+03  0.00000000000E+00 0.  1.
         12    1    6    6    0    0  0.33561781179E+02  0.26942386781E+01  0.36948748525E+02  0.49988619660E+02  0.00000000000E+00 0. -1.
         -5    1    3    3    0  503 -0.16274717758E+02 -0.27513394766E+02 -0.20229059709E+03  0.20485465335E+03  0.47000000000E+01 0.  1.
         11    1    4    4    0    0 -0.13712288078E+01  0.37946256288E+02 -0.21279645183E+03  0.21615764744E+03  0.00000000000E+00 0. -1.
        -12    1    4    4    0    0 -0.43124645245E+02  0.10415026507E+03 -0.18699661570E+03  0.21834547631E+03  0.00000000000E+00 0.  1.
</event>
<event>
12    1  0.8053217E-002  0.1782287E+03  0.7818608E-02  0.1171127E+00
         21   -1    0    0  503  502  0.00000000000E+00  0.00000000000E+00  0.45128836225E+03  0.45128836225E+03  0.00000000000E+00 0. -1.
         21   -1    0    0  501  503 -0.00000000000E+00 -0.00000000000E+00 -0.72217227915E+02  0.72217227915E+02  0.00000000000E+00 0. -1.
          6    2    1    2  501    0  0.31896486826E+02  0.39294989111E+02  0.12869164642E+03  0.21983402762E+03  0.17089171367E+03 0.  0.
         24    2    3    3    0    0  0.64944296743E+02  0.44316285615E+00  0.13227898829E+03  0.16848637757E+03  0.81682131535E+02 0.  0.
         -6    2    1    2    0  502 -0.31896486826E+02 -0.39294989111E+02  0.25037948792E+03  0.30367156254E+03  0.16421037691E+03 0.  0.
        -24    2    5    5    0    0 -0.55943806774E+02 -0.10166004411E+02  0.45916216587E+02  0.95695384413E+02  0.61775808292E+02 0.  0.
          5    1    3    3  501    0 -0.33047809918E+02  0.38851826254E+02 -0.35873418755E+01  0.51347650047E+02  0.47000000000E+01 0. -1.
        -11    1    4    4    0    0  0.11495045000E+02 -0.29329609392E+02  0.86545951771E+02  0.92100835037E+02  0.00000000000E+00 0.  1.
         12    1    4    4    0    0  0.53449251744E+02  0.29772772249E+02  0.45733036520E+02  0.76385542537E+02  0.00000000000E+00 0. -1.
         -5    1    5    5    0  502  0.24047319948E+02 -0.29128984700E+02  0.20446327133E+03  0.20797617813E+03  0.47000000000E+01 0.  1.
         13    1    6    6    0    0 -0.41175806175E+02  0.10218922372E+02  0.54530390942E+02  0.69090063866E+02  0.00000000000E+00 0. -1.
        -14    1    6    6    0    0 -0.14768000598E+02 -0.20384926782E+02 -0.86141743549E+01  0.26605320547E+02  0.00000000000E+00 0.  1.
</event>
<event>
12    1  0.8053217E-002  0.1810956E+03  0.7818608E-02  0.1167420E+00
         21   -1    0    0  503  502  0.00000000000E+00  0.00000000000E+00  0.35952319233E+03  0.35952319233E+03  0.00000000000E+00 0.  1.
         21   -1    0    0  501  503 -0.00000000000E+00 -0.00000000000E+00 -0.11608765823E+03  0.11608765823E+03  0.00000000000E+00 0.  1.
          6    2    1    2  501    0 -0.39285761684E+02 -0.36508525400E+02  0.78817153788E+01  0.17848927350E+03  0.17005897748E+03 0.  0.
         24    2    3    3    0    0 -0.40773532769E+02 -0.20269707786E+01  0.69730485826E+02  0.10750651871E+03  0.70913477753E+02 0.  0.
         -6    2    1    2    0  502  0.39285761684E+02  0.36508525400E+02  0.23555381872E+03  0.29712157706E+03  0.17297221322E+03 0.  0.
        -24    2    5    5    0    0 -0.21135429281E+02 -0.33917971395E+02  0.11713514766E+03  0.14660352691E+03  0.78579998275E+02 0.  0.
          5    1    3    3  501    0  0.14877710849E+01 -0.34481554621E+02 -0.61848770447E+02  0.70982754791E+02  0.47000000000E+01 0. -1.
        -11    1    4    4    0    0  0.11510875301E+02 -0.22142822399E+02  0.28907803778E+02  0.38189867154E+02  0.00000000000E+00 0.  1.
         12    1    4    4    0    0 -0.52284408070E+02  0.20115851620E+02  0.40822682048E+02  0.69316651558E+02  0.00000000000E+00 0. -1.
         -5    1    5    5    0  502  0.60421190965E+02  0.70426496794E+02  0.11841867105E+03  0.15051805015E+03  0.47000000000E+01 0.  1.
         13    1    6    6    0    0 -0.53029819331E+01 -0.14469986720E+02  0.12033919424E+03  0.12132198401E+03  0.00000000000E+00 0. -1.
        -14    1    6    6    0    0 -0.15832447348E+02 -0.19447984675E+02 -0.32040465760E+01  0.25281542900E+02  0.00000000000E+00 0.  1.
</event>
<event>
12    1  0.8053217E-002  0.1748048E+03  0.7818608E-02  0.1173683E+00
         21   -1    0    0  501  502  0.00000000000E+00  0.00000000000E+00  0.44088641511E+02  0.44088641511E+02  0.00000000000E+00 0.  1.
         21   -1    0    0  502  503 -0.00000000000E+00 -0.00000000000E+00 -0.13147215147E+04  0.13147215147E+04  0.00000000000E+00 0.  1.
         -6    2    1    2    0  503  0.32143725910E+00 -0.37783508234E+01 -0.11097047198E+04  0.11233883001E+04  0.17476363609E+03 0.  0.
        -24    2    3    3    0    0 -0.36765659865E+02  0.42430107368E+01 -0.10414664815E+04  0.10451684677E+04  0.79718109623E+02 0.  0.
          6    2    1    2  501    0 -0.32143725910E+00  0.37783508234E+01 -0.16092815338E+03  0.23542185606E+03  0.17178824320E+03 0.  0.
         24    2    5    5    0    0 -0.33671369470E+02  0.55903173293E+02 -0.73307362523E+02  0.12805003440E+03  0.82243030121E+02 0.  0.
          5    1    5    5  501    0  0.33349932211E+02 -0.52124822470E+02 -0.87620790861E+02  0.10737182166E+03  0.47000000000E+01 0. -1.
        -13    1    6    6    0    0 -0.22292435990E+02  0.75288227781E+02 -0.40686179270E+02  0.88434354910E+02  0.00000000000E+00 0.  1.
         14    1    6    6    0    0 -0.11378933480E+02 -0.19385054487E+02 -0.32621183253E+02  0.39615679490E+02  0.00000000000E+00 0. -1.
         -5    1    3    3    0  503  0.37087097124E+02 -0.80213615602E+01 -0.68238238327E+02  0.78219832424E+02  0.47000000000E+01 0.  1.
         11    1    4    4    0    0  0.19725139487E+02  0.82829188073E+01 -0.11503185759E+03  0.11700434237E+03  0.00000000000E+00 0. -1.
        -12    1    4    4    0    0 -0.56490799352E+02 -0.40399080705E+01 -0.92643462386E+03  0.92816412534E+03  0.00000000000E+00 0.  1.
</event>
<event>
12    1  0.8053217E-002  0.2035138E+03  0.7818608E-02  0.1149973E+00
         21   -1    0    0  501  502  0.00000000000E+00  0.00000000000E+00  0.15307152391E+04  0.15307152391E+04  0.00000000000E+00 0. -1.
         21   -1    0    0  502  503 -0.00000000000E+00 -0.00000000000E+00 -0.51619924011E+02  0.51619924011E+02  0.00000000000E+00 0. -1.
         -6    2    1    2    0  503  0.10877645790E+03 -0.15688798776E+02  0.15947553982E+03  0.24711450061E+03  0.15347531531E+03 0.  0.
        -24    2    3    3    0    0  0.93299667574E+02 -0.14566951601E+02  0.18162167099E+03  0.21966763001E+03  0.79689473915E+02 0.  0.
          6    2    1    2  501    0 -0.10877645790E+03  0.15688798776E+02  0.13196197752E+04  0.13352206625E+04  0.17128750711E+03 0.  0.
         24    2    5    5    0    0 -0.13236561276E+03  0.50192869475E+02  0.10099010168E+04  0.10226590230E+04  0.76755677732E+02 0.  0.
          5    1    5    5  501    0  0.23589154863E+02 -0.34504070698E+02  0.30971875845E+03  0.31256163945E+03  0.47000000000E+01 0. -1.
        -13    1    6    6    0    0 -0.40027799445E+02  0.65739979281E+00  0.11761843491E+03  0.12424473080E+03  0.00000000000E+00 0.  1.
         14    1    6    6    0    0 -0.92337813316E+02  0.49535469682E+02  0.89228258189E+03  0.89841429222E+03  0.00000000000E+00 0. -1.
         -5    1    3    3    0  503  0.15476790324E+02 -0.11218471753E+01 -0.22146131170E+02  0.27446870598E+02  0.47000000000E+01 0.  1.
         13    1    4    4    0    0  0.73802545154E+02  0.86133347357E+01  0.63551830291E+02  0.97774436024E+02  0.00000000000E+00 0. -1.
        -14    1    4    4    0    0  0.19497122420E+02 -0.23180286337E+02  0.11806984070E+03  0.12189319399E+03  0.00000000000E+00 0.  1.
</event>
<event>
12    1  0.8053217E-002  0.2730483E+03  0.7818608E-02  0.1099633E+00
         21   -1    0    0  501  502  0.00000000000E+00  0.00000000000E+00  0.51394765226E+03  0.51394765226E+03  0.00000000000E+00 0. -1.
         21   -1    0    0  502  503 -0.00000000000E+00 -0.00000000000E+00 -0.15547280177E+03  0.15547280177E+03  0.00000000000E+00 0.  1.
         -6    2    1    2    0  503 -0.46869315334E+02 -0.20633365722E+03  0.26698734881E+03  0.38145283985E+03  0.17162084308E+03 0.  0.
        -24    2    3    3    0    0 -0.82205919592E+01 -0.21385998711E+03  0.19379302320E+03  0.29820700654E+03  0.74619104073E+02 0.  0.
          6    2    1    2  501    0  0.46869315334E+02  0.20633365722E+03  0.91487501671E+02  0.28796761418E+03  0.17258352481E+03 0.  0.
         24    2    5    5    0    0  0.15441882640E+02  0.20563369379E+03  0.11402654927E+03  0.24900260243E+03  0.80477166421E+02 0.  0.
          5    1    5    5  501    0  0.31427432694E+02  0.69996343271E+00 -0.22539047603E+02  0.38965011760E+02  0.47000000000E+01 0. -1.
        -11    1    6    6    0    0 -0.11067247988E+02  0.10267908965E+03  0.16213379403E+02  0.10453876363E+03  0.00000000000E+00 0.  1.
         12    1    6    6    0    0  0.26509130628E+02  0.10295460414E+03  0.97813169871E+02  0.14446383880E+03  0.00000000000E+00 0. -1.
         -5    1    3    3    0  503 -0.38648723375E+02  0.75263298909E+01  0.73194325615E+02  0.83245833303E+02  0.47000000000E+01 0.  1.
         11    1    4    4    0    0 -0.26157386759E+02 -0.14526135810E+03  0.16579286895E+03  0.22197375168E+03  0.00000000000E+00 0. -1.
        -12    1    4    4    0    0  0.17936794800E+02 -0.68598629010E+02  0.28000154251E+02  0.76233254868E+02  0.00000000000E+00 0.  1.
</event>
<event>
12    1  0.8053217E-002  0.2447984E+03  0.7818608E-02  0.1116803E+00
         21   -1    0    0  503  502  0.00000000000E+00  0.00000000000E+00  0.11496391785E+03  0.11496391785E+03  0.00000000000E+00 0.  1.
         21   -1    0    0  501  503 -0.00000000000E+00 -0.00000000000E+00 -0.54230857043E+03  0.54230857043E+03  0.00000000000E+00 0. -1.
          6    2    1    2  501    0 -0.13675034931E+03  0.10793024030E+03 -0.28209402990E+03  0.37350142539E+03  0.17197871453E+03 0.  0.
         24    2    3    3    0    0 -0.16459062292E+03  0.95157187444E+02 -0.21040979804E+03  0.29540564566E+03  0.82748105123E+02 0.  0.
         -6    2    1    2    0  502  0.13675034931E+03 -0.10793024030E+03 -0.14525062268E+03  0.28377106290E+03  0.17052471358E+03 0.  0.
        -24    2    5    5    0    0  0.12532464833E+03 -0.14363583242E+02 -0.87691330708E+02  0.17322501797E+03  0.80028478475E+02 0.  0.
          5    1    3    3  501    0  0.27840273607E+02  0.12773052856E+02 -0.71684231857E+02  0.78095779724E+02  0.47000000000E+01 0. -1.
        -11    1    4    4    0    0 -0.28016205817E+02  0.26828220122E+02 -0.45059656956E+01  0.39050799097E+02  0.00000000000E+00 0.  1.
         12    1    4    4    0    0 -0.13657441710E+03  0.68328967323E+02 -0.20590383235E+03  0.25635484656E+03  0.00000000000E+00 0. -1.
         -5    1    5    5    0  502  0.11425700979E+02 -0.93566657059E+02 -0.57559291975E+02  0.11054604493E+03  0.47000000000E+01 0.  1.
         13    1    6    6    0    0  0.54007081338E+02 -0.20743163017E+02 -0.83390102007E+02  0.10149360945E+03  0.00000000000E+00 0. -1.
        -14    1    6    6    0    0  0.71317566996E+02  0.63795797756E+01 -0.43012287012E+01  0.71731408523E+02  0.00000000000E+00 0.  1.
</event>
<event>
12    1  0.8053217E-002  0.1796820E+03  0.7818608E-02  0.1168468E+00
         21   -1    0    0  501  502  0.00000000000E+00  0.00000000000E+00  0.47299358552E+03  0.47299358552E+03  0.00000000000E+00 0. -1.
         21   -1    0    0  502  503 -0.00000000000E+00 -0.00000000000E+00 -0.74003564861E+02  0.74003564861E+02  0.00000000000E+00 0.  1.
         -6    2    1    2    0  503 -0.30703381722E+02  0.43203873491E+02  0.12043922901E+03  0.21631278187E+03  0.17168674783E+03 0.  0.
        -24    2    3    3    0    0 -0.64595702935E+02  0.68740411347E+02  0.12582237675E+03  0.17327939387E+03  0.72777942131E+02 0.  0.
          6    2    1    2  501    0  0.30703381722E+02 -0.43203873491E+02  0.27855079165E+03  0.33068436851E+03  0.17015385895E+03 0.  0.
         24    2    5    5    0    0  0.55695150647E+02 -0.83497534900E+02  0.22083615975E+03  0.25584296019E+03  0.81321723343E+02 0.  0.
          5    1    5    5  501    0 -0.24991768925E+02  0.40293661409E+02  0.57714631904E+02  0.74841408321E+02  0.47000000000E+01 0. -1.
        -13    1    6    6    0    0  0.31445804645E+02 -0.32539370746E+02  0.24295489330E+02  0.51360686134E+02  0.00000000000E+00 0.  1.
         14    1    6    6    0    0  0.24249346002E+02 -0.50958164154E+02  0.19654067042E+03  0.20448227406E+03  0.00000000000E+00 0. -1.
         -5    1    3    3    0  503  0.33892321213E+02 -0.25536537856E+02 -0.53831477388E+01  0.43033387996E+02  0.47000000000E+01 0.  1.
         11    1    4    4    0    0  0.31228929780E+01 -0.83626801790E+01  0.35393660541E+02  0.36502028530E+02  0.00000000000E+00 0. -1.
        -12    1    4    4    0    0 -0.67718595913E+02  0.77103091526E+02  0.90428716205E+02  0.13677736534E+03  0.00000000000E+00 0.  1.
</event>
<event>
12    1  0.8053217E-002  0.1798934E+03  0.7818608E-02  0.1168009E+00
         21   -1    0    0  501  502  0.00000000000E+00  0.00000000000E+00  0.96269633602E+02  0.96269633602E+02  0.00000000000E+00 0.  1.
         21   -1    0    0  502  503 -0.00000000000E+00 -0.00000000000E+00 -0.98415701458E+03  0.98415701458E+03  0.00000000000E+00 0. -1.
         -6    2    1    2    0  503  0.46208362191E+02 -0.19105253509E+02 -0.88238259464E+03  0.90044904893E+03  0.17236363576E+03 0.  0.
        -24    2    3    3    0    0  0.14383893022E+02  0.35886843904E+02 -0.73705221237E+03  0.74176717337E+03  0.74012254376E+02 0.  0.
          6    2    1    2  501    0 -0.46208362191E+02  0.19105253509E+02 -0.55047863368E+01  0.17997759926E+03  0.17280454309E+03 0.  0.
         24    2    5    5    0    0 -0.74642111029E+02 -0.26750745457E+02  0.14398363288E+01  0.12537385856E+03  0.97105531049E+02 0.  0.
          5    1    5    5  501    0  0.28433748838E+02  0.45855998966E+02 -0.69446226657E+01  0.54603740697E+02  0.47000000000E+01 0. -1.
        -11    1    6    6    0    0 -0.44654717157E+02 -0.26390521315E+02  0.47551444671E+02  0.70367913640E+02  0.00000000000E+00 0.  1.
         12    1    6    6    0    0 -0.29987393873E+02 -0.36022414226E+00 -0.46111608343E+02  0.55005944921E+02  0.00000000000E+00 0. -1.
         -5    1    3    3    0  503  0.31824469169E+02 -0.54992097413E+02 -0.14533038228E+03  0.15868187555E+03  0.47000000000E+01 0.  1.
         11    1    4    4    0    0  0.54540825995E+01  0.26864933756E+01 -0.61324207782E+03  0.61327221547E+03  0.00000000000E+00 0. -1.
        -12    1    4    4    0    0  0.89298104228E+01  0.33200350528E+02 -0.12381013455E+03  0.12849495790E+03  0.00000000000E+00 0.  1.
</event>
<event>
12    1  0.8053217E-002  0.1932577E+03  0.7818608E-02  0.1156569E+00
         21   -1    0    0  501  502  0.00000000000E+00  0.00000000000E+00  0.12257476123E+03  0.12257476123E+03  0.00000000000E+00 0. -1.
         21   -1    0    0  502  503 -0.00000000000E+00 -0.00000000000E+00 -0.36198478389E+03  0.36198478389E+03  0.00000000000E+00 0.  1.
         -6    2    1    2    0  503 -0.77061786446E+02  0.35448101433E+02 -0.22071874710E+03  0.29040006252E+03  0.16858334487E+03 0.  0.
        -24    2    3    3    0    0 -0.60226524173E+02  0.88662996321E+02 -0.16085242774E+03  0.20841642216E+03  0.77945752837E+02 0.  0.
          6    2    1    2  501    0  0.77061786446E+02 -0.35448101433E+02 -0.18691275558E+02  0.19415948260E+03  0.17364749949E+03 0.  0.
         24    2    5    5    0    0 -0.64358019597E+01 -0.44142416475E+02  0.30114431801E+02  0.96940526354E+02  0.80626386301E+02 0.  0.
          5    1    5    5  501    0  0.83497588405E+02  0.86943150423E+01 -0.48805707358E+02  0.97218956250E+02  0.47000000000E+01 0. -1.
        -13    1    6    6    0    0 -0.21973495773E+02  0.17170006057E+02  0.27407140445E+01  0.28020619871E+02  0.00000000000E+00 0.  1.
         14    1    6    6    0    0  0.15537693813E+02 -0.61312422532E+02  0.27373717756E+02  0.68919906483E+02  0.00000000000E+00 0. -1.
         -5    1    3    3    0  503 -0.16835262273E+02 -0.53214894888E+02 -0.59866319360E+02  0.81983640365E+02  0.47000000000E+01 0.  1.
         13    1    4    4    0    0 -0.78130472722E+02  0.65750566454E+02 -0.11198836286E+03  0.15155494440E+03  0.00000000000E+00 0. -1.
        -14    1    4    4    0    0  0.17903948549E+02  0.22912429866E+02 -0.48864064882E+02  0.56861477758E+02  0.00000000000E+00 0.  1.
</event>
<event>
12    1  0.8053217E-002  0.2611874E+03  0.7818608E-02  0.1106685E+00
         21   -1    0    0  503  502  0.00000000000E+00  0.00000000000E+00  0.30510776406E+03  0.30510776406E+03  0.00000000000E+00 0.  1.
         21   -1    0    0  501  503 -0.00000000000E+00 -0.00000000000E+00 -0.24759306114E+03  0.24759306114E+03  0.00000000000E+00 0.  1.
          6    2    1    2  501    0 -0.17771665535E+03  0.81824627136E+02  0.11743174026E+03  0.28637225381E+03  0.17303287241E+03 0.  0.
         24    2    3    3    0    0 -0.71758721874E+02  0.53220885497E+02  0.12883892198E+03  0.17593009022E+03  0.79813232051E+02 0.  0.
         -6    2    1    2    0  502  0.17771665535E+03 -0.81824627136E+02 -0.59917037338E+02  0.26632857139E+03  0.17047691158E+03 0.  0.
        -24    2    5    5    0    0  0.18787042052E+03 -0.57898214906E+02 -0.86284168464E+02  0.22900715993E+03  0.79698327328E+02 0.  0.
          5    1    3    3  501    0 -0.10595793348E+03  0.28603741639E+02 -0.11407181722E+02  0.11044216358E+03  0.47000000000E+01 0. -1.
        -13    1    4    4    0    0 -0.19553523098E+01 -0.45636223904E+01  0.64748230348E+02  0.64938304453E+02  0.00000000000E+00 0.  1.
         14    1    4    4    0    0 -0.69803369564E+02  0.57784507887E+02  0.64090691631E+02  0.11099178577E+03  0.00000000000E+00 0. -1.
         -5    1    5    5    0  502 -0.10153765166E+02 -0.23926412230E+02  0.26367131126E+02  0.37321411456E+02  0.47000000000E+01 0.  1.
         13    1    6    6    0    0  0.90883553300E+02 -0.32481587946E+02  0.32956363691E+00  0.96514156621E+02  0.00000000000E+00 0. -1.
        -14    1    6    6    0    0  0.96986867216E+02 -0.25416626961E+02 -0.86613732101E+02  0.13249300331E+03  0.00000000000E+00 0.  1.
</event>
<event>
12    1  0.8053217E-002  0.1891661E+03  0.7818608E-02  0.1159490E+00
         21   -1    0    0  503  502  0.00000000000E+00  0.00000000000E+00  0.87075749608E+02  0.87075749608E+02  0.00000000000E+00 0.  1.
         21   -1    0    0  501  503 -0.00000000000E+00 -0.00000000000E+00 -0.14214089600E+04  0.14214089600E+04  0.00000000000E+00 0.  1.
          6    2    1    2  501    0  0.36382890136E+02  0.68458403223E+02 -0.13045317298E+04  0.13181755688E+04  0.17255007551E+03 0.  0.
         24    2    3    3    0    0 -0.20759219157E+02  0.48128764415E+01 -0.91188575364E+03  0.91629383707E+03  0.87204697132E+02 0.  0.
         -6    2    1    2    0  502 -0.36382890136E+02 -0.68458403223E+02 -0.29801480610E+02  0.19030914079E+03  0.17122842391E+03 0.  0.
        -24    2    5    5    0    0 -0.29787754862E+02  0.24015662631E+02 -0.41598405690E+02  0.96734538965E+02  0.78505294608E+02 0.  0.
          5    1    3    3  501    0  0.57142109294E+02  0.63645526782E+02 -0.39264597617E+03  0.40188173177E+03  0.47000000000E+01 0. -1.
        -13    1    4    4    0    0  0.20163898164E+02  0.33002430675E+02 -0.48093730784E+03  0.48248983128E+03  0.00000000000E+00 0.  1.
         14    1    4    4    0    0 -0.40923117322E+02 -0.28189554234E+02 -0.43094844580E+03  0.43380400579E+03  0.00000000000E+00 0. -1.
         -5    1    5    5    0  502 -0.65951352739E+01 -0.92474065855E+02  0.11796925080E+02  0.93574601823E+02  0.47000000000E+01 0.  1.
         11    1    6    6    0    0  0.69877964954E+01 -0.74513560769E+00 -0.50943521424E+02  0.51425936083E+02  0.00000000000E+00 0. -1.
        -12    1    6    6    0    0 -0.36775551358E+02  0.24760798239E+02  0.93451157337E+01  0.45308602883E+02  0.00000000000E+00 0.  1.
</event>
<event>
12    1  0.8053217E-002  0.2073292E+03  0.7818608E-02  0.1143897E+00
         21   -1    0    0  503  502  0.00000000000E+00  0.00000000000E+00  0.24331350409E+03  0.24331350409E+03  0.00000000000E+00 0.  1.
         21   -1    0    0  501  503 -0.00000000000E+00 -0.00000000000E+00 -0.46889950999E+03  0.46889950999E+03  0.00000000000E+00 0.  1.
          6    2    1    2  501    0 -0.10898247595E+03 -0.42378367743E+02 -0.39422189561E+03  0.44496130366E+03  0.17001927142E+03 0.  0.
         24    2    3    3    0    0 -0.96088306586E+01 -0.58661464508E+01 -0.26654201856E+03  0.27903208777E+03  0.81777240367E+02 0.  0.
         -6    2    1    2    0  502  0.10898247595E+03  0.42378367743E+02  0.16863588971E+03  0.26725171042E+03  0.17120837393E+03 0.  0.
        -24    2    5    5    0    0  0.18883635598E+02  0.73002296425E+02  0.71085260562E+02  0.13089247425E+03  0.79961231664E+02 0.  0.
          5    1    3    3  501    0 -0.99373645295E+02 -0.36512221293E+02 -0.12767987705E+03  0.16592921589E+03  0.47000000000E+01 0. -1.
        -11    1    4    4    0    0  0.55677811967E+01 -0.40723413622E+02 -0.98281770610E+02  0.10653029165E+03  0.00000000000E+00 0.  1.
         12    1    4    4    0    0 -0.15176611855E+02  0.34857267172E+02 -0.16826024795E+03  0.17250179612E+03  0.00000000000E+00 0. -1.
         -5    1    5    5    0  502  0.90098840355E+02 -0.30623928681E+02  0.97550629151E+02  0.13635923617E+03  0.47000000000E+01 0.  1.
         13    1    6    6    0    0 -0.40265850685E+01 -0.13005641873E+02  0.29828339100E+02  0.32788563880E+02  0.00000000000E+00 0. -1.
        -14    1    6    6    0    0  0.22910220666E+02  0.86007938298E+02  0.41256921462E+02  0.98103910369E+02  0.00000000000E+00 0.  1.
</event>
<event>
12    1  0.8053217E-002  0.2034041E+03  0.7818608E-02  0.1147265E+00
         21   -1    0    0  503  502  0.00000000000E+00  0.00000000000E+00  0.26254860130E+02  0.26254860130E+02  0.00000000000E+00 0.  1.
         21   -1    0    0  501  503 -0.00000000000E+00 -0.00000000000E+00 -0.17160851292E+04  0.17160851292E+04  0.00000000000E+00 0.  1.
          6    2    1    2  501    0 -0.10333357728E+03  0.37335520053E+02 -0.58736490004E+03  0.62158728822E+03  0.17117669768E+03 0.  0.
         24    2    3    3    0    0 -0.19294980009E+02 -0.36639307950E+02 -0.29858085229E+03  0.31182435105E+03  0.79807051153E+02 0.  0.
         -6    2    1    2    0  502  0.10333357728E+03 -0.37335520053E+02 -0.11024653690E+04  0.11207527011E+04  0.16907086644E+03 0.  0.
        -24    2    5    5    0    0  0.98761357557E+02 -0.59182640100E+02 -0.10787369479E+04  0.10878387251E+04  0.80394641770E+02 0.  0.
          5    1    3    3  501    0 -0.84038597271E+02  0.73974828003E+02 -0.28878404775E+03  0.30976293717E+03  0.47000000000E+01 0. -1.
        -13    1    4    4    0    0 -0.40117462773E+02  0.17618059201E+01 -0.87551994635E+02  0.96321682626E+02  0.00000000000E+00 0.  1.
         14    1    4    4    0    0  0.20822482764E+02 -0.38401113870E+02 -0.21102885766E+03  0.21550266843E+03  0.00000000000E+00 0. -1.
         -5    1    5    5    0  502  0.45722197239E+01  0.21847120047E+02 -0.23728421142E+02  0.32913976020E+02  0.47000000000E+01 0.  1.
         11    1    6    6    0    0  0.27759445624E+02 -0.10523072505E+02 -0.64280225601E+03  0.64348742195E+03  0.00000000000E+00 0. -1.
        -12    1    6    6    0    0  0.71001911933E+02 -0.48659567596E+02 -0.43593469184E+03  0.44435130310E+03  0.00000000000E+00 0.  1.
</event>
<event>
12    1  0.8053217E-002  0.2007865E+03  0.7818608E-02  0.1149387E+00
         21   -1    0    0  503  502  0.00000000000E+00  0.00000000000E+00  0.38046319503E+03  0.38046319503E+03  0.00000000000E+00 0. -1.
         21   -1    0    0  501  503 -0.00000000000E+00 -0.00000000000E+00 -0.21975745178E+03  0.21975745178E+03  0.00000000000E+00 0. -1.
          6    2    1    2  501    0  0.33303303122E+02  0.93899195566E+02 -0.13647998952E+03  0.24156399727E+03  0.17262736838E+03 0.  0.
         24    2    3    3    0    0 -0.36335711031E+02  0.10436429277E+02 -0.43787565085E+02  0.98631841356E+02  0.79885457507E+02 0.  0.
         -6    2    1    2    0  502 -0.33303303122E+02 -0.93899195566E+02  0.29718573276E+03  0.35865664954E+03  0.17432459256E+03 0.  0.
        -24    2    5    5    0    0  0.38233589538E+02 -0.96287638713E+02  0.15003256338E+03  0.19495149711E+03  0.69015935928E+02 0.  0.
          5    1    3    3  501    0  0.69639014153E+02  0.83462766289E+02 -0.92692424430E+02  0.14293215592E+03  0.47000000000E+01 0. -1.
        -13    1    4    4    0    0 -0.32030821489E+02  0.18957889900E+02  0.14219541152E+02  0.39844327894E+02  0.00000000000E+00 0.  1.
         14    1    4    4    0    0 -0.43048895421E+01 -0.85214606228E+01 -0.58007106237E+02  0.58787513462E+02  0.00000000000E+00 0. -1.
         -5    1    5    5    0  502 -0.71536892660E+02  0.23884431467E+01  0.14715316938E+03  0.16370515243E+03  0.47000000000E+01 0.  1.
         11    1    6    6    0    0 -0.14162369897E+02 -0.90949905028E+01  0.48033252185E+02  0.50896806274E+02  0.00000000000E+00 0. -1.
        -12    1    6    6    0    0  0.52395959435E+02 -0.87192648210E+02  0.10199931120E+03  0.14405469083E+03  0.00000000000E+00 0.  1.
</event>
<event>
12    1  0.8053217E-002  0.1948790E+03  0.7818608E-02  0.1154219E+00
         21   -1    0    0  501  502  0.00000000000E+00  0.00000000000E+00  0.19328202339E+03  0.19328202339E+03  0.00000000000E+00 0.  1.
         21   -1    0    0  502  503 -0.00000000000E+00 -0.00000000000E+00 -0.19922866028E+03  0.19922866028E+03  0.00000000000E+00 0. -1.
         -6    2    1    2    0  503 -0.62789618264E+02 -0.64502722199E+02 -0.27608383611E+02  0.19682494975E+03  0.17284299427E+03 0.  0.
        -24    2    3    3    0    0  0.16010197266E+02 -0.78260111960E+02 -0.27333207822E+02  0.11669479050E+03  0.80558043290E+02 0.  0.
          6    2    1    2  501    0  0.62789618264E+02  0.64502722199E+02  0.21661746727E+02  0.19568573392E+03  0.17239645546E+03 0.  0.
         24    2    5    5    0    0  0.77627929665E+02  0.74514237220E+01  0.59442214653E+02  0.12551109534E+03  0.78345637982E+02 0.  0.
          5    1    5    5  501    0 -0.14838311401E+02  0.57051298477E+02 -0.37780467926E+02  0.70174638580E+02  0.47000000000E+01 0. -1.
        -13    1    6    6    0    0 -0.11233614056E+02  0.32537539085E+01  0.29357153023E+02  0.31601003669E+02  0.00000000000E+00 0.  1.
         14    1    6    6    0    0  0.88861543721E+02  0.41976698134E+01  0.30085061629E+02  0.93910091670E+02  0.00000000000E+00 0. -1.
         -5    1    3    3    0  503 -0.78799815530E+02  0.13757389762E+02 -0.27517578880E+00  0.80130159256E+02  0.47000000000E+01 0.  1.
         11    1    4    4    0    0 -0.22317177477E+02 -0.69195420525E+02 -0.90270706020E+01  0.73263569636E+02  0.00000000000E+00 0. -1.
        -12    1    4    4    0    0  0.38327374743E+02 -0.90646914350E+01 -0.18306137220E+02  0.43431220860E+02  0.00000000000E+00 0.  1.
</event>
<event>
12    1  0.8053217E-002  0.1889752E+03  0.7818608E-02  0.1159779E+00
         21   -1    0    0  501  502  0.00000000000E+00  0.00000000000E+00  0.42226538593E+03  0.42226538593E+03  0.00000000000E+00 0.  1.
         21   -1    0    0  502  503 -0.00000000000E+00 -0.00000000000E+00 -0.95523221567E+02  0.95523221567E+02  0.00000000000E+00 0.  1.
         -6    2    1    2    0  503 -0.16487221515E+02 -0.70908302862E+02  0.73357766558E+02  0.20271409350E+03  0.17438986755E+03 0.  0.
        -24    2    3    3    0    0 -0.55315200626E+02 -0.69092337339E+02 -0.26570968073E+01  0.11720819227E+03  0.76793083501E+02 0.  0.
          6    2    1    2  501    0  0.16487221515E+02  0.70908302862E+02  0.25338439780E+03  0.31507451399E+03  0.17253544688E+03 0.  0.
         24    2    5    5    0    0 -0.92498487162E+01  0.26174742247E+02  0.37297779595E+02  0.92860642241E+02  0.80382197543E+02 0.  0.
          5    1    5    5  501    0  0.25737070231E+02  0.44733560615E+02  0.21608661821E+03  0.22221387175E+03  0.47000000000E+01 0. -1.
        -11    1    6    6    0    0  0.19264865123E+02 -0.26503159157E+01  0.47263697619E+02  0.51107888973E+02  0.00000000000E+00 0.  1.
         12    1    6    6    0    0 -0.28514713839E+02  0.28825058162E+02 -0.99659180245E+01  0.41752753268E+02  0.00000000000E+00 0. -1.
         -5    1    3    3    0  503  0.38827979111E+02 -0.18159655222E+01  0.76014863365E+02  0.85505901229E+02  0.47000000000E+01 0.  1.
         13    1    4    4    0    0  0.18975206077E+02 -0.75221437132E+01 -0.35376117781E+01  0.20716075613E+02  0.00000000000E+00 0. -1.
        -14    1    4    4    0    0 -0.74290406703E+02 -0.61570193626E+02  0.88051497088E+00  0.96492116662E+02  0.00000000000E+00 0.  1.
</event>
<event>
12    1  0.8053217E-002  0.3288962E+03  0.7818608E-02  0.1071635E+00
         21   -1    0    0  503  502  0.00000000000E+00  0.00000000000E+00  0.10530287116E+03  0.10530287116E+03  0.00000000000E+00 0. -1.
         21   -1    0    0  501  503 -0.00000000000E+00 -0.00000000000E+00 -0.10843445096E+04  0.10843445096E+04  0.00000000000E+00 0.  1.
          6    2    1    2  501    0  0.15900946933E+02  0.28016472429E+03 -0.35279261411E+03  0.48232286095E+03  0.17154474859E+03 0.  0.
         24    2    3    3    0    0  0.43194883832E+02  0.11765766632E+03 -0.24124627353E+03  0.28327970237E+03  0.79614702454E+02 0.  0.
         -6    2    1    2    0  502 -0.15900946933E+02 -0.28016472429E+03 -0.62624902435E+03  0.70732451984E+03  0.17139143215E+03 0.  0.
        -24    2    5    5    0    0  0.12237885218E+02 -0.56713675192E+02 -0.13799647973E+03  0.16961195485E+03  0.79743213011E+02 0.  0.
          5    1    3    3  501    0 -0.27293936900E+02  0.16250705797E+03 -0.11154634059E+03  0.19904315858E+03  0.47000000000E+01 0. -1.
        -11    1    4    4    0    0  0.15045730788E+02  0.23380660376E+02 -0.13755877235E+03  0.14034046154E+03  0.00000000000E+00 0.  1.
         12    1    4    4    0    0  0.28149153044E+02  0.94277005946E+02 -0.10368750118E+03  0.14293924083E+03  0.00000000000E+00 0. -1.
         -5    1    5    5    0  502 -0.28138832151E+02 -0.22345104910E+03 -0.48825254462E+03  0.53771256499E+03  0.47000000000E+01 0.  1.
         13    1    6    6    0    0 -0.10001432097E+02 -0.53232770896E+02 -0.35706785275E+02  0.64874733571E+02  0.00000000000E+00 0. -1.
        -14    1    6    6    0    0  0.22239317315E+02 -0.34809042965E+01 -0.10228969445E+03  0.10473722128E+03  0.00000000000E+00 0.  1.
</event>
<event>
12    1  0.8053217E-002  0.2023272E+03  0.7818608E-02  0.1147818E+00
         21   -1    0    0  501  502  0.00000000000E+00  0.00000000000E+00  0.47495820190E+02  0.47495820190E+02  0.00000000000E+00 0. -1.
         21   -1    0    0  502  503 -0.00000000000E+00 -0.00000000000E+00 -0.96327395796E+03  0.96327395796E+03  0.00000000000E+00 0. -1.
         -6    2    1    2    0  503  0.55115766638E+02  0.89468528509E+02 -0.62216945290E+03  0.65419950184E+03  0.17274198901E+03 0.  0.
        -24    2    3    3    0    0 -0.13336023160E+02  0.72153173540E+02 -0.51136635523E+03  0.52272750674E+03  0.79778236833E+02 0.  0.
          6    2    1    2  501    0 -0.55115766638E+02 -0.89468528509E+02 -0.29360868488E+03  0.35657027631E+03  0.17289863154E+03 0.  0.
         24    2    5    5    0    0 -0.28542779686E+02  0.17620533757E+02 -0.93129970905E+02  0.12768603560E+03  0.80655804028E+02 0.  0.
          5    1    5    5  501    0 -0.26572986951E+02 -0.10708906227E+03 -0.20047871397E+03  0.22888424072E+03  0.47000000000E+01 0. -1.
        -13    1    6    6    0    0 -0.17966596793E+02  0.79973982818E+01 -0.10638559371E+03  0.10818803783E+03  0.00000000000E+00 0.  1.
         14    1    6    6    0    0 -0.10576182893E+02  0.96231354755E+01  0.13255622807E+02  0.19497997768E+02  0.00000000000E+00 0. -1.
         -5    1    3    3    0  503  0.68451789798E+02  0.17315354969E+02 -0.11080309767E+03  0.13147199510E+03  0.47000000000E+01 0.  1.
         11    1    4    4    0    0 -0.16063012150E+01  0.79867121922E+00 -0.28680184810E+03  0.28680745833E+03  0.00000000000E+00 0. -1.
        -12    1    4    4    0    0 -0.11729721945E+02  0.71354502321E+02 -0.22456450713E+03  0.23592004841E+03  0.00000000000E+00 0.  1.
</event>
<event>
12    1  0.8053217E-002  0.2696460E+03  0.7818608E-02  0.1101672E+00
         21   -1    0    0  501  502  0.00000000000E+00  0.00000000000E+00  0.38257181122E+03  0.38257181122E+03  0.00000000000E+00 0. -1.
         21   -1    0    0  502  503 -0.00000000000E+00 -0.00000000000E+00 -0.21758722492E+03  0.21758722492E+03  0.00000000000E+00 0.  1.
         -6    2    1    2    0  503 -0.17243814069E+03 -0.11741041836E+03 -0.25861831427E+02  0.27088337278E+03  0.17084744253E+03 0.  0.
        -24    2    3    3    0    0 -0.15361388387E+02 -0.42232488010E+02 -0.31537256068E+02  0.96587280536E+02  0.79466653034E+02 0.  0.
          6    2    1    2  501    0  0.17243814069E+03  0.11741041836E+03  0.19084641772E+03  0.32927566337E+03  0.16876015117E+03 0.  0.
         24    2    5    5    0    0  0.68709301531E+02  0.73662307608E+01  0.30767790675E+02  0.10901070443E+03  0.78494886868E+02 0.  0.
          5    1    5    5  501    0  0.10372883916E+03  0.11004418760E+03  0.16007862705E+03  0.22026495894E+03  0.47000000000E+01 0. -1.
        -11    1    6    6    0    0  0.82409232435E+02 -0.39212603384E+01  0.12333385836E+02  0.83419244059E+02  0.00000000000E+00 0.  1.
         12    1    6    6    0    0 -0.13699930903E+02  0.11287491099E+02  0.18434404840E+02  0.25591460370E+02  0.00000000000E+00 0. -1.
         -5    1    3    3    0  503 -0.15707675230E+03 -0.75177930355E+02  0.56754246405E+01  0.17429609224E+03  0.47000000000E+01 0.  1.
         11    1    4    4    0    0 -0.14269113849E+02 -0.60553105567E+02 -0.25319201264E+01  0.62263125712E+02  0.00000000000E+00 0. -1.
        -12    1    4    4    0    0 -0.10922745371E+01  0.18320617558E+02 -0.29005335941E+02  0.34324154825E+02  0.00000000000E+00 0.  1.
</event>
<event>
12    1  0.8053217E-002  0.1828949E+03  0.7818608E-02  0.1166076E+00
         21   -1    0    0  503  502  0.00000000000E+00  0.00000000000E+00  0.75692787557E+02  0.75692787557E+02  0.00000000000E+00 0.  1.
         21   -1    0    0  501  503 -0.00000000000E+00 -0.00000000000E+00 -0.79142375666E+03  0.79142375666E+03  0.00000000000E+00 0.  1.
          6    2    1    2  501    0  0.53220873283E+02  0.30804390241E+02 -0.65260306759E+03  0.67774722373E+03  0.17224739079E+03 0.  0.
         24    2    3    3    0    0  0.61150182643E+02  0.77795393219E+02 -0.37391845741E+03  0.39497836006E+03  0.80008900020E+02 0.  0.
         -6    2    1    2    0  502 -0.53220873283E+02 -0.30804390241E+02 -0.63127901513E+02  0.18936932049E+03  0.16761335204E+03 0.  0.
        -24    2    5    5    0    0 -0.38374203188E+02 -0.72810118047E+02 -0.81947594256E+02  0.14077739095E+03  0.79554841699E+02 0.  0.
          5    1    3    3  501    0 -0.79293093601E+01 -0.46991002978E+02 -0.27868461018E+03  0.28276886366E+03  0.47000000000E+01 0. -1.
        -13    1    4    4    0    0  0.16212394724E+02  0.44308869288E+01 -0.20235604594E+03  0.20305281044E+03  0.00000000000E+00 0.  1.
         14    1    4    4    0    0  0.44937787920E+02  0.73364506290E+02 -0.17156241148E+03  0.19192554962E+03  0.00000000000E+00 0. -1.
         -5    1    5    5    0  502 -0.14846670096E+02  0.42005727807E+02  0.18819692742E+02  0.48591929540E+02  0.47000000000E+01 0.  1.
         11    1    6    6    0    0 -0.18460350625E+01  0.91456519752E+01 -0.41177944505E+02  0.42221723190E+02  0.00000000000E+00 0. -1.
        -12    1    6    6    0    0 -0.36528168125E+02 -0.81955770023E+02 -0.40769649751E+02  0.98555667759E+02  0.00000000000E+00 0.  1.
</event>
<event>
12    1  0.8053217E-002  0.2412348E+03  0.7818608E-02  0.1118979E+00
         21   -1    0    0  503  502  0.00000000000E+00  0.00000000000E+00  0.68733753879E+02  0.68733753879E+02  0.00000000000E+00 0.  1.
         21   -1    0    0  501  503 -0.00000000000E+00 -0.00000000000E+00 -0.14524085849E+04  0.14524085849E+04  0.00000000000E+00 0.  1.
          6    2    1    2  501    0 -0.16794093413E+03  0.78641416108E+01 -0.11830403692E+04  0.12073774520E+04  0.17294448325E+03 0.  0.
         24    2    3    3    0    0 -0.17273293913E+03  0.32221519289E+02 -0.11480996669E+04  0.11642591515E+04  0.80570665287E+02 0.  0.
         -6    2    1    2    0  502  0.16794093413E+03 -0.78641416108E+01 -0.20063446178E+03  0.31376488677E+03  0.17299773073E+03 0.  0.
        -24    2    5    5    0    0  0.12433120236E+02 -0.10604618193E+02 -0.97627388200E+02  0.12715637249E+03  0.79816011754E+02 0.  0.
          5    1    3    3  501    0  0.47920050029E+01 -0.24357377678E+02 -0.34940702272E+02  0.43118300460E+02  0.47000000000E+01 0. -1.
        -11    1    4    4    0    0 -0.28113088590E+02  0.11271844745E+02 -0.45058169726E+03  0.45159856746E+03  0.00000000000E+00 0.  1.
         12    1    4    4    0    0 -0.14461985054E+03  0.20949674544E+02 -0.69751796968E+03  0.71266058405E+03  0.00000000000E+00 0. -1.
         -5    1    5    5    0  502  0.15550781390E+03  0.27404765822E+01 -0.10300707358E+03  0.18660851428E+03  0.47000000000E+01 0.  1.
         11    1    6    6    0    0 -0.38605223491E+01 -0.15300232797E+02 -0.10674414259E+03  0.10790418311E+03  0.00000000000E+00 0. -1.
        -12    1    6    6    0    0  0.16293642585E+02  0.46956146037E+01  0.91167543888E+01  0.19252189376E+02  0.00000000000E+00 0.  1.
</event>
<event>
12    1  0.8053217E-002  0.4404635E+03  0.7818608E-02  0.1030636E+00
         21   -1    0    0  503  502  0.00000000000E+00  0.00000000000E+00  0.10761101807E+04  0.10761101807E+04  0.00000000000E+00 0. -1.
         21   -1    0    0  501  503 -0.00000000000E+00 -0.00000000000E+00 -0.45891091153E+03  0.45891091153E+03  0.00000000000E+00 0. -1.
          6    2    1    2  501    0 -0.36982233856E+02  0.40327288662E+03 -0.28967352368E+03  0.52684136469E+03  0.17220443237E+03 0.  0.
         24    2    3    3    0    0  0.14365277215E+02  0.16035652816E+03 -0.70316669891E+02  0.19550400881E+03  0.85771825693E+02 0.  0.
         -6    2    1    2    0  502  0.36982233856E+02 -0.40327288662E+03  0.90687279281E+03  0.10081797275E+04  0.17323796905E+03 0.  0.
        -24    2    5    5    0    0 -0.37521295827E+02 -0.13381159351E+03  0.35003810357E+03  0.38508493090E+03  0.80314007866E+02 0.  0.
          5    1    3    3  501    0 -0.51347511072E+02  0.24291635846E+03 -0.21935685379E+03  0.33133735588E+03  0.47000000000E+01 0. -1.
        -11    1    4    4    0    0  0.45421460355E+01 -0.26699699606E+00 -0.29008517873E+02  0.29363182511E+02  0.00000000000E+00 0.  1.
         12    1    4    4    0    0  0.98231311798E+01  0.16062352515E+03 -0.41308152018E+02  0.16614082630E+03  0.00000000000E+00 0. -1.
         -5    1    5    5    0  502  0.74503529683E+02 -0.26946129311E+03  0.55683468925E+03  0.62309479661E+03  0.47000000000E+01 0.  1.
         11    1    6    6    0    0  0.22505020469E+01 -0.11659494102E+03  0.24039962847E+03  0.26719174089E+03  0.00000000000E+00 0. -1.
        -12    1    6    6    0    0 -0.39771797874E+02 -0.17216652486E+02  0.10963847510E+03  0.11789319001E+03  0.00000000000E+00 0.  1.
</event>
<event>
12    1  0.8053217E-002  0.2124917E+03  0.7818608E-02  0.1139787E+00
         21   -1    0    0  501  502  0.00000000000E+00  0.00000000000E+00  0.25806670286E+03  0.25806670286E+03  0.00000000000E+00 0.  1.
         21   -1    0    0  502  503 -0.00000000000E+00 -0.00000000000E+00 -0.21451925450E+03  0.21451925450E+03  0.00000000000E+00 0.  1.
         -6    2    1    2    0  503  0.70044033330E+02  0.10322036549E+03 -0.80616522134E+02  0.22727021898E+03  0.17202359819E+03 0.  0.
        -24    2    3    3    0    0  0.10716143085E+02 -0.10495125487E+02 -0.47930124174E+02  0.94825883267E+02  0.80434246142E+02 0.  0.
          6    2    1    2  501    0 -0.70044033330E+02 -0.10322036549E+03  0.12416397050E+03  0.24531573839E+03  0.17088741754E+03 0.  0.
         24    2    5    5    0    0 -0.34862649277E+02 -0.51715207910E+02  0.14772898876E+03  0.17847330331E+03  0.78351763404E+02 0.  0.
          5    1    5    5  501    0 -0.35181384054E+02 -0.51505157583E+02 -0.23565018267E+02  0.66842435081E+02  0.47000000000E+01 0. -1.
        -11    1    6    6    0    0 -0.54933411010E+02 -0.27069012250E+02  0.12562839991E+03  0.13976017292E+03  0.00000000000E+00 0.  1.
         12    1    6    6    0    0  0.20070761733E+02 -0.24646195660E+02  0.22100588853E+02  0.38713130392E+02  0.00000000000E+00 0. -1.
         -5    1    3    3    0  503  0.59327890246E+02  0.11371549098E+03 -0.32686397960E+02  0.13244433571E+03  0.47000000000E+01 0.  1.
         13    1    4    4    0    0  0.38971380351E+01  0.67769254549E+01  0.21541056493E+02  0.22915748260E+02  0.00000000000E+00 0. -1.
        -14    1    4    4    0    0  0.68190050496E+01 -0.17272050941E+02 -0.69471180666E+02  0.71910135007E+02  0.00000000000E+00 0.  1.
</event>
<event>
12    1  0.8053217E-002  0.2217165E+03  0.7818608E-02  0.1132702E+00
         21   -1    0    0  501  502  0.00000000000E+00  0.00000000000E+00  0.42248161859E+03  0.42248161859E+03  0.00000000000E+00 0.  1.
         21   -1    0    0  502  503 -0.00000000000E+00 -0.00000000000E+00 -0.19244506715E+03  0.19244506715E+03  0.00000000000E+00 0. -1.
         -6    2    1    2    0  503 -0.11982943489E+03 -0.70753934146E+02 -0.78566188774E+02  0.23522511081E+03  0.17260647171E+03 0.  0.
        -24    2    3    3    0    0 -0.12772830913E+03 -0.25345650532E+02 -0.10164181420E+03  0.18346722326E+03  0.79826315624E+02 0.  0.
          6    2    1    2  501    0  0.11982943489E+03  0.70753934146E+02  0.30860274022E+03  0.37970157493E+03  0.17196633993E+03 0.  0.
         24    2    5    5    0    0  0.86503131857E+02 -0.78763484043E+01  0.10785333572E+03  0.16149117826E+03  0.83079660236E+02 0.  0.
          5    1    5    5  501    0  0.33326303036E+02  0.78630282550E+02  0.20074940449E+03  0.21821039666E+03  0.47000000000E+01 0. -1.
        -13    1    6    6    0    0  0.37802227893E+01 -0.33365581995E+02  0.32379779895E+02  0.46647639729E+02  0.00000000000E+00 0.  1.
         14    1    6    6    0    0  0.82722909068E+02  0.25489233591E+02  0.75473555829E+02  0.11484353854E+03  0.00000000000E+00 0. -1.
         -5    1    3    3    0  503  0.78988742330E+01 -0.45408283614E+02  0.23075625422E+02  0.51757887549E+02  0.47000000000E+01 0.  1.
         11    1    4    4    0    0 -0.11568640379E+03  0.62018600221E+01 -0.62022241909E+02  0.13140991432E+03  0.00000000000E+00 0. -1.
        -12    1    4    4    0    0 -0.12041905332E+02 -0.31547510554E+02 -0.39619572287E+02  0.52057308943E+02  0.00000000000E+00 0.  1.
</event>
<event>
12    1  0.8053217E-002  0.1966592E+03  0.7818608E-02  0.1154883E+00
         21   -1    0    0  503  502  0.00000000000E+00  0.00000000000E+00  0.94302367416E+03  0.94302367416E+03  0.00000000000E+00 0.  1.
         21   -1    0    0  501  503 -0.00000000000E+00 -0.00000000000E+00 -0.72841281276E+02  0.72841281276E+02  0.00000000000E+00 0.  1.
          6    2    1    2  501    0  0.30952978185E+02  0.69181451805E+02  0.82085952732E+02  0.20360217037E+03  0.17021039925E+03 0.  0.
         24    2    3    3    0    0  0.19810900097E+02  0.92477276630E+02  0.11005828492E+03  0.16524356343E+03  0.79044865242E+02 0.  0.
         -6    2    1    2    0  502 -0.30952978185E+02 -0.69181451805E+02  0.78809644015E+03  0.81226278506E+03  0.18146810432E+03 0.  0.
        -24    2    5    5    0    0 -0.33087536076E+02  0.34616958822E+02  0.38108230182E+03  0.39218985664E+03  0.79347615054E+02 0.  0.
          5    1    3    3  501    0  0.11142078088E+02 -0.23295824825E+02 -0.27972332187E+02  0.38358606940E+02  0.47000000000E+01 0. -1.
        -11    1    4    4    0    0 -0.10735731610E+02  0.43344487494E+02  0.45127782761E+01  0.44881685542E+02  0.00000000000E+00 0.  1.
         12    1    4    4    0    0  0.30546631707E+02  0.49132789137E+02  0.10554550664E+03  0.12036187789E+03  0.00000000000E+00 0. -1.
         -5    1    5    5    0  502  0.21345578907E+01 -0.10379841063E+03  0.40701413834E+03  0.42007292842E+03  0.47000000000E+01 0.  1.
         11    1    6    6    0    0  0.22412692729E+02  0.26317425749E+02  0.10785375645E+03  0.11325797312E+03  0.00000000000E+00 0. -1.
        -12    1    6    6    0    0 -0.55500228805E+02  0.82995330726E+01  0.27322854536E+03  0.27893188353E+03  0.00000000000E+00 0.  1.
</event>
<event>
12    1  0.8053217E-002  0.2107446E+03  0.7818608E-02  0.1141332E+00
         21   -1    0    0  501  502  0.00000000000E+00  0.00000000000E+00  0.13973962428E+03  0.13973962428E+03  0.00000000000E+00 0. -1.
         21   -1    0    0  502  503 -0.00000000000E+00 -0.00000000000E+00 -0.31939497030E+03  0.31939497030E+03  0.00000000000E+00 0. -1.
         -6    2    1    2    0  503 -0.80455524217E+01 -0.12047601120E+03 -0.62933251646E+02  0.21822523655E+03  0.17053580127E+03 0.  0.
        -24    2    3    3    0    0  0.82103995718E+01 -0.10109267178E+03  0.12215959116E+02  0.13879310388E+03  0.93952951410E+02 0.  0.
          6    2    1    2  501    0  0.80455524217E+01  0.12047601120E+03 -0.11672209437E+03  0.24090935803E+03  0.17272542164E+03 0.  0.
         24    2    5    5    0    0  0.75379097262E+01  0.74496420744E+02 -0.14881565435E+03  0.18463798847E+03  0.79615017553E+02 0.  0.
          5    1    5    5  501    0  0.50764269556E+00  0.45979590454E+02  0.32093559980E+02  0.56271369555E+02  0.47000000000E+01 0. -1.
        -11    1    6    6    0    0 -0.24803841734E+02  0.71996606028E+02 -0.11357581017E+03  0.13674138547E+03  0.00000000000E+00 0.  1.
         12    1    6    6    0    0  0.32341751461E+02  0.24998147159E+01 -0.35239844179E+02  0.47896603000E+02  0.00000000000E+00 0. -1.
         -5    1    3    3    0  503 -0.16255951994E+02 -0.19383339416E+02 -0.75149210762E+02  0.79432132668E+02  0.47000000000E+01 0.  1.
         13    1    4    4    0    0 -0.42626058972E+02 -0.55400887771E+02  0.60669362971E+01  0.70164428205E+02  0.00000000000E+00 0. -1.
        -14    1    4    4    0    0  0.50836458544E+02 -0.45691784010E+02  0.61490228191E+01  0.68628675675E+02  0.00000000000E+00 0.  1.
</event>
<event>
12    1  0.8053217E-002  0.2189319E+03  0.7818608E-02  0.1134694E+00
         21   -1    0    0  503  502  0.00000000000E+00  0.00000000000E+00  0.13709807856E+03  0.13709807856E+03  0.00000000000E+00 0. -1.
         21   -1    0    0  501  503 -0.00000000000E+00 -0.00000000000E+00 -0.34956492418E+03  0.34956492418E+03  0.00000000000E+00 0. -1.
          6    2    1    2  501    0  0.10976505819E+03 -0.79195699998E+02 -0.10304057413E+03  0.24190744693E+03  0.17199280818E+03 0.  0.
         24    2    3    3    0    0  0.69955662048E+02 -0.12079305869E+03 -0.71060469253E+02  0.17587756446E+03  0.79991060186E+02 0.  0.
         -6    2    1    2    0  502 -0.10976505819E+03  0.79195699998E+02 -0.10942627149E+03  0.24475555580E+03  0.17207802389E+03 0.  0.
        -24    2    5    5    0    0 -0.43959356039E+00  0.19624874482E+02 -0.82978046326E+02  0.11738860922E+03  0.80680855603E+02 0.  0.
          5    1    3    3  501    0  0.39809396139E+02  0.41597358692E+02 -0.31980104877E+02  0.66029882471E+02  0.47000000000E+01 0. -1.
        -11    1    4    4    0    0  0.16070397346E+02  0.11764675928E+01  0.10813417855E+02  0.19405456773E+02  0.00000000000E+00 0.  1.
         12    1    4    4    0    0  0.53885264702E+02 -0.12196952628E+03 -0.81873887109E+02  0.15647210769E+03  0.00000000000E+00 0. -1.
         -5    1    5    5    0  502 -0.10932546463E+03  0.59570825517E+02 -0.26448225169E+02  0.12736694659E+03  0.47000000000E+01 0.  1.
         11    1    6    6    0    0  0.13646398756E+02  0.39130181393E+02 -0.13066117107E+02  0.43452487974E+02  0.00000000000E+00 0. -1.
        -12    1    6    6    0    0 -0.14085992317E+02 -0.19505306911E+02 -0.69911929219E+02  0.73936121242E+02  0.00000000000E+00 0.  1.
</event>
<event>
12    1  0.8053217E-002  0.1960756E+03  0.7818608E-02  0.1153210E+00
         21   -1    0    0  503  502  0.00000000000E+00  0.00000000000E+00  0.13817231239E+03  0.13817231239E+03  0.00000000000E+00 0.  1.
         21   -1    0    0  501  503 -0.00000000000E+00 -0.00000000000E+00 -0.83870376012E+03  0.83870376012E+03  0.00000000000E+00 0.  1.
          6    2    1    2  501    0  0.35359072748E+02 -0.86356842040E+02 -0.74997956651E+03  0.77518707023E+03  0.17244673227E+03 0.  0.
         24    2    3    3    0    0  0.60117008041E+02 -0.14498378783E+02 -0.24938329765E+03  0.26883214678E+03  0.79084994487E+02 0.  0.
         -6    2    1    2    0  502 -0.35359072748E+02  0.86356842040E+02  0.49448118785E+02  0.20168900228E+03  0.17183005848E+03 0.  0.
        -24    2    5    5    0    0 -0.52868778276E+02  0.42053556150E+00 -0.87311356864E+01  0.96339326390E+02  0.80060905018E+02 0.  0.
          5    1    3    3  501    0 -0.24757935293E+02 -0.71858463257E+02 -0.50059626886E+03  0.50635492345E+03  0.47000000000E+01 0. -1.
        -13    1    4    4    0    0  0.75285720282E+02 -0.28086053255E+01 -0.22801163005E+03  0.24013565204E+03  0.00000000000E+00 0.  1.
         14    1    4    4    0    0 -0.15168712241E+02 -0.11689773457E+02 -0.21371667605E+02  0.28696494746E+02  0.00000000000E+00 0. -1.
         -5    1    5    5    0  502  0.17509705529E+02  0.85936306478E+02  0.58179254472E+02  0.10534967589E+03  0.47000000000E+01 0.  1.
         11    1    6    6    0    0 -0.73946560392E+02  0.11507254822E+00 -0.12061552946E+01  0.73956486167E+02  0.00000000000E+00 0. -1.
        -12    1    6    6    0    0  0.21077782116E+02  0.30546301328E+00 -0.75249803918E+01  0.22382840224E+02  0.00000000000E+00 0.  1.
</event>
<event>
12    1  0.8053217E-002  0.1768060E+03  0.7818608E-02  0.1171229E+00
         21   -1    0    0  503  502  0.00000000000E+00  0.00000000000E+00  0.64624467659E+03  0.64624467659E+03  0.00000000000E+00 0. -1.
         21   -1    0    0  501  503 -0.00000000000E+00 -0.00000000000E+00 -0.12069382182E+03  0.12069382182E+03  0.00000000000E+00 0. -1.
          6    2    1    2  501    0  0.37706897343E+02 -0.19401594450E+02 -0.35091046046E+02  0.17907823338E+03  0.17040950731E+03 0.  0.
         24    2    3    3    0    0 -0.38657918185E+02  0.16784206319E+02 -0.27679487377E+02  0.94119311361E+02  0.79474187819E+02 0.  0.
         -6    2    1    2    0  502 -0.37706897343E+02  0.19401594450E+02  0.56064190081E+03  0.58786026503E+03  0.17164532702E+03 0.  0.
        -24    2    5    5    0    0  0.12877963677E+01 -0.39100218197E+02  0.44057123496E+03  0.44864064350E+03  0.75132738861E+02 0.  0.
          5    1    3    3  501    0  0.76364815528E+02 -0.36185800769E+02 -0.74115586686E+01  0.84958922014E+02  0.47000000000E+01 0. -1.
        -13    1    4    4    0    0 -0.26399773659E+01 -0.22592471549E+02  0.13733331492E+02  0.26570540925E+02  0.00000000000E+00 0.  1.
         14    1    4    4    0    0 -0.36017940819E+02  0.39376677868E+02 -0.41412818870E+02  0.67548770436E+02  0.00000000000E+00 0. -1.
         -5    1    5    5    0  502 -0.38994693711E+02  0.58501812647E+02  0.12007066585E+03  0.13921962153E+03  0.47000000000E+01 0.  1.
         13    1    6    6    0    0 -0.33591910940E+02 -0.18374131176E+01  0.18043113351E+03  0.18354069441E+03  0.00000000000E+00 0. -1.
        -14    1    6    6    0    0  0.34879707308E+02 -0.37262805079E+02  0.26014010145E+03  0.26509994909E+03  0.00000000000E+00 0.  1.
</event>
<event>
12    1  0.8053217E-002  0.2287502E+03  0.7818608E-02  0.1128274E+00
         21   -1    0    0  501  502  0.00000000000E+00  0.00000000000E+00  0.54487065002E+03  0.54487065002E+03  0.00000000000E+00 0.  1.
         21   -1    0    0  502  503 -0.00000000000E+00 -0.00000000000E+00 -0.94974088972E+02  0.94974088972E+02  0.00000000000E+00 0. -1.
         -6    2    1    2    0  503 -0.11037116673E+03  0.10433330845E+03  0.25436166131E+03  0.34209135421E+03  0.17105381078E+03 0.  0.
        -24    2    3    3    0    0 -0.14616528565E+03  0.73461733579E+02  0.20068540474E+03  0.27041497314E+03  0.78030180023E+02 0.  0.
          6    2    1    2  501    0  0.11037116673E+03 -0.10433330845E+03  0.19553489974E+03  0.29775338479E+03  0.16539633441E+03 0.  0.
         24    2    5    5    0    0  0.15731220552E+02 -0.99112633637E+02  0.13264140463E+03  0.18390411344E+03  0.78461425375E+02 0.  0.
          5    1    5    5  501    0  0.94639946180E+02 -0.52206748086E+01  0.62893495110E+02  0.11384927134E+03  0.47000000000E+01 0. -1.
        -11    1    6    6    0    0 -0.18228273582E+02 -0.37932140531E+02  0.96216241297E+02  0.10501753345E+03  0.00000000000E+00 0.  1.
         12    1    6    6    0    0  0.33959494134E+02 -0.61180493106E+02  0.36425163332E+02  0.78886579989E+02  0.00000000000E+00 0. -1.
         -5    1    3    3    0  503  0.35794118914E+02  0.30871574867E+02  0.53676256567E+02  0.71676381066E+02  0.47000000000E+01 0.  1.
         11    1    4    4    0    0 -0.10453953917E+03  0.19411807318E+02  0.15626062811E+03  0.18900454336E+03  0.00000000000E+00 0. -1.
        -12    1    4    4    0    0 -0.41625746476E+02  0.54049926261E+02  0.44424776632E+02  0.81410429782E+02  0.00000000000E+00 0.  1.
</event>
<event>
12    1  0.8053217E-002  0.1749037E+03  0.7818608E-02  0.1173439E+00
         21   -1    0    0  501  502  0.00000000000E+00  0.00000000000E+00  0.14723605042E+04  0.14723605042E+04  0.00000000000E+00 0.  1.
         21   -1    0    0  502  503 -0.00000000000E+00 -0.00000000000E+00 -0.59693454266E+02  0.59693454266E+02  0.00000000000E+00 0.  1.
         -6    2    1    2    0  503 -0.49408608237E+00 -0.41015601006E+01  0.87246723463E+02  0.19545660480E+03  0.17485487321E+03 0.  0.
        -24    2    3    3    0    0 -0.56846442024E+02 -0.39259548511E+02  0.73396158899E+02  0.12744483884E+03  0.77989490873E+02 0.  0.
          6    2    1    2  501    0  0.49408608237E+00  0.41015601006E+01  0.13254203265E+04  0.13365973537E+04  0.17244238777E+03 0.  0.
         24    2    5    5    0    0  0.55451020639E+00  0.60017214801E+02  0.10911066827E+04  0.10956584864E+04  0.79695371828E+02 0.  0.
          5    1    5    5  501    0 -0.60424124017E-01 -0.55915654700E+02  0.23431364374E+03  0.24093886721E+03  0.47000000000E+01 0. -1.
        -11    1    6    6    0    0  0.29342779993E+01  0.12706531451E+02  0.84124258649E+03  0.84134366062E+03  0.00000000000E+00 0.  1.
         12    1    6    6    0    0 -0.23797677929E+01  0.47310683349E+02  0.24986409623E+03  0.25431482583E+03  0.00000000000E+00 0. -1.
         -5    1    3    3    0  503  0.56352355942E+02  0.35157988410E+02  0.13850564565E+02  0.68011765953E+02  0.47000000000E+01 0.  1.
         11    1    4    4    0    0 -0.21417901350E+02 -0.57422606260E+02  0.28968359591E+02  0.67788259052E+02  0.00000000000E+00 0. -1.
        -12    1    4    4    0    0 -0.35428540674E+02  0.18163057749E+02  0.44427799308E+02  0.59656579791E+02  0.00000000000E+00 0.  1.
</event>
<event>
12    1  0.8053217E-002  0.2308957E+03  0.7818608E-02  0.1126840E+00
         21   -1    0    0  501  502  0.00000000000E+00  0.00000000000E+00  0.46269812314E+02  0.46269812314E+02  0.00000000000E+00 0. -1.
         21   -1    0    0  502  503 -0.00000000000E+00 -0.00000000000E+00 -0.21344171412E+04  0.21344171412E+04  0.00000000000E+00 0.  1.
         -6    2    1    2    0  503 -0.10029306820E+03 -0.10987363007E+03 -0.17980670561E+04  0.18128314754E+04  0.17658399110E+03 0.  0.
        -24    2    3    3    0    0 -0.69207704881E+02 -0.70429449730E+02 -0.16747782736E+04  0.16796235287E+04  0.80640676261E+02 0.  0.
          6    2    1    2  501    0  0.10029306820E+03  0.10987363007E+03 -0.29008027273E+03  0.36785547804E+03  0.17041177771E+03 0.  0.
         24    2    5    5    0    0  0.80952737755E+02  0.11338840530E+03 -0.13121708696E+03  0.20771178063E+03  0.80721643301E+02 0.  0.
          5    1    5    5  501    0  0.19340330449E+02 -0.35147752295E+01 -0.15886318577E+03  0.16014369741E+03  0.47000000000E+01 0. -1.
        -11    1    6    6    0    0  0.27096295963E+01  0.48947585275E+01  0.11080852623E+02  0.12413140152E+02  0.00000000000E+00 0.  1.
         12    1    6    6    0    0  0.78243108158E+02  0.10849364677E+03 -0.14229793958E+03  0.19529864048E+03  0.00000000000E+00 0. -1.
         -5    1    3    3    0  503 -0.31085363322E+02 -0.39444180342E+02 -0.12328878252E+03  0.13320794672E+03  0.47000000000E+01 0.  1.
         11    1    4    4    0    0 -0.83983959779E+02 -0.38935351419E+02 -0.12501467218E+04  0.12535693412E+04  0.00000000000E+00 0. -1.
        -12    1    4    4    0    0  0.14776254897E+02 -0.31494098311E+02 -0.42463155175E+03  0.42605418749E+03  0.00000000000E+00 0.  1.
</event>
<event>
12    1  0.8053217E-002  0.2376240E+03  0.7818608E-02  0.1121800E+00
         21   -1    0    0  503  502  0.00000000000E+00  0.00000000000E+00  0.34836685572E+03  0.34836685572E+03  0.00000000000E+00 0. -1.
         21   -1    0    0  501  503 -0.00000000000E+00 -0.00000000000E+00 -0.26212618813E+03  0.26212618813E+03  0.00000000000E+00 0. -1.
          6    2    1    2  501    0  0.93935836966E+02 -0.13286191993E+03 -0.14687650236E+03  0.27935256010E+03  0.17317307716E+03 0.  0.
         24    2    3    3    0    0  0.96837178088E+02 -0.14358040121E+03 -0.73435533190E+02  0.20492830616E+03  0.81302290615E+02 0.  0.
         -6    2    1    2    0  502 -0.93935836966E+02  0.13286191993E+03  0.23311716995E+03  0.33114048376E+03  0.16980628323E+03 0.  0.
        -24    2    5    5    0    0 -0.20322314207E+01  0.78334707631E+01  0.76872814507E+02  0.11088432738E+03  0.79501013958E+02 0.  0.
          5    1    3    3  501    0 -0.29013411219E+01  0.10718481283E+02 -0.73440969170E+02  0.74424253936E+02  0.47000000000E+01 0. -1.
        -11    1    4    4    0    0  0.47168707760E+02 -0.14861334560E+02 -0.18400427016E+01  0.49488705922E+02  0.00000000000E+00 0.  1.
         12    1    4    4    0    0  0.49668470328E+02 -0.12871906665E+03 -0.71595490489E+02  0.15543960024E+03  0.00000000000E+00 0. -1.
         -5    1    5    5    0  502 -0.91903605546E+02  0.12502844917E+03  0.15624435544E+03  0.22025615638E+03  0.47000000000E+01 0.  1.
         13    1    6    6    0    0  0.96878629357E+01  0.36594928707E+02  0.13288258426E+02  0.40120086083E+02  0.00000000000E+00 0. -1.
        -14    1    6    6    0    0 -0.11720094356E+02 -0.28761457944E+02  0.63584556081E+02  0.70764241301E+02  0.00000000000E+00 0.  1.
</event>
<event>
12    1  0.8053217E-002  0.1994230E+03  0.7818608E-02  0.1150806E+00
         21   -1    0    0  501  502  0.00000000000E+00  0.00000000000E+00  0.11721145218E+03  0.11721145218E+03  0.00000000000E+00 0.  1.
         21   -1    0    0  502  503 -0.00000000000E+00 -0.00000000000E+00 -0.46049262178E+03  0.46049262178E+03  0.00000000000E+00 0.  1.
         -6    2    1    2    0  503 -0.61193237671E+01  0.10372967593E+03 -0.32175867733E+03  0.37712302529E+03  0.16702047172E+03 0.  0.
        -24    2    3    3    0    0 -0.49153775293E+02  0.61825133698E+02 -0.86106290651E+02  0.13389043696E+03  0.65375186711E+02 0.  0.
          6    2    1    2  501    0  0.61193237671E+01 -0.10372967593E+03 -0.21522492271E+02  0.20058104867E+03  0.17021236036E+03 0.  0.
         24    2    5    5    0    0 -0.53620523882E+02 -0.40805109057E+02 -0.36596708931E+02  0.11238993505E+03  0.82170316355E+02 0.  0.
          5    1    5    5  501    0  0.59739847649E+02 -0.62924566870E+02  0.15074216661E+02  0.88191113616E+02  0.47000000000E+01 0. -1.
        -11    1    6    6    0    0  0.82315862544E+01 -0.43224958347E+02 -0.19804467850E+02  0.48253217335E+02  0.00000000000E+00 0.  1.
         12    1    6    6    0    0 -0.61852110137E+02  0.24198492901E+01 -0.16792241082E+02  0.64136717717E+02  0.00000000000E+00 0. -1.
         -5    1    3    3    0  503  0.43034451526E+02  0.41904542229E+02 -0.23565238668E+03  0.24323258833E+03  0.47000000000E+01 0.  1.
         13    1    4    4    0    0 -0.60673690604E+02  0.66548308891E+02 -0.76575331549E+02  0.11821064059E+03  0.00000000000E+00 0. -1.
        -14    1    4    4    0    0  0.11519915311E+02 -0.47231751931E+01 -0.95309591019E+01  0.15679796366E+02  0.00000000000E+00 0.  1.
</event>
<event>
12    1  0.8053217E-002  0.1776952E+03  0.7818608E-02  0.1170155E+00
         21   -1    0    0  501  502  0.00000000000E+00  0.00000000000E+00  0.17825099960E+03  0.17825099960E+03  0.00000000000E+00 0.  1.
         21   -1    0    0  502  503 -0.00000000000E+00 -0.00000000000E+00 -0.17692677369E+03  0.17692677369E+03  0.00000000000E+00 0. -1.
         -6    2    1    2    0  503  0.43320076665E+02  0.46496638785E+01 -0.53322694466E+01  0.17777514144E+03  0.17227106373E+03 0.  0.
        -24    2    3    3    0    0 -0.68615815519E+01  0.64209204454E+01  0.56201506251E+02  0.98214901855E+02  0.79995300617E+02 0.  0.
          6    2    1    2  501    0 -0.43320076665E+02 -0.46496638785E+01  0.66564953528E+01  0.17740263186E+03  0.17184043890E+03 0.  0.
         24    2    5    5    0    0 -0.75050520440E+02  0.39352904013E+02  0.27599798058E+02  0.11906088890E+03  0.78946277555E+02 0.  0.
          5    1    5    5  501    0  0.31730443775E+02 -0.44002567891E+02 -0.20943302705E+02  0.58341742958E+02  0.47000000000E+01 0. -1.
        -11    1    6    6    0    0 -0.49996371495E+02  0.37485699517E+02  0.54020771049E+02  0.82601807097E+02  0.00000000000E+00 0.  1.
         12    1    6    6    0    0 -0.25054148945E+02  0.18672044959E+01 -0.26420972991E+02  0.36459081801E+02  0.00000000000E+00 0. -1.
         -5    1    3    3    0  503  0.50181658217E+02 -0.17712565670E+01 -0.61533775697E+02  0.79560239585E+02  0.47000000000E+01 0.  1.
         11    1    4    4    0    0  0.24844993634E+01  0.42765505970E+02  0.33230060648E+02  0.54215294601E+02  0.00000000000E+00 0. -1.
        -12    1    4    4    0    0 -0.93460809152E+01 -0.36344585525E+02  0.22971445603E+02  0.43999607254E+02  0.00000000000E+00 0.  1.
</event>
<event>
12    1  0.8053217E-002  0.1792027E+03  0.7818608E-02  0.1168718E+00
         21   -1    0    0  501  502  0.00000000000E+00  0.00000000000E+00  0.20987859255E+03  0.20987859255E+03  0.00000000000E+00 0. -1.
         21   -1    0    0  502  503 -0.00000000000E+00 -0.00000000000E+00 -0.15609609712E+03  0.15609609712E+03  0.00000000000E+00 0. -1.
         -6    2    1    2    0  503 -0.42222623376E+02  0.22622842011E+02  0.54640699793E+02  0.18734787573E+03  0.17268201284E+03 0.  0.
        -24    2    3    3    0    0 -0.28497380742E+02  0.56698512712E+02 -0.20242871585E+02  0.10380643163E+03  0.79618963478E+02 0.  0.
          6    2    1    2  501    0  0.42222623376E+02 -0.22622842011E+02 -0.85820436098E+00  0.17862681394E+03  0.17208212934E+03 0.  0.
         24    2    5    5    0    0 -0.47298240264E+01 -0.52093253443E+02 -0.47381716955E+02  0.10610395760E+03  0.79227169757E+02 0.  0.
          5    1    5    5  501    0  0.46952447402E+02  0.29470411432E+02  0.46523512594E+02  0.72522856336E+02  0.47000000000E+01 0. -1.
        -13    1    6    6    0    0 -0.38088208045E+02 -0.14106591957E+02 -0.36021604162E+02  0.54288705042E+02  0.00000000000E+00 0.  1.
         14    1    6    6    0    0  0.33358384019E+02 -0.37986661486E+02 -0.11360112793E+02  0.51815252560E+02  0.00000000000E+00 0. -1.
         -5    1    3    3    0  503 -0.13725242634E+02 -0.34075670701E+02  0.74883571378E+02  0.83541444095E+02  0.47000000000E+01 0.  1.
         13    1    4    4    0    0 -0.45741019852E+02  0.52350753208E+01 -0.18157721874E+02  0.49490905977E+02  0.00000000000E+00 0. -1.
        -14    1    4    4    0    0  0.17243639111E+02  0.51463437391E+02 -0.20851497111E+01  0.54315525655E+02  0.00000000000E+00 0.  1.
</event>
<event>
12    1  0.8053217E-002  0.1855975E+03  0.7818608E-02  0.1163038E+00
         21   -1    0    0  501  502  0.00000000000E+00  0.00000000000E+00  0.35526078482E+02  0.35526078482E+02  0.00000000000E+00 0. -1.
         21   -1    0    0  502  503 -0.00000000000E+00 -0.00000000000E+00 -0.13310809250E+04  0.13310809250E+04  0.00000000000E+00 0. -1.
         -6    2    1    2    0  503  0.16466579095E+02  0.62234917293E+02 -0.28872105470E+03  0.34322920173E+03  0.17407499629E+03 0.  0.
        -24    2    3    3    0    0  0.59009606907E+02  0.24851191954E+02 -0.26129707970E+03  0.28012914990E+03  0.78079839364E+02 0.  0.
          6    2    1    2  501    0 -0.16466579095E+02 -0.62234917293E+02 -0.10068337918E+04  0.10233778018E+04  0.17159110588E+03 0.  0.
         24    2    5    5    0    0 -0.74196282611E+02 -0.52411216679E+02 -0.65918132563E+03  0.67079653310E+03  0.84828914679E+02 0.  0.
          5    1    5    5  501    0  0.57729703517E+02 -0.98237006139E+01 -0.34765246620E+03  0.35258126867E+03  0.47000000000E+01 0. -1.
        -13    1    6    6    0    0  0.11579183499E+02 -0.15624324973E+02 -0.38453535994E+02  0.43091431304E+02  0.00000000000E+00 0.  1.
         14    1    6    6    0    0 -0.85775466111E+02 -0.36786891706E+02 -0.62072778964E+03  0.62770510179E+03  0.00000000000E+00 0. -1.
         -5    1    3    3    0  503 -0.42543027812E+02  0.37383725339E+02 -0.27423974993E+02  0.63100051823E+02  0.47000000000E+01 0.  1.
         11    1    4    4    0    0  0.46910661772E+02  0.52276703386E+02 -0.16660172607E+03  0.18080265218E+03  0.00000000000E+00 0. -1.
        -12    1    4    4    0    0  0.12098945135E+02 -0.27425511433E+02 -0.94695353636E+02  0.99326497728E+02  0.00000000000E+00 0.  1.
</event>
<event>
12    1  0.8053217E-002  0.1856917E+03  0.7818608E-02  0.1162982E+00
         21   -1    0    0  501  502  0.00000000000E+00  0.00000000000E+00  0.11799788289E+03  0.11799788289E+03  0.00000000000E+00 0. -1.
         21   -1    0    0  502  503 -0.00000000000E+00 -0.00000000000E+00 -0.36018039159E+03  0.36018039159E+03  0.00000000000E+00 0. -1.
         -6    2    1    2    0  503 -0.49732921942E+01 -0.64938049023E+02 -0.22720659730E+03  0.29188366214E+03  0.17126456296E+03 0.  0.
        -24    2    3    3    0    0  0.30908445929E+02 -0.14700767964E+02 -0.41565303023E+02  0.96189861325E+02  0.79708032204E+02 0.  0.
          6    2    1    2  501    0  0.49732921942E+01  0.64938049023E+02 -0.14975911400E+02  0.18629461234E+03  0.17389571823E+03 0.  0.
         24    2    5    5    0    0 -0.48227699441E+02  0.76930283186E+02  0.18745335206E+02  0.12200330917E+03  0.79304731202E+02 0.  0.
          5    1    5    5  501    0  0.53200991635E+02 -0.11992234164E+02 -0.33721246606E+02  0.64291303174E+02  0.47000000000E+01 0. -1.
        -11    1    6    6    0    0 -0.42173781393E+02  0.91553692492E+02  0.48089141915E+01  0.10091497461E+03  0.00000000000E+00 0.  1.
         12    1    6    6    0    0 -0.60539180480E+01 -0.14623409305E+02  0.13936421015E+02  0.21088334551E+02  0.00000000000E+00 0. -1.
         -5    1    3    3    0  503 -0.35881738123E+02 -0.50237281059E+02 -0.18564129428E+03  0.19569380082E+03  0.47000000000E+01 0.  1.
         11    1    4    4    0    0 -0.23000340474E+02  0.12418241682E+02 -0.16040569978E+02  0.30668033416E+02  0.00000000000E+00 0. -1.
        -12    1    4    4    0    0  0.53908786402E+02 -0.27119009646E+02 -0.25524733044E+02  0.65521827909E+02  0.00000000000E+00 0.  1.
</event>
<event>
12    1  0.8053217E-002  0.5877684E+03  0.7818608E-02  0.9931135E-01
         21   -1    0    0  501  502  0.00000000000E+00  0.00000000000E+00  0.13373819576E+04  0.13373819576E+04  0.00000000000E+00 0.  1.
         21   -1    0    0  502  503 -0.00000000000E+00 -0.00000000000E+00 -0.35228436343E+03  0.35228436343E+03  0.00000000000E+00 0. -1.
         -6    2    1    2    0  503 -0.43813057766E+03  0.35220223536E+03  0.56172348998E+02  0.59040575384E+03  0.17151910592E+03 0.  0.
        -24    2    3    3    0    0 -0.13920274270E+03  0.70947619875E+02 -0.62653569736E+01  0.17521595823E+03  0.79059528079E+02 0.  0.
          6    2    1    2  501    0  0.43813057766E+03 -0.35220223536E+03  0.92892524518E+03  0.10992605672E+04  0.17165915591E+03 0.  0.
         24    2    5    5    0    0  0.32573259234E+03 -0.24515509175E+03  0.78239129990E+03  0.88575018062E+03  0.78832072102E+02 0.  0.
          5    1    5    5  501    0  0.11239798533E+03 -0.10704714361E+03  0.14653394528E+03  0.21351038659E+03  0.47000000000E+01 0. -1.
        -13    1    6    6    0    0  0.25909395357E+03 -0.19287428807E+03  0.54287425552E+03  0.63169820728E+03  0.00000000000E+00 0.  1.
         14    1    6    6    0    0  0.66638638766E+02 -0.52280803676E+02  0.23951704438E+03  0.25405197334E+03  0.00000000000E+00 0. -1.
         -5    1    3    3    0  503 -0.29892783496E+03  0.28125461548E+03  0.62437705972E+02  0.41518979560E+03  0.47000000000E+01 0.  1.
         13    1    4    4    0    0 -0.86641346145E+02  0.83939670320E+02 -0.92670673268E+01  0.12098954356E+03  0.00000000000E+00 0. -1.
        -14    1    4    4    0    0 -0.52561396559E+02 -0.12992050445E+02  0.30017103531E+01  0.54226414670E+02  0.00000000000E+00 0.  1.
</event>
<event>
12    1  0.8053217E-002  0.2863465E+03  0.7818608E-02  0.1092438E+00
         21   -1    0    0  501  502  0.00000000000E+00  0.00000000000E+00  0.27061698034E+03  0.27061698034E+03  0.00000000000E+00 0.  1.
         21   -1    0    0  502  503 -0.00000000000E+00 -0.00000000000E+00 -0.39354831451E+03  0.39354831451E+03  0.00000000000E+00 0. -1.
         -6    2    1    2    0  503  0.19264589895E+03  0.12371943534E+03  0.98883777830E+02  0.30293951050E+03  0.17197501109E+03 0.  0.
        -24    2    3    3    0    0  0.91041102466E+02  0.10301222606E+03 -0.63631915647E+00  0.15913873550E+03  0.80154420845E+02 0.  0.
          6    2    1    2  501    0 -0.19264589895E+03 -0.12371943534E+03 -0.22181511200E+03  0.36122578435E+03  0.16989167815E+03 0.  0.
         24    2    5    5    0    0 -0.29192173376E+02 -0.50022560899E+02 -0.11802485543E+03  0.15399920047E+03  0.80196307037E+02 0.  0.
          5    1    5    5  501    0 -0.16345372557E+03 -0.73696874442E+02 -0.10379025658E+03  0.20722658388E+03  0.47000000000E+01 0. -1.
        -13    1    6    6    0    0 -0.18105820796E+02 -0.48304489418E+02 -0.19989165656E+02  0.55323694637E+02  0.00000000000E+00 0.  1.
         14    1    6    6    0    0 -0.11086352579E+02 -0.17180714809E+01 -0.98035689771E+02  0.98675505836E+02  0.00000000000E+00 0. -1.
         -5    1    3    3    0  503  0.10160479648E+03  0.20707209286E+02  0.99520096987E+02  0.14380077499E+03  0.47000000000E+01 0.  1.
         13    1    4    4    0    0 -0.11922579710E+02  0.27982732239E+01  0.89033785126E+01  0.15140950727E+02  0.00000000000E+00 0. -1.
        -14    1    4    4    0    0  0.10296368218E+03  0.10021395283E+03 -0.95396976691E+01  0.14399778478E+03  0.00000000000E+00 0.  1.
</event>
<event>
12    1  0.8053217E-002  0.1772128E+03  0.7818608E-02  0.1170694E+00
         21   -1    0    0  503  502  0.00000000000E+00  0.00000000000E+00  0.13953039352E+03  0.13953039352E+03  0.00000000000E+00 0. -1.
         21   -1    0    0  501  503 -0.00000000000E+00 -0.00000000000E+00 -0.43984768049E+03  0.43984768049E+03  0.00000000000E+00 0. -1.
          6    2    1    2  501    0  0.40962698432E+02 -0.71585179598E+00 -0.35284284247E+03  0.39454490286E+03  0.17172406290E+03 0.  0.
         24    2    3    3    0    0  0.43106797701E+02 -0.62522683724E+02 -0.18049621001E+03  0.21137794799E+03  0.79589403064E+02 0.  0.
         -6    2    1    2    0  502 -0.40962698432E+02  0.71585179598E+00  0.52525555493E+02  0.18483317115E+03  0.17241204155E+03 0.  0.
        -24    2    5    5    0    0  0.43796488953E+02 -0.93922331423E+01  0.25255023168E+02  0.95099870976E+02  0.79998892345E+02 0.  0.
          5    1    3    3  501    0 -0.21440992696E+01  0.61806831928E+02 -0.17234663246E+03  0.18316695486E+03  0.47000000000E+01 0. -1.
        -11    1    4    4    0    0  0.51049902031E+02 -0.57054425631E+02 -0.18538116275E+03  0.20056788249E+03  0.00000000000E+00 0.  1.
         12    1    4    4    0    0 -0.79431043291E+01 -0.54682580930E+01  0.48849527401E+01  0.10810065505E+02  0.00000000000E+00 0. -1.
         -5    1    5    5    0  502 -0.84759187385E+02  0.10108084938E+02  0.27270532325E+02  0.89733300176E+02  0.47000000000E+01 0.  1.
         11    1    6    6    0    0  0.11185942958E+02 -0.13095766779E+02  0.50716666976E+02  0.53561224189E+02  0.00000000000E+00 0. -1.
        -12    1    6    6    0    0  0.32610545995E+02  0.37035336367E+01 -0.25461643808E+02  0.41538646787E+02  0.00000000000E+00 0.  1.
</event>
<event>
12    1  0.8053217E-002  0.2290128E+03  0.7818608E-02  0.1128877E+00
         21   -1    0    0  501  502  0.00000000000E+00  0.00000000000E+00  0.51989494003E+02  0.51989494003E+02  0.00000000000E+00 0.  1.
         21   -1    0    0  502  503 -0.00000000000E+00 -0.00000000000E+00 -0.98459268071E+03  0.98459268071E+03  0.00000000000E+00 0.  1.
         -6    2    1    2    0  503  0.10868905752E+03  0.69798154640E+02 -0.53464423688E+03  0.58162815364E+03  0.18910778795E+03 0.  0.
        -24    2    3    3    0    0  0.57670911075E+02 -0.29958488321E+02 -0.14428593578E+03  0.17548048060E+03  0.75838794823E+02 0.  0.
          6    2    1    2  501    0 -0.10868905752E+03 -0.69798154640E+02 -0.39795894983E+03  0.45495402107E+03  0.17868055833E+03 0.  0.
         24    2    5    5    0    0 -0.47992341218E+02  0.24040238056E+02 -0.26301502969E+03  0.27967799049E+03  0.78496335338E+02 0.  0.
          5    1    5    5  501    0 -0.60696716302E+02 -0.93838392696E+02 -0.13494392014E+03  0.17527603058E+03  0.47000000000E+01 0. -1.
        -11    1    6    6    0    0 -0.38227946544E+02  0.20466515460E+02 -0.49083194763E+02  0.65493619233E+02  0.00000000000E+00 0.  1.
         12    1    6    6    0    0 -0.97643946740E+01  0.35737225960E+01 -0.21393183493E+03  0.21418437126E+03  0.00000000000E+00 0. -1.
         -5    1    3    3    0  503  0.51018146445E+02  0.99756642961E+02 -0.39035830110E+03  0.40614767304E+03  0.47000000000E+01 0.  1.
         13    1    4    4    0    0  0.11878331885E+02 -0.26788961315E+02 -0.61837474026E+01  0.29949656903E+02  0.00000000000E+00 0. -1.
        -14    1    4    4    0    0  0.45792579190E+02 -0.31695270058E+01 -0.13810218838E+03  0.14553082370E+03  0.00000000000E+00 0.  1.
</event>
<event>
12    1  0.8053217E-002  0.2487225E+03  0.7818608E-02  0.1114127E+00
         21   -1    0    0  501  502  0.00000000000E+00  0.00000000000E+00  0.89795831070E+03  0.89795831070E+03  0.00000000000E+00 0. -1.
         21   -1    0    0  502  503 -0.00000000000E+00 -0.00000000000E+00 -0.85639297462E+02  0.85639297462E+02  0.00000000000E+00 0.  1.
         -6    2    1    2    0  503 -0.13932861413E+03  0.11302790675E+03  0.18849108832E+03  0.31201428795E+03  0.17215183732E+03 0.  0.
        -24    2    3    3    0    0  0.13405839609E+01  0.28731828245E+02  0.93292548480E+02  0.12233428339E+03  0.73721517698E+02 0.  0.
          6    2    1    2  501    0  0.13932861413E+03 -0.11302790675E+03  0.62382792492E+03  0.67158332021E+03  0.17226463844E+03 0.  0.
         24    2    5    5    0    0  0.16956866301E+02 -0.39568441569E+02  0.13529080521E+03  0.16260223507E+03  0.79263408922E+02 0.  0.
          5    1    5    5  501    0  0.12237174783E+03 -0.73459465183E+02  0.48853711971E+03  0.50898108514E+03  0.47000000000E+01 0. -1.
        -13    1    6    6    0    0  0.14846443397E+02 -0.15159298147E+02 -0.36394042106E+01  0.21528271293E+02  0.00000000000E+00 0.  1.
         14    1    6    6    0    0  0.21104229034E+01 -0.24409143421E+02  0.13893020942E+03  0.14107396378E+03  0.00000000000E+00 0. -1.
         -5    1    3    3    0  503 -0.14066919809E+03  0.84296078508E+02  0.95198539840E+02  0.18968000456E+03  0.47000000000E+01 0.  1.
         11    1    4    4    0    0 -0.12333826888E+02 -0.13964236845E+02 -0.21741945466E+00  0.18632511039E+02  0.00000000000E+00 0. -1.
        -12    1    4    4    0    0  0.13674410849E+02  0.42696065090E+02  0.93509967934E+02  0.10370177235E+03  0.00000000000E+00 0.  1.
</event>
<event>
12    1  0.8053217E-002  0.2123718E+03  0.7818608E-02  0.1140282E+00
         21   -1    0    0  503  502  0.00000000000E+00  0.00000000000E+00  0.49961338011E+02  0.49961338011E+02  0.00000000000E+00 0.  1.
         21   -1    0    0  501  503 -0.00000000000E+00 -0.00000000000E+00 -0.89422088992E+03  0.89422088992E+03  0.00000000000E+00 0. -1.
          6    2    1    2  501    0  0.11489670246E+03 -0.31455400637E+02 -0.45660950373E+03  0.50358120031E+03  0.17581550541E+03 0.  0.
         24    2    3    3    0    0  0.14507645874E+03 -0.32762325505E+02 -0.43485958173E+03  0.46606220714E+03  0.77398812913E+02 0.  0.
         -6    2    1    2    0  502 -0.11489670246E+03  0.31455400637E+02 -0.38765004818E+03  0.44060102762E+03  0.17223823972E+03 0.  0.
        -24    2    5    5    0    0 -0.12721738003E+03  0.40398849476E+02 -0.39402446488E+03  0.42343980502E+03  0.78928199867E+02 0.  0.
          5    1    3    3  501    0 -0.30179756283E+02  0.13069248678E+01 -0.21749921995E+02  0.37518993173E+02  0.47000000000E+01 0. -1.
        -11    1    4    4    0    0 -0.56992965219E+01 -0.12620226033E+02 -0.21212885567E+02  0.25332560077E+02  0.00000000000E+00 0.  1.
         12    1    4    4    0    0  0.15077575526E+03 -0.20142099472E+02 -0.41364669617E+03  0.44072964706E+03  0.00000000000E+00 0. -1.
         -5    1    5    5    0  502  0.12320677569E+02 -0.89434488387E+01  0.63744166984E+01  0.17161222600E+02  0.47000000000E+01 0.  1.
         13    1    6    6    0    0 -0.58585832705E+02 -0.20954394024E+02 -0.18024503126E+03  0.19068208547E+03  0.00000000000E+00 0. -1.
        -14    1    6    6    0    0 -0.68631547322E+02  0.61353243500E+02 -0.21377943361E+03  0.23275771955E+03  0.00000000000E+00 0.  1.
</event>
<event>
12    1  0.8053217E-002  0.1776098E+03  0.7818608E-02  0.1170573E+00
         21   -1    0    0  503  502  0.00000000000E+00  0.00000000000E+00  0.33107469481E+03  0.33107469481E+03  0.00000000000E+00 0. -1.
         21   -1    0    0  501  503 -0.00000000000E+00 -0.00000000000E+00 -0.12929234202E+03  0.12929234202E+03  0.00000000000E+00 0. -1.
          6    2    1    2  501    0 -0.98069658327E+01  0.39461836667E+02 -0.19161108124E+02  0.17688643486E+03  0.17107965875E+03 0.  0.
         24    2    3    3    0    0 -0.59004182943E+02  0.11166350220E+01 -0.46098713196E+02  0.10878030277E+03  0.78900712505E+02 0.  0.
         -6    2    1    2    0  502  0.98069658327E+01 -0.39461836667E+02  0.22094346091E+03  0.28348060197E+03  0.17289252629E+03 0.  0.
        -24    2    5    5    0    0 -0.19626034765E+02 -0.30850660744E+02  0.33698524237E+02  0.93682788015E+02  0.79397290417E+02 0.  0.
          5    1    3    3  501    0  0.49197217110E+02  0.38345201645E+02  0.26937605073E+02  0.68106132086E+02  0.47000000000E+01 0. -1.
        -13    1    4    4    0    0 -0.15777622708E+02 -0.89521052745E+00  0.22606908687E+02  0.27582731928E+02  0.00000000000E+00 0.  1.
         14    1    4    4    0    0 -0.43226560235E+02  0.20118455494E+01 -0.68705621883E+02  0.81197570842E+02  0.00000000000E+00 0. -1.
         -5    1    5    5    0  502  0.29433000598E+02 -0.86111759233E+01  0.18724493667E+03  0.18979781396E+03  0.47000000000E+01 0.  1.
         13    1    6    6    0    0  0.29609458652E+01 -0.20328852143E+02  0.56368851831E+02  0.59995640563E+02  0.00000000000E+00 0. -1.
        -14    1    6    6    0    0 -0.22586980630E+02 -0.10521808601E+02 -0.22670327594E+02  0.33687147452E+02  0.00000000000E+00 0.  1.
</event>
<event>
12    1  0.8053217E-002  0.3284080E+03  0.7818608E-02  0.1071899E+00
         21   -1    0    0  501  502  0.00000000000E+00  0.00000000000E+00  0.25621381737E+03  0.25621381737E+03  0.00000000000E+00 0.  1.
         21   -1    0    0  502  503 -0.00000000000E+00 -0.00000000000E+00 -0.48810352409E+03  0.48810352409E+03  0.00000000000E+00 0. -1.
         -6    2    1    2    0  503  0.18348199020E+03  0.21000653834E+03 -0.25456507345E+03  0.41512744753E+03  0.17250806995E+03 0.  0.
        -24    2    3    3    0    0  0.63041066161E+02  0.13021777025E+03 -0.66641533627E+02  0.17804178681E+03  0.79542065207E+02 0.  0.
          6    2    1    2  501    0 -0.18348199020E+03 -0.21000653834E+03  0.22675366732E+02  0.32918989392E+03  0.17344574693E+03 0.  0.
         24    2    5    5    0    0 -0.19073120794E+03 -0.17480370280E+03 -0.21476495543E+02  0.27206487549E+03  0.81383833906E+02 0.  0.
          5    1    5    5  501    0  0.72492177371E+01 -0.35202835540E+02  0.44151862275E+02  0.57125018427E+02  0.47000000000E+01 0. -1.
        -13    1    6    6    0    0 -0.73403729568E+02 -0.12121552784E+03 -0.19660891874E+02  0.14306593715E+03  0.00000000000E+00 0.  1.
         14    1    6    6    0    0 -0.11732747837E+03 -0.53588174965E+02 -0.18156036693E+01  0.12899893835E+03  0.00000000000E+00 0. -1.
         -5    1    3    3    0  503  0.12044092404E+03  0.79788768095E+02 -0.18792353982E+03  0.23708566072E+03  0.47000000000E+01 0.  1.
         13    1    4    4    0    0  0.73582869804E+01  0.77622446606E+02 -0.64867829754E+02  0.10142595300E+03  0.00000000000E+00 0. -1.
        -14    1    4    4    0    0  0.55682779181E+02  0.52595323640E+02 -0.17737038730E+01  0.76615833817E+02  0.00000000000E+00 0.  1.
</event>
<event>
12    1  0.8053217E-002  0.2651771E+03  0.7818608E-02  0.1104131E+00
         21   -1    0    0  503  502  0.00000000000E+00  0.00000000000E+00  0.65489471849E+03  0.65489471849E+03  0.00000000000E+00 0. -1.
         21   -1    0    0  501  503 -0.00000000000E+00 -0.00000000000E+00 -0.15199593098E+03  0.15199593098E+03  0.00000000000E+00 0. -1.
          6    2    1    2  501    0  0.13293930572E+03  0.15228421253E+03  0.47030873324E+03  0.53971843402E+03  0.17100392705E+03 0.  0.
         24    2    3    3    0    0  0.26568949231E+02  0.18492264614E+02  0.10138761970E+03  0.13309844425E+03  0.79924173559E+02 0.  0.
         -6    2    1    2    0  502 -0.13293930572E+03 -0.15228421253E+03  0.32590054274E+02  0.26717221546E+03  0.17162616550E+03 0.  0.
        -24    2    5    5    0    0 -0.53909181187E+02 -0.50868643499E+02 -0.41971144706E+02  0.11847002778E+03  0.82339248161E+02 0.  0.
          5    1    3    3  501    0  0.10637035649E+03  0.13379194792E+03  0.36892111353E+03  0.40661998977E+03  0.47000000000E+01 0. -1.
        -11    1    4    4    0    0 -0.14127646847E+02 -0.21589179882E+02  0.50001398421E+02  0.56265646157E+02  0.00000000000E+00 0.  1.
         12    1    4    4    0    0  0.40696596079E+02  0.40081444496E+02  0.51386221280E+02  0.76832798092E+02  0.00000000000E+00 0. -1.
         -5    1    5    5    0  502 -0.79030124530E+02 -0.10141556903E+03  0.74561198980E+02  0.14870218767E+03  0.47000000000E+01 0.  1.
         13    1    6    6    0    0 -0.46529131394E+02 -0.37600991678E+02  0.13188187665E+02  0.61259472226E+02  0.00000000000E+00 0. -1.
        -14    1    6    6    0    0 -0.73800497933E+01 -0.13267651820E+02 -0.55159332371E+02  0.57210555559E+02  0.00000000000E+00 0.  1.
</event>
<event>
12    1  0.8053217E-002  0.6640221E+03  0.7818608E-02  0.9780970E-01
         21   -1    0    0  501  502  0.00000000000E+00  0.00000000000E+00  0.10743655545E+04  0.10743655545E+04  0.00000000000E+00 0.  1.
         21   -1    0    0  502  503 -0.00000000000E+00 -0.00000000000E+00 -0.43103681010E+03  0.43103681010E+03  0.00000000000E+00 0. -1.
         -6    2    1    2    0  503  0.62546385392E+03  0.14264037570E+03  0.48723759128E+03  0.82360540799E+03  0.17138870548E+03 0.  0.
        -24    2    3    3    0    0  0.17265681062E+03  0.23755470821E+02  0.18537837257E+03  0.26655162513E+03  0.79435075363E+02 0.  0.
          6    2    1    2  501    0 -0.62546385392E+03 -0.14264037570E+03  0.15609115310E+03  0.68179695660E+03  0.17009212977E+03 0.  0.
         24    2    5    5    0    0 -0.36671601933E+03 -0.14793323794E+03  0.11561652093E+03  0.41980699087E+03  0.80658836757E+02 0.  0.
          5    1    5    5  501    0 -0.25874783459E+03  0.52928622387E+01  0.40474632168E+02  0.26198996573E+03  0.47000000000E+01 0. -1.
        -11    1    6    6    0    0 -0.30615345171E+03 -0.10532595454E+03  0.65309327961E+02  0.33028593826E+03  0.00000000000E+00 0.  1.
         12    1    6    6    0    0 -0.60562567624E+02 -0.42607283397E+02  0.50307192968E+02  0.89521052608E+02  0.00000000000E+00 0. -1.
         -5    1    3    3    0  503  0.45280704330E+03  0.11888490488E+03  0.30185921871E+03  0.55705378285E+03  0.47000000000E+01 0.  1.
         13    1    4    4    0    0 -0.46511247515E+00 -0.11605813360E+02  0.18024052224E+01  0.11754143862E+02  0.00000000000E+00 0. -1.
        -14    1    4    4    0    0  0.17312192310E+03  0.35361284181E+02  0.18357596734E+03  0.25479748127E+03  0.00000000000E+00 0.  1.
</event>
<event>
12    1  0.8053217E-002  0.2568935E+03  0.7818608E-02  0.1109050E+00
         21   -1    0    0  501  502  0.00000000000E+00  0.00000000000E+00  0.15527826089E+03  0.15527826089E+03  0.00000000000E+00 0.  1.
         21   -1    0    0  502  503 -0.00000000000E+00 -0.00000000000E+00 -0.43758405866E+03  0.43758405866E+03  0.00000000000E+00 0.  1.
         -6    2    1    2    0  503 -0.10643122675E+03  0.15924402208E+03 -0.19192039569E+03  0.32053201482E+03  0.17094171418E+03 0.  0.
        -24    2    3    3    0    0 -0.18928468587E+02  0.60208111098E+01 -0.70568472356E+02  0.10633009055E+03  0.77017152477E+02 0.  0.
          6    2    1    2  501    0  0.10643122675E+03 -0.15924402208E+03 -0.90385402074E+02  0.27233030473E+03  0.17119582172E+03 0.  0.
         24    2    5    5    0    0  0.47280363424E+01 -0.87533484175E+02 -0.14420991647E+01  0.11929782021E+03  0.80903801385E+02 0.  0.
          5    1    5    5  501    0  0.10170319041E+03 -0.71710537902E+02 -0.88943302910E+02  0.15303248452E+03  0.47000000000E+01 0. -1.
        -11    1    6    6    0    0  0.37575674782E+02 -0.18013058382E+02  0.57816267797E+01  0.42069333437E+02  0.00000000000E+00 0.  1.
         12    1    6    6    0    0 -0.32847638440E+02 -0.69520425793E+02 -0.72237259444E+01  0.77228486778E+02  0.00000000000E+00 0. -1.
         -5    1    3    3    0  503 -0.87502758162E+02  0.15322321097E+03 -0.12135192334E+03  0.21420192427E+03  0.47000000000E+01 0.  1.
         13    1    4    4    0    0  0.61182260344E+01  0.17617960506E+02  0.10002128540E+02  0.21162887268E+02  0.00000000000E+00 0. -1.
        -14    1    4    4    0    0 -0.25046694621E+02 -0.11597149396E+02 -0.80570600896E+02  0.85167203278E+02  0.00000000000E+00 0.  1.
</event>
<event>
12    1  0.8053217E-002  0.2121811E+03  0.7818608E-02  0.1140772E+00
         21   -1    0    0  503  502  0.00000000000E+00  0.00000000000E+00  0.23765318588E+02  0.23765318588E+02  0.00000000000E+00 0.  1.
         21   -1    0    0  501  503 -0.00000000000E+00 -0.00000000000E+00 -0.20226293441E+04  0.20226293441E+04  0.00000000000E+00 0. -1.
          6    2    1    2  501    0 -0.99752887892E+02 -0.64983215794E+02 -0.13059141211E+04  0.13230391118E+04  0.17563411621E+03 0.  0.
         24    2    3    3    0    0 -0.55480340753E+02 -0.10197594045E+03 -0.11050933397E+04  0.11140424699E+04  0.79888513537E+02 0.  0.
         -6    2    1    2    0  502  0.99752887892E+02  0.64983215794E+02 -0.69294990444E+03  0.72335555089E+03  0.16997125037E+03 0.  0.
        -24    2    5    5    0    0  0.98499648166E+01  0.79773533986E+02 -0.44451096832E+03  0.45869485476E+03  0.79687704814E+02 0.  0.
          5    1    3    3  501    0 -0.44272547139E+02  0.36992724654E+02 -0.20082078136E+03  0.20899664192E+03  0.47000000000E+01 0. -1.
        -13    1    4    4    0    0 -0.32734140119E+00  0.12868088744E+02 -0.74425428864E+02  0.75530386746E+02  0.00000000000E+00 0.  1.
         14    1    4    4    0    0 -0.55152999351E+02 -0.11484402919E+03 -0.10306679109E+04  0.10385120832E+04  0.00000000000E+00 0. -1.
         -5    1    5    5    0  502  0.89902923075E+02 -0.14790318192E+02 -0.24843893612E+03  0.26466069612E+03  0.47000000000E+01 0.  1.
         11    1    6    6    0    0 -0.18998748348E+02 -0.76672980422E+01 -0.10103671613E+03  0.10309295759E+03  0.00000000000E+00 0. -1.
        -12    1    6    6    0    0  0.28848713164E+02  0.87440832029E+02 -0.34347425219E+03  0.35560189717E+03  0.00000000000E+00 0.  1.
</event>
<event>
12    1  0.8053217E-002  0.2402522E+03  0.7818608E-02  0.1119955E+00
         21   -1    0    0  503  502  0.00000000000E+00  0.00000000000E+00  0.14287229551E+03  0.14287229551E+03  0.00000000000E+00 0. -1.
         21   -1    0    0  501  503 -0.00000000000E+00 -0.00000000000E+00 -0.40095290092E+03  0.40095290092E+03  0.00000000000E+00 0. -1.
          6    2    1    2  501    0  0.18318353580E+02 -0.16446910419E+03 -0.13649032228E+03  0.27631634087E+03  0.17417078931E+03 0.  0.
         24    2    3    3    0    0 -0.25006727695E+02 -0.22707449789E+02 -0.27600993206E+02  0.92326109310E+02  0.81371560931E+02 0.  0.
         -6    2    1    2    0  502 -0.18318353580E+02  0.16446910419E+03 -0.12159028314E+03  0.26750885555E+03  0.17143845115E+03 0.  0.
        -24    2    5    5    0    0 -0.72678479522E+02  0.83548353402E+02 -0.91662384304E+02  0.16542575053E+03  0.81860842298E+02 0.  0.
          5    1    3    3  501    0  0.43325081275E+02 -0.14176165440E+03 -0.10888932907E+03  0.18399023156E+03  0.47000000000E+01 0. -1.
        -13    1    4    4    0    0  0.20116604376E+02  0.15837220346E+02  0.26075722888E+01  0.25735087976E+02  0.00000000000E+00 0.  1.
         14    1    4    4    0    0 -0.45123332072E+02 -0.38544670134E+02 -0.30208565495E+02  0.66591021334E+02  0.00000000000E+00 0. -1.
         -5    1    5    5    0  502  0.54360125943E+02  0.80920750788E+02 -0.29927898832E+02  0.10208310501E+03  0.47000000000E+01 0.  1.
         11    1    6    6    0    0 -0.14181621555E+02  0.51688762804E+02 -0.18795809016E+01  0.53631888038E+02  0.00000000000E+00 0. -1.
        -12    1    6    6    0    0 -0.58496857968E+02  0.31859590598E+02 -0.89782803402E+02  0.11179386250E+03  0.00000000000E+00 0.  1.
</event>
<event>
12    1  0.8053217E-002  0.3425746E+03  0.7818608E-02  0.1065732E+00
         21   -1    0    0  503  502  0.00000000000E+00  0.00000000000E+00  0.17534894381E+04  0.17534894381E+04  0.00000000000E+00 0.  1.
         21   -1    0    0  501  503 -0.00000000000E+00 -0.00000000000E+00 -0.69865281687E+02  0.69865281687E+02  0.00000000000E+00 0. -1.
          6    2    1    2  501    0  0.20079886993E+03  0.21781800981E+03  0.65357527250E+03  0.73791460393E+03  0.17202457475E+03 0.  0.
         24    2    3    3    0    0  0.84255225311E+02  0.19070641597E+03  0.42879935752E+03  0.48323095394E+03  0.78583622660E+02 0.  0.
         -6    2    1    2    0  502 -0.20079886993E+03 -0.21781800981E+03  0.10300488839E+04  0.10854401158E+04  0.17150705607E+03 0.  0.
        -24    2    5    5    0    0 -0.63441467425E+02 -0.13952534486E+03  0.67937676506E+03  0.70074566262E+03  0.77456782294E+02 0.  0.
          5    1    3    3  501    0  0.11654364462E+03  0.27111593840E+02  0.22477591497E+03  0.25468364999E+03  0.47000000000E+01 0. -1.
        -13    1    4    4    0    0  0.82879238385E+02  0.13914738249E+03  0.25628566138E+03  0.30317206738E+03  0.00000000000E+00 0.  1.
         14    1    4    4    0    0  0.13759869268E+01  0.51559033474E+02  0.17251369614E+03  0.18005888656E+03  0.00000000000E+00 0. -1.
         -5    1    5    5    0  502 -0.13735740250E+03 -0.78292664947E+02  0.35067211881E+03  0.38469445319E+03  0.47000000000E+01 0.  1.
         11    1    6    6    0    0  0.39908765917E+00 -0.97340313361E+01  0.48457103127E+01  0.10880787906E+02  0.00000000000E+00 0. -1.
        -12    1    6    6    0    0 -0.63840555084E+02 -0.12979131353E+03  0.67453105475E+03  0.68986487471E+03  0.00000000000E+00 0.  1.
</event>
<event>
12    1  0.8053217E-002  0.2544417E+03  0.7818608E-02  0.1110849E+00
         21   -1    0    0  503  502  0.00000000000E+00  0.00000000000E+00  0.13837628351E+03  0.13837628351E+03  0.00000000000E+00 0.  1.
         21   -1    0    0  501  503 -0.00000000000E+00 -0.00000000000E+00 -0.46658594235E+03  0.46658594235E+03  0.00000000000E+00 0. -1.
          6    2    1    2  501    0 -0.83343289205E+02  0.16497238440E+03 -0.14259584857E+03  0.29167476237E+03  0.17486737691E+03 0.  0.
         24    2    3    3    0    0 -0.79366058711E+02  0.18209673283E+03 -0.83261462675E+02  0.22961252731E+03  0.79569153232E+02 0.  0.
         -6    2    1    2    0  502  0.83343289205E+02 -0.16497238440E+03 -0.18561381027E+03  0.31328746348E+03  0.17185620950E+03 0.  0.
        -24    2    5    5    0    0  0.22112548719E+02 -0.13873418702E+02 -0.76276345961E+02  0.11692842469E+03  0.84692024353E+02 0.  0.
          5    1    3    3  501    0 -0.39772304940E+01 -0.17124348433E+02 -0.59334385898E+02  0.62062235067E+02  0.47000000000E+01 0. -1.
        -11    1    4    4    0    0 -0.27603348321E+01  0.10477813793E+03 -0.34494458165E+02  0.11034466585E+03  0.00000000000E+00 0.  1.
         12    1    4    4    0    0 -0.76605723879E+02  0.77318594902E+02 -0.48767004510E+02  0.11926786146E+03  0.00000000000E+00 0. -1.
         -5    1    5    5    0  502  0.61230740486E+02 -0.15109896570E+03 -0.10933746431E+03  0.19635903880E+03  0.47000000000E+01 0.  1.
         13    1    6    6    0    0  0.43740603433E+02  0.74430839955E+01 -0.74246048318E+02  0.86493442404E+02  0.00000000000E+00 0. -1.
        -14    1    6    6    0    0 -0.21628054715E+02 -0.21316502697E+02 -0.20302976429E+01  0.30434982282E+02  0.00000000000E+00 0.  1.
</event>
<event>
12    1  0.8053217E-002  0.2074401E+03  0.7818608E-02  0.1143759E+00
         21   -1    0    0  503  502  0.00000000000E+00  0.00000000000E+00  0.42334698266E+03  0.42334698266E+03  0.00000000000E+00 0.  1.
         21   -1    0    0  501  503 -0.00000000000E+00 -0.00000000000E+00 -0.17550617996E+03  0.17550617996E+03  0.00000000000E+00 0. -1.
          6    2    1    2  501    0 -0.15536399770E+02  0.11433116779E+03 -0.70672813335E+02  0.21914843054E+03  0.17239023295E+03 0.  0.
         24    2    3    3    0    0 -0.50152889995E+02  0.10773849219E+03 -0.97713983809E+02  0.17448211585E+03  0.82298791287E+02 0.  0.
         -6    2    1    2    0  502  0.15536399770E+02 -0.11433116779E+03  0.31851361604E+03  0.37970473207E+03  0.17149858399E+03 0.  0.
        -24    2    5    5    0    0 -0.17738493881E+02  0.22275954646E+01  0.12748374537E+03  0.15341362458E+03  0.83450695193E+02 0.  0.
          5    1    3    3  501    0  0.34616490224E+02  0.65926756058E+01  0.27041170474E+02  0.44666314687E+02  0.47000000000E+01 0. -1.
        -11    1    4    4    0    0 -0.22867618791E+02 -0.90298461786E+01 -0.14845913055E+02  0.28720502183E+02  0.00000000000E+00 0.  1.
         12    1    4    4    0    0 -0.27285271204E+02  0.11676833837E+03 -0.82868070754E+02  0.14576161367E+03  0.00000000000E+00 0. -1.
         -5    1    5    5    0  502  0.33274893652E+02 -0.11655876326E+03  0.19102987067E+03  0.22629110749E+03  0.47000000000E+01 0.  1.
         11    1    6    6    0    0 -0.18379749618E+02 -0.37412927230E+02  0.41949385085E+02  0.59137917016E+02  0.00000000000E+00 0. -1.
        -12    1    6    6    0    0  0.64125573670E+00  0.39640522695E+02  0.85534360280E+02  0.94275707566E+02  0.00000000000E+00 0.  1.
</event>
<event>
12    1  0.8053217E-002  0.1762328E+03  0.7818608E-02  0.1172305E+00
         21   -1    0    0  501  502  0.00000000000E+00  0.00000000000E+00  0.60912225172E+02  0.60912225172E+02  0.00000000000E+00 0.  1.
         21   -1    0    0  502  503 -0.00000000000E+00 -0.00000000000E+00 -0.50895565956E+03  0.50895565956E+03  0.00000000000E+00 0.  1.
         -6    2    1    2    0  503  0.32326773756E+02  0.36036304341E+01 -0.18964774066E+03  0.25889044066E+03  0.17320504691E+03 0.  0.
        -24    2    3    3    0    0  0.38964400301E+02 -0.55810310987E+02 -0.16304121662E+03  0.19328501678E+03  0.78381401435E+02 0.  0.
          6    2    1    2  501    0 -0.32326773756E+02 -0.36036304341E+01 -0.25839569373E+03  0.31097744408E+03  0.16994301907E+03 0.  0.
         24    2    5    5    0    0 -0.34255334505E+02 -0.66711757523E+02 -0.15437051624E+03  0.18920025982E+03  0.79640413737E+02 0.  0.
          5    1    5    5  501    0  0.19285607488E+01  0.63108127088E+02 -0.10402517750E+03  0.12177718425E+03  0.47000000000E+01 0. -1.
        -13    1    6    6    0    0  0.22365591348E+01 -0.72386400764E+02 -0.10463736214E+03  0.12725474753E+03  0.00000000000E+00 0.  1.
         14    1    6    6    0    0 -0.36491893640E+02  0.56746432412E+01 -0.49733154095E+02  0.61945512296E+02  0.00000000000E+00 0. -1.
         -5    1    3    3    0  503 -0.66376265447E+01  0.59413941421E+02 -0.26606524040E+02  0.65605423883E+02  0.47000000000E+01 0.  1.
         13    1    4    4    0    0  0.61283045775E+02 -0.50634387074E+02 -0.11206959089E+03  0.13740104096E+03  0.00000000000E+00 0. -1.
        -14    1    4    4    0    0 -0.22318645474E+02 -0.51759239136E+01 -0.50971625727E+02  0.55883975819E+02  0.00000000000E+00 0.  1.
</event>
<event>
12    1  0.8053217E-002  0.1830176E+03  0.7818608E-02  0.1165027E+00
         21   -1    0    0  503  502  0.00000000000E+00  0.00000000000E+00  0.12510107606E+03  0.12510107606E+03  0.00000000000E+00 0.  1.
         21   -1    0    0  501  503 -0.00000000000E+00 -0.00000000000E+00 -0.46277813048E+03  0.46277813048E+03  0.00000000000E+00 0.  1.
          6    2    1    2  501    0 -0.45079833896E+02  0.40389773991E+02 -0.35987067710E+03  0.40352085099E+03  0.17221686236E+03 0.  0.
         24    2    3    3    0    0 -0.92274791317E+02  0.48255111593E+02 -0.29426457182E+03  0.32218525859E+03  0.79802943015E+02 0.  0.
         -6    2    1    2    0  502  0.45079833896E+02 -0.40389773991E+02  0.22193622675E+02  0.18435835555E+03  0.17271919728E+03 0.  0.
        -24    2    5    5    0    0 -0.35488959164E+02  0.43628469725E+01  0.20692260959E+02  0.92062789111E+02  0.82273244855E+02 0.  0.
          5    1    3    3  501    0  0.47194957421E+02 -0.78653376023E+01 -0.65606105276E+02  0.81335592400E+02  0.47000000000E+01 0. -1.
        -11    1    4    4    0    0 -0.77596975020E+02  0.48076302694E+02 -0.13941072155E+03  0.16663724283E+03  0.00000000000E+00 0.  1.
         12    1    4    4    0    0 -0.14677816297E+02  0.17880889915E+00 -0.15485385027E+03  0.15554801576E+03  0.00000000000E+00 0. -1.
         -5    1    5    5    0  502  0.80568793060E+02 -0.44752620963E+02  0.15013617162E+01  0.92295566444E+02  0.47000000000E+01 0.  1.
         11    1    6    6    0    0 -0.24747772976E+02 -0.38424143364E+01 -0.30299487227E+02  0.39309990351E+02  0.00000000000E+00 0. -1.
        -12    1    6    6    0    0 -0.10741186188E+02  0.82052613089E+01  0.50991748186E+02  0.52752798760E+02  0.00000000000E+00 0.  1.
</event>
<event>
12    1  0.8053217E-002  0.2048843E+03  0.7818608E-02  0.1146000E+00
         21   -1    0    0  503  502  0.00000000000E+00  0.00000000000E+00  0.10492836072E+03  0.10492836072E+03  0.00000000000E+00 0. -1.
         21   -1    0    0  501  503 -0.00000000000E+00 -0.00000000000E+00 -0.47579527323E+03  0.47579527323E+03  0.00000000000E+00 0. -1.
          6    2    1    2  501    0  0.39224654336E+02  0.99845403271E+02 -0.66715131930E+02  0.21400047701E+03  0.17273568614E+03 0.  0.
         24    2    3    3    0    0 -0.15950226291E+02  0.80289323120E+02  0.13617673571E+02  0.11449089273E+03  0.78879264441E+02 0.  0.
         -6    2    1    2    0  502 -0.39224654336E+02 -0.99845403271E+02 -0.30415178059E+03  0.36672315694E+03  0.17455626641E+03 0.  0.
        -24    2    5    5    0    0 -0.61421239641E+02 -0.47211581606E+02 -0.28563596573E+03  0.30649083188E+03  0.79669460864E+02 0.  0.
          5    1    3    3  501    0  0.55174880627E+02  0.19556080151E+02 -0.80332805501E+02  0.99509584276E+02  0.47000000000E+01 0. -1.
        -11    1    4    4    0    0  0.28689542343E+02  0.27716556824E+02  0.21083276932E+02  0.45119861793E+02  0.00000000000E+00 0.  1.
         12    1    4    4    0    0 -0.44639768634E+02  0.52572766296E+02 -0.74656033611E+01  0.69371030937E+02  0.00000000000E+00 0. -1.
         -5    1    5    5    0  502  0.22196585306E+02 -0.52633821666E+02 -0.18515814861E+02  0.60232325062E+02  0.47000000000E+01 0.  1.
         13    1    6    6    0    0 -0.12178416895E+02 -0.57312565539E+02 -0.12260522114E+03  0.13588629165E+03  0.00000000000E+00 0. -1.
        -14    1    6    6    0    0 -0.49242822746E+02  0.10100983934E+02 -0.16303074458E+03  0.17060454023E+03  0.00000000000E+00 0.  1.
</event>
<event>
12    1  0.8053217E-002  0.1846246E+03  0.7818608E-02  0.1163836E+00
         21   -1    0    0  503  502  0.00000000000E+00  0.00000000000E+00  0.11801999390E+02  0.11801999390E+02  0.00000000000E+00 0. -1.
         21   -1    0    0  501  503 -0.00000000000E+00 -0.00000000000E+00 -0.30411800559E+04  0.30411800559E+04  0.00000000000E+00 0. -1.
          6    2    1    2  501    0 -0.58462304872E+02 -0.28841697777E+02 -0.18808011859E+04  0.18896613501E+04  0.17075489026E+03 0.  0.
         24    2    3    3    0    0  0.30677480251E+02 -0.26178716864E+02 -0.10924756063E+04  0.10962936534E+04  0.82038960541E+02 0.  0.
         -6    2    1    2    0  502  0.58462304872E+02  0.28841697777E+02 -0.11485768707E+04  0.11633207053E+04  0.17273259915E+03 0.  0.
        -24    2    5    5    0    0  0.77547560695E+02  0.29795143307E+02 -0.45412228017E+03  0.46858735762E+03  0.80285064851E+02 0.  0.
          5    1    3    3  501    0 -0.89139785123E+02 -0.26629809138E+01 -0.78832557952E+03  0.79336769665E+03  0.47000000000E+01 0. -1.
        -13    1    4    4    0    0  0.24221186354E+02 -0.34983288677E+02 -0.23964376737E+03  0.24339193001E+03  0.00000000000E+00 0.  1.
         14    1    4    4    0    0  0.64562938969E+01  0.88045718130E+01 -0.85283183896E+03  0.85290172339E+03  0.00000000000E+00 0. -1.
         -5    1    5    5    0  502 -0.19085255822E+02 -0.95344552968E+00 -0.69445459050E+03  0.69473334764E+03  0.47000000000E+01 0.  1.
         11    1    6    6    0    0  0.20767495084E+02 -0.12376275658E+02 -0.27418449978E+03  0.27524825335E+03  0.00000000000E+00 0. -1.
        -12    1    6    6    0    0  0.56780065611E+02  0.42171418965E+02 -0.17993778038E+03  0.19333910427E+03  0.00000000000E+00 0.  1.
</event>
<event>
12    1  0.8053217E-002  0.1903269E+03  0.7818608E-02  0.1158306E+00
         21   -1    0    0  503  502  0.00000000000E+00  0.00000000000E+00  0.72034208470E+02  0.72034208470E+02  0.00000000000E+00 0.  1.
         21   -1    0    0  501  503 -0.00000000000E+00 -0.00000000000E+00 -0.70935332247E+03  0.70935332247E+03  0.00000000000E+00 0.  1.
          6    2    1    2  501    0  0.73669982116E+02  0.29386802600E+02 -0.52990855075E+03  0.56284376857E+03  0.17233451549E+03 0.  0.
         24    2    3    3    0    0  0.18591799786E+02  0.39749452652E+02 -0.47601688509E+03  0.48495030085E+03  0.81602974240E+02 0.  0.
         -6    2    1    2    0  502 -0.73669982116E+02 -0.29386802600E+02 -0.10741056325E+03  0.21854376237E+03  0.17301299530E+03 0.  0.
        -24    2    5    5    0    0 -0.55721823384E+02 -0.42923221814E+02 -0.14140338513E+03  0.17751970861E+03  0.81061736029E+02 0.  0.
          5    1    3    3  501    0  0.55078182329E+02 -0.10362650053E+02 -0.53891665662E+02  0.77893467715E+02  0.47000000000E+01 0. -1.
        -11    1    4    4    0    0  0.12958712679E+02 -0.13308614056E+02 -0.31030161486E+03  0.31085710484E+03  0.00000000000E+00 0.  1.
         12    1    4    4    0    0  0.56330871070E+01  0.53058066708E+02 -0.16571527022E+03  0.17409319601E+03  0.00000000000E+00 0. -1.
         -5    1    5    5    0  502 -0.17948158732E+02  0.13536419215E+02  0.33992821882E+02  0.41024053755E+02  0.47000000000E+01 0.  1.
         11    1    6    6    0    0  0.10499083714E+02 -0.13011270300E+02  0.19200766384E+01  0.16828862349E+02  0.00000000000E+00 0. -1.
        -12    1    6    6    0    0 -0.66220907098E+02 -0.29911951514E+02 -0.14332346177E+03  0.16069084627E+03  0.00000000000E+00 0.  1.
</event>
<event>
12    1  0.8053217E-002  0.2274572E+03  0.7818608E-02  0.1128459E+00
         21   -1    0    0  503  502  0.00000000000E+00  0.00000000000E+00  0.16394506200E+03  0.16394506200E+03  0.00000000000E+00 0.  1.
         21   -1    0    0  501  503 -0.00000000000E+00 -0.00000000000E+00 -0.31758792146E+03  0.31758792146E+03  0.00000000000E+00 0. -1.
          6    2    1    2  501    0 -0.79625646049E+02  0.12588188039E+03 -0.57068349504E+02  0.23450707125E+03  0.17190194482E+03 0.  0.
         24    2    3    3    0    0 -0.43896682568E+02  0.63602343122E+02  0.38699865045E+02  0.11472000804E+03  0.75437549666E+02 0.  0.
         -6    2    1    2    0  502  0.79625646049E+02 -0.12588188039E+03 -0.96574509954E+02  0.24702591222E+03  0.17178088954E+03 0.  0.
        -24    2    5    5    0    0  0.16394248011E+02 -0.14421468755E+03 -0.45986404118E+02  0.16386613848E+03  0.60586421773E+02 0.  0.
          5    1    3    3  501    0 -0.35728963481E+02  0.62279537272E+02 -0.95768214550E+02  0.11978706321E+03  0.47000000000E+01 0. -1.
        -11    1    4    4    0    0 -0.27222901509E+02  0.32010612661E+01  0.43996060736E+02  0.51836150707E+02  0.00000000000E+00 0.  1.
         12    1    4    4    0    0 -0.16673781059E+02  0.60401281856E+02 -0.52961956905E+01  0.62883857336E+02  0.00000000000E+00 0. -1.
         -5    1    5    5    0  502  0.63231398037E+02  0.18332807155E+02 -0.50588105836E+02  0.83159773737E+02  0.47000000000E+01 0.  1.
         11    1    6    6    0    0 -0.22907059414E+02 -0.58754769752E+02 -0.14899370859E+02  0.64798515350E+02  0.00000000000E+00 0. -1.
        -12    1    6    6    0    0  0.39301307426E+02 -0.85459917797E+02 -0.31087033260E+02  0.99067623128E+02  0.00000000000E+00 0.  1.
</event>
<event>
12    1  0.8053217E-002  0.2644934E+03  0.7818608E-02  0.1104636E+00
         21   -1    0    0  501  502  0.00000000000E+00  0.00000000000E+00  0.91494865769E+02  0.91494865769E+02  0.00000000000E+00 0. -1.
         21   -1    0    0  502  503 -0.00000000000E+00 -0.00000000000E+00 -0.14200775781E+04  0.14200775781E+04  0.00000000000E+00 0.  1.
         -6    2    1    2    0  503  0.19826451254E+03  0.24105209879E+02 -0.11782738633E+04  0.12073529146E+04  0.17170289825E+03 0.  0.
        -24    2    3    3    0    0  0.20682240283E+03  0.51672275669E+02 -0.11113607821E+04  0.11343280487E+04  0.78305833821E+02 0.  0.
          6    2    1    2  501    0 -0.19826451254E+03 -0.24105209879E+02 -0.15030884906E+03  0.30421952935E+03  0.17339807915E+03 0.  0.
         24    2    5    5    0    0 -0.45514390193E+02 -0.50466202528E+02 -0.93818795056E+02  0.13917190588E+03  0.77126232681E+02 0.  0.
          5    1    5    5  501    0 -0.15275012235E+03  0.26360992649E+02 -0.56490054007E+02  0.16504762347E+03  0.47000000000E+01 0. -1.
        -13    1    6    6    0    0 -0.63623987504E+02 -0.45417621564E+02 -0.53619276418E+02  0.94793454088E+02  0.00000000000E+00 0.  1.
         14    1    6    6    0    0  0.18109597310E+02 -0.50485809639E+01 -0.40199518638E+02  0.44378451789E+02  0.00000000000E+00 0. -1.
         -5    1    3    3    0  503 -0.85578902895E+01 -0.27567065790E+02 -0.66913081205E+02  0.73024865894E+02  0.47000000000E+01 0.  1.
         13    1    4    4    0    0  0.97975444277E+02  0.37262454037E+02 -0.35874306550E+03  0.37374358216E+03  0.00000000000E+00 0. -1.
        -14    1    4    4    0    0  0.10884695856E+03  0.14409821632E+02 -0.75261771659E+03  0.76058446650E+03  0.00000000000E+00 0.  1.
</event>
<event>
12    1  0.8053217E-002  0.1730078E+03  0.7818608E-02  0.1175293E+00
         21   -1    0    0  501  502  0.00000000000E+00  0.00000000000E+00  0.41910444880E+02  0.41910444880E+02  0.00000000000E+00 0. -1.
         21   -1    0    0  502  503 -0.00000000000E+00 -0.00000000000E+00 -0.70609360036E+03  0.70609360036E+03  0.00000000000E+00 0. -1.
         -6    2    1    2    0  503  0.17890403038E+02  0.18091658668E+02 -0.31844638635E+03  0.36139620374E+03  0.16897260272E+03 0.  0.
        -24    2    3    3    0    0  0.47730633203E+02  0.56601718202E+02 -0.17073333303E+03  0.20578547102E+03  0.87839747400E+02 0.  0.
          6    2    1    2  501    0 -0.17890403038E+02 -0.18091658668E+02 -0.34573676913E+03  0.38660784149E+03  0.17112666344E+03 0.  0.
         24    2    5    5    0    0 -0.54103960883E+02  0.28689126318E+02 -0.19569685836E+03  0.22525751320E+03  0.93238309341E+02 0.  0.
          5    1    5    5  501    0  0.36213557845E+02 -0.46780784986E+02 -0.15003991077E+03  0.16135032829E+03  0.47000000000E+01 0. -1.
        -11    1    6    6    0    0 -0.42064610740E+02 -0.29982678769E+02 -0.90288527038E+02  0.10402120273E+03  0.00000000000E+00 0.  1.
         12    1    6    6    0    0 -0.12039350143E+02  0.58671805087E+02 -0.10540833133E+03  0.12123631047E+03  0.00000000000E+00 0. -1.
         -5    1    3    3    0  503 -0.29840230165E+02 -0.38510059534E+02 -0.14771305331E+03  0.15561073273E+03  0.47000000000E+01 0.  1.
         13    1    4    4    0    0  0.30608148457E+02  0.17070597587E+02 -0.60554071337E+01  0.35565882661E+02  0.00000000000E+00 0. -1.
        -14    1    4    4    0    0  0.17122484746E+02  0.39531120615E+02 -0.16467792590E+03  0.17021958835E+03  0.00000000000E+00 0.  1.
</event>
<event>
12    1  0.8053217E-002  0.2072244E+03  0.7818608E-02  0.1144065E+00
         21   -1    0    0  503  502  0.00000000000E+00  0.00000000000E+00  0.54822957410E+02  0.54822957410E+02  0.00000000000E+00 0.  1.
         21   -1    0    0  501  503 -0.00000000000E+00 -0.00000000000E+00 -0.10856400388E+04  0.10856400388E+04  0.00000000000E+00 0.  1.
          6    2    1    2  501    0  0.16307671903E+00  0.11392235579E+03 -0.82019294236E+03  0.84596597567E+03  0.17310008540E+03 0.  0.
         24    2    3    3    0    0  0.51280118200E+02  0.97778471734E+02 -0.40328404586E+03  0.42559864238E+03  0.79409714106E+02 0.  0.
         -6    2    1    2    0  502 -0.16307671903E+00 -0.11392235579E+03 -0.21062413906E+03  0.29449702056E+03  0.17142822819E+03 0.  0.
        -24    2    5    5    0    0 -0.48809685825E+02 -0.11973960865E+03 -0.12848821391E+03  0.19874351823E+03  0.79182104126E+02 0.  0.
          5    1    3    3  501    0 -0.51117041481E+02  0.16143884058E+02 -0.41690889649E+03  0.42036733329E+03  0.47000000000E+01 0. -1.
        -13    1    4    4    0    0 -0.86988519161E+00  0.76833714352E+02 -0.18790945629E+03  0.20301266001E+03  0.00000000000E+00 0.  1.
         14    1    4    4    0    0  0.52150003392E+02  0.20944757382E+02 -0.21537458957E+03  0.22258598237E+03  0.00000000000E+00 0. -1.
         -5    1    5    5    0  502  0.48646609106E+02  0.58172528623E+01 -0.82135925148E+02  0.95753502329E+02  0.47000000000E+01 0.  1.
         11    1    6    6    0    0 -0.15371746700E+02  0.95381162601E+01 -0.15080808010E+02  0.23552006892E+02  0.00000000000E+00 0. -1.
        -12    1    6    6    0    0 -0.33437939124E+02 -0.12927772491E+03 -0.11340740590E+03  0.17519151134E+03  0.00000000000E+00 0.  1.
</event>
<event>
12    1  0.8053217E-002  0.1746582E+03  0.7818608E-02  0.1173358E+00
         21   -1    0    0  503  502  0.00000000000E+00  0.00000000000E+00  0.30920639673E+03  0.30920639673E+03  0.00000000000E+00 0. -1.
         21   -1    0    0  501  503 -0.00000000000E+00 -0.00000000000E+00 -0.12803448049E+03  0.12803448049E+03  0.00000000000E+00 0. -1.
          6    2    1    2  501    0 -0.22477720505E+02  0.16601990708E+02 -0.15475816351E+02  0.17422792077E+03  0.17127461420E+03 0.  0.
         24    2    3    3    0    0 -0.51579986426E+02  0.12455180782E+02 -0.65898533494E+02  0.11567300365E+03  0.78879658526E+02 0.  0.
         -6    2    1    2    0  502  0.22477720505E+02 -0.16601990708E+02  0.19664773259E+03  0.26301295645E+03  0.17240826695E+03 0.  0.
        -24    2    5    5    0    0  0.60812197401E+02  0.11913878739E+02  0.18816157132E+03  0.21426060407E+03  0.81625766013E+02 0.  0.
          5    1    3    3  501    0  0.29102265921E+02  0.41468099260E+01  0.50422717143E+02  0.58554917116E+02  0.47000000000E+01 0. -1.
        -11    1    4    4    0    0  0.11300405522E+02 -0.18874027381E+02 -0.28757137962E+02  0.36206367648E+02  0.00000000000E+00 0.  1.
         12    1    4    4    0    0 -0.62880391948E+02  0.31329208163E+02 -0.37141395532E+02  0.79466636004E+02  0.00000000000E+00 0. -1.
         -5    1    5    5    0  502 -0.38334476896E+02 -0.28515869447E+02  0.84861612743E+01  0.48752352378E+02  0.47000000000E+01 0.  1.
         11    1    6    6    0    0  0.60381235657E+02 -0.97345931365E+01  0.65157579616E+02  0.89365351812E+02  0.00000000000E+00 0. -1.
        -12    1    6    6    0    0  0.43096174386E+00  0.21648471876E+02  0.12300399170E+03  0.12489525226E+03  0.00000000000E+00 0.  1.
</event>
<event>
12    1  0.8053217E-002  0.1860889E+03  0.7818608E-02  0.1162237E+00
         21   -1    0    0  503  502  0.00000000000E+00  0.00000000000E+00  0.49832883603E+03  0.49832883603E+03  0.00000000000E+00 0. -1.
         21   -1    0    0  501  503 -0.00000000000E+00 -0.00000000000E+00 -0.14008684415E+03  0.14008684415E+03  0.00000000000E+00 0. -1.
          6    2    1    2  501    0 -0.64859948574E+02 -0.25854780298E+02 -0.47792294137E+02  0.19212806028E+03  0.17249291456E+03 0.  0.
         24    2    3    3    0    0 -0.37916435282E+02  0.31503624585E+02  0.25535484777E+02  0.95097175091E+02  0.77209308383E+02 0.  0.
         -6    2    1    2    0  502  0.64859948574E+02  0.25854780298E+02  0.40603428602E+03  0.44628761990E+03  0.17156198781E+03 0.  0.
        -24    2    5    5    0    0 -0.24588092530E+02  0.35427482572E+01  0.13467920046E+03  0.15966164186E+03  0.82074523969E+02 0.  0.
          5    1    3    3  501    0 -0.26943513292E+02 -0.57358404883E+02 -0.73327778913E+02  0.97030885184E+02  0.47000000000E+01 0. -1.
        -13    1    4    4    0    0 -0.47502566391E+02  0.13889191431E+02  0.45189023443E+02  0.67018290728E+02  0.00000000000E+00 0.  1.
         14    1    4    4    0    0  0.95861311091E+01  0.17614433154E+02 -0.19653538666E+02  0.28078884363E+02  0.00000000000E+00 0. -1.
         -5    1    5    5    0  502  0.89448041104E+02  0.22312032041E+02  0.27135508556E+03  0.28662597804E+03  0.47000000000E+01 0.  1.
         11    1    6    6    0    0  0.74450305643E+01  0.16550394833E+01 -0.93700359133E+01  0.12081606218E+02  0.00000000000E+00 0. -1.
        -12    1    6    6    0    0 -0.32033123094E+02  0.18877087739E+01  0.14404923638E+03  0.14758003564E+03  0.00000000000E+00 0.  1.
</event>
<event>
12    1  0.8053217E-002  0.4079472E+03  0.7818608E-02  0.1041076E+00
         21   -1    0    0  501  502  0.00000000000E+00  0.00000000000E+00  0.17467353910E+04  0.17467353910E+04  0.00000000000E+00 0. -1.
         21   -1    0    0  502  503 -0.00000000000E+00 -0.00000000000E+00 -0.14417204153E+03  0.14417204153E+03  0.00000000000E+00 0.  1.
         -6    2    1    2    0  503 -0.21944121078E+03  0.29769108723E+03  0.13522116828E+04  0.14124083415E+04  0.17218147315E+03 0.  0.
        -24    2    3    3    0    0 -0.14036022812E+03  0.25900890080E+03  0.86376421847E+03  0.91606861031E+03  0.79413282037E+02 0.  0.
          6    2    1    2  501    0  0.21944121078E+03 -0.29769108723E+03  0.25035166664E+03  0.47849909098E+03  0.17178764414E+03 0.  0.
         24    2    5    5    0    0  0.22151026612E+03 -0.19634274441E+03  0.18965676079E+03  0.36025472885E+03  0.78717923387E+02 0.  0.
          5    1    5    5  501    0 -0.20690553387E+01 -0.10134834282E+03  0.60694905846E+02  0.11824436214E+03  0.47000000000E+01 0. -1.
        -13    1    6    6    0    0  0.95062597810E+02 -0.10189391347E+03  0.45754298711E+02  0.14667216148E+03  0.00000000000E+00 0.  1.
         14    1    6    6    0    0  0.12644766831E+03 -0.94448830943E+02  0.14390246208E+03  0.21358256736E+03  0.00000000000E+00 0. -1.
         -5    1    3    3    0  503 -0.79080982664E+02  0.38682186431E+02  0.48844746433E+03  0.49633973120E+03  0.47000000000E+01 0.  1.
         11    1    4    4    0    0 -0.87665849928E+02  0.81333072163E+02  0.35517352026E+03  0.37476472535E+03  0.00000000000E+00 0. -1.
        -12    1    4    4    0    0 -0.52694378189E+02  0.17767582863E+03  0.50859069820E+03  0.54130388496E+03  0.00000000000E+00 0.  1.
</event>
<event>
12    1  0.8053217E-002  0.1955868E+03  0.7818608E-02  0.1153526E+00
         21   -1    0    0  503  502  0.00000000000E+00  0.00000000000E+00  0.48886909821E+03  0.48886909821E+03  0.00000000000E+00 0.  1.
         21   -1    0    0  501  503 -0.00000000000E+00 -0.00000000000E+00 -0.78261244367E+02  0.78261244367E+02  0.00000000000E+00 0. -1.
          6    2    1    2  501    0  0.66632667334E+02 -0.64289437462E+02  0.21065271860E+03  0.28745221100E+03  0.17228221507E+03 0.  0.
         24    2    3    3    0    0  0.26272981265E+02 -0.60022780447E+02  0.37209647652E+02  0.10926215100E+03  0.79124307554E+02 0.  0.
         -6    2    1    2    0  502 -0.66632667334E+02  0.64289437462E+02  0.19995513524E+03  0.27967813158E+03  0.17223459887E+03 0.  0.
        -24    2    5    5    0    0 -0.84765677684E+02  0.79376873584E+02  0.89940625323E+02  0.16706499209E+03  0.79595774542E+02 0.  0.
          5    1    3    3  501    0  0.40359686069E+02 -0.42666570152E+01  0.17344307095E+03  0.17819006000E+03  0.47000000000E+01 0. -1.
        -13    1    4    4    0    0  0.30415969697E+02  0.92263345823E+01  0.20766426972E+02  0.37967103545E+02  0.00000000000E+00 0.  1.
         14    1    4    4    0    0 -0.41429884317E+01 -0.69249115029E+02  0.16443220680E+02  0.71295047456E+02  0.00000000000E+00 0. -1.
         -5    1    5    5    0  502  0.18133010350E+02 -0.15087436122E+02  0.11001450992E+03  0.11261313949E+03  0.47000000000E+01 0.  1.
         11    1    6    6    0    0 -0.61828903330E+02  0.57516765722E+02  0.15088279797E+02  0.85782561242E+02  0.00000000000E+00 0. -1.
        -12    1    6    6    0    0 -0.22936774354E+02  0.21860107862E+02  0.74852345526E+02  0.81282430847E+02  0.00000000000E+00 0.  1.
</event>
<event>
12    1  0.8053217E-002  0.3228518E+03  0.7818608E-02  0.1074440E+00
         21   -1    0    0  501  502  0.00000000000E+00  0.00000000000E+00  0.49329929139E+03  0.49329929139E+03  0.00000000000E+00 0.  1.
         21   -1    0    0  502  503 -0.00000000000E+00 -0.00000000000E+00 -0.36184277382E+03  0.36184277382E+03  0.00000000000E+00 0. -1.
         -6    2    1    2    0  503  0.22743286302E+03  0.15196111046E+03 -0.21061340676E+03  0.38477502936E+03  0.16992919067E+03 0.  0.
        -24    2    3    3    0    0  0.22127738508E+03  0.11524867429E+03 -0.22370229770E+03  0.34503711365E+03  0.82231099526E+02 0.  0.
          6    2    1    2  501    0 -0.22743286302E+03 -0.15196111046E+03  0.34206992432E+03  0.47036703585E+03  0.17150926801E+03 0.  0.
         24    2    5    5    0    0 -0.82455254967E+02 -0.69733746461E+01  0.15294482759E+03  0.19138613581E+03  0.79931443545E+02 0.  0.
          5    1    5    5  501    0 -0.14497760805E+03 -0.14498773582E+03  0.18912509673E+03  0.27898090004E+03  0.47000000000E+01 0. -1.
        -11    1    6    6    0    0 -0.93228686757E+02 -0.19812069768E+01  0.15338267934E+03  0.17950420479E+03  0.00000000000E+00 0.  1.
         12    1    6    6    0    0  0.10773431790E+02 -0.49921676693E+01 -0.43785174962E+00  0.11881931019E+02  0.00000000000E+00 0. -1.
         -5    1    3    3    0  503  0.61554779368E+01  0.36712436178E+02  0.13088890942E+02  0.39737915708E+02  0.47000000000E+01 0.  1.
         13    1    4    4    0    0  0.16377488403E+03  0.11168119673E+03 -0.20322508262E+03  0.28389317806E+03  0.00000000000E+00 0. -1.
        -14    1    4    4    0    0  0.57502501046E+02  0.35674775591E+01 -0.20477215086E+02  0.61143935598E+02  0.00000000000E+00 0.  1.
</event>
<event>
12    1  0.8053217E-002  0.2039252E+03  0.7818608E-02  0.1146788E+00
         21   -1    0    0  501  502  0.00000000000E+00  0.00000000000E+00  0.33160000082E+03  0.33160000082E+03  0.00000000000E+00 0. -1.
         21   -1    0    0  502  503 -0.00000000000E+00 -0.00000000000E+00 -0.12469041760E+03  0.12469041760E+03  0.00000000000E+00 0. -1.
         -6    2    1    2    0  503 -0.57747092391E+02 -0.93571389645E+02  0.11362588059E+03  0.23344445029E+03  0.17174148884E+03 0.  0.
        -24    2    3    3    0    0 -0.24070091580E+02  0.14402780045E+02  0.77295815317E+02  0.11455574037E+03  0.79759420783E+02 0.  0.
          6    2    1    2  501    0  0.57747092391E+02  0.93571389645E+02  0.93283702632E+02  0.22284596813E+03  0.16990628209E+03 0.  0.
         24    2    5    5    0    0  0.28017931544E+02 -0.64582834685E+01  0.78525138404E+02  0.11734874672E+03  0.82327498937E+02 0.  0.
          5    1    5    5  501    0  0.29729160847E+02  0.10002967311E+03  0.14758564228E+02  0.10549722141E+03  0.47000000000E+01 0. -1.
        -13    1    6    6    0    0  0.10193391036E+02 -0.94215119636E+01  0.93103093316E+02  0.94132120414E+02  0.00000000000E+00 0.  1.
         14    1    6    6    0    0  0.17824540509E+02  0.29632284951E+01 -0.14577954913E+02  0.23216626303E+02  0.00000000000E+00 0. -1.
         -5    1    3    3    0  503 -0.33677000811E+02 -0.10797416969E+03  0.36330065270E+02  0.11888870992E+03  0.47000000000E+01 0.  1.
         13    1    4    4    0    0 -0.40798729694E+02 -0.20534203719E+02  0.45071650434E+02  0.64168867373E+02  0.00000000000E+00 0. -1.
        -14    1    4    4    0    0  0.16728638114E+02  0.34936983764E+02  0.32224164882E+02  0.50386872993E+02  0.00000000000E+00 0.  1.
</event>
<event>
12    1  0.8053217E-002  0.2056772E+03  0.7818608E-02  0.1145668E+00
         21   -1    0    0  503  502  0.00000000000E+00  0.00000000000E+00  0.57689700260E+03  0.57689700260E+03  0.00000000000E+00 0.  1.
         21   -1    0    0  501  503 -0.00000000000E+00 -0.00000000000E+00 -0.10439095817E+03  0.10439095817E+03  0.00000000000E+00 0.  1.
          6    2    1    2  501    0  0.10779849620E+03 -0.11717556977E+02  0.42654763254E+03  0.47354620838E+03  0.17477217090E+03 0.  0.
         24    2    3    3    0    0  0.93257124264E+02  0.35681496941E+02  0.39304077182E+03  0.41352186727E+03  0.80927288031E+02 0.  0.
         -6    2    1    2    0  502 -0.10779849620E+03  0.11717556977E+02  0.45958411887E+02  0.20774175238E+03  0.17113340742E+03 0.  0.
        -24    2    5    5    0    0 -0.94784209521E+02  0.61899597229E+02  0.57669718298E+02  0.15438583875E+03  0.87713079330E+02 0.  0.
          5    1    3    3  501    0  0.14541371936E+02 -0.47399053919E+02  0.33506860721E+02  0.60024341108E+02  0.47000000000E+01 0. -1.
        -13    1    4    4    0    0  0.56977221450E+02 -0.12055678848E+02  0.11289582769E+03  0.12703232292E+03  0.00000000000E+00 0.  1.
         14    1    4    4    0    0  0.36279902814E+02  0.47737175790E+02  0.28014494413E+03  0.28648954435E+03  0.00000000000E+00 0. -1.
         -5    1    5    5    0  502 -0.13014286679E+02 -0.50182040252E+02 -0.11711306412E+02  0.53355913632E+02  0.47000000000E+01 0.  1.
         13    1    6    6    0    0 -0.32873371108E+02 -0.21500402763E+02  0.13801667927E+02  0.41634263348E+02  0.00000000000E+00 0. -1.
        -14    1    6    6    0    0 -0.61910838413E+02  0.83399999992E+02  0.43868050372E+02  0.11275157540E+03  0.00000000000E+00 0.  1.
</event>
<event>
12    1  0.8053217E-002  0.2053047E+03  0.7818608E-02  0.1145600E+00
         21   -1    0    0  503  502  0.00000000000E+00  0.00000000000E+00  0.20862881513E+04  0.20862881513E+04  0.00000000000E+00 0.  1.
         21   -1    0    0  501  503 -0.00000000000E+00 -0.00000000000E+00 -0.29657373178E+02  0.29657373178E+02  0.00000000000E+00 0. -1.
          6    2    1    2  501    0  0.50953653179E+02  0.99665255407E+02  0.16317515451E+04  0.16446164013E+04  0.17210625920E+03 0.  0.
         24    2    3    3    0    0  0.53825240138E+02  0.32031457757E+01  0.54858931393E+03  0.55715343930E+03  0.81008042480E+02 0.  0.
         -6    2    1    2    0  502 -0.50953653179E+02 -0.99665255407E+02  0.42487923301E+03  0.47132912320E+03  0.17058529195E+03 0.  0.
        -24    2    5    5    0    0 -0.86061080946E+02 -0.23958787299E+02  0.22785042691E+03  0.25730472919E+03  0.79431564763E+02 0.  0.
          5    1    3    3  501    0 -0.28715869590E+01  0.96462109631E+02  0.10831622312E+04  0.10874629620E+04  0.47000000000E+01 0. -1.
        -11    1    4    4    0    0  0.44959805384E+01 -0.30835758213E+02  0.29197366161E+03  0.29363187310E+03  0.00000000000E+00 0.  1.
         12    1    4    4    0    0  0.49329259600E+02  0.34038903988E+02  0.25661565232E+03  0.26352156621E+03  0.00000000000E+00 0. -1.
         -5    1    5    5    0  502  0.35107427766E+02 -0.75706468107E+02  0.19702880610E+03  0.21402439401E+03  0.47000000000E+01 0.  1.
         11    1    6    6    0    0 -0.45259808665E+02  0.15798619640E+01  0.31562206673E+02  0.55200716791E+02  0.00000000000E+00 0. -1.
        -12    1    6    6    0    0 -0.40801272281E+02 -0.25538649263E+02  0.19628822024E+03  0.20210401240E+03  0.00000000000E+00 0.  1.
</event>
<event>
12    1  0.8053217E-002  0.1752296E+03  0.7818608E-02  0.1173355E+00
         21   -1    0    0  501  502  0.00000000000E+00  0.00000000000E+00  0.15791600312E+03  0.15791600312E+03  0.00000000000E+00 0. -1.
         21   -1    0    0  502  503 -0.00000000000E+00 -0.00000000000E+00 -0.22572545426E+03  0.22572545426E+03  0.00000000000E+00 0. -1.
         -6    2    1    2    0  503 -0.18990068554E+02 -0.79902892402E+01 -0.10916556110E+03  0.20359778584E+03  0.17061791008E+03 0.  0.
        -24    2    3    3    0    0  0.45960261563E+02 -0.59123903147E+01 -0.22729700948E+02  0.95356800223E+02  0.80180908210E+02 0.  0.
          6    2    1    2  501    0  0.18990068554E+02  0.79902892402E+01  0.41356109962E+02  0.18004367155E+03  0.17401416151E+03 0.  0.
         24    2    5    5    0    0 -0.17327543632E+02  0.32771185263E+02 -0.33047801374E+02  0.93492566501E+02  0.79211794976E+02 0.  0.
          5    1    5    5  501    0  0.36317612186E+02 -0.24780896022E+02  0.74403911336E+02  0.86551105046E+02  0.47000000000E+01 0. -1.
        -13    1    6    6    0    0 -0.33397631291E+02  0.20298279812E+02  0.14571366102E+02  0.41710270309E+02  0.00000000000E+00 0.  1.
         14    1    6    6    0    0  0.16070087659E+02  0.12472905450E+02 -0.47619167476E+02  0.51782296192E+02  0.00000000000E+00 0. -1.
         -5    1    3    3    0  503 -0.64950330117E+02 -0.20778989255E+01 -0.86435860153E+02  0.10824098561E+03  0.47000000000E+01 0.  1.
         13    1    4    4    0    0  0.31938072552E+01 -0.37627382864E+02 -0.79073226188E+00  0.37770962438E+02  0.00000000000E+00 0. -1.
        -14    1    4    4    0    0  0.42766454308E+02  0.31714992549E+02 -0.21938968686E+02  0.57585837785E+02  0.00000000000E+00 0.  1.
</event>
<event>
12    1  0.8053217E-002  0.2056272E+03  0.7818608E-02  0.1145087E+00
         21   -1    0    0  501  502  0.00000000000E+00  0.00000000000E+00  0.39717950348E+02  0.39717950348E+02  0.00000000000E+00 0. -1.
         21   -1    0    0  502  503 -0.00000000000E+00 -0.00000000000E+00 -0.18455584998E+04  0.18455584998E+04  0.00000000000E+00 0.  1.
         -6    2    1    2    0  503  0.31410083665E+02  0.10727600418E+03 -0.15162966507E+04  0.15301758369E+04  0.17259149608E+03 0.  0.
        -24    2    3    3    0    0  0.45209672378E+02  0.59439098130E+02 -0.46701331837E+03  0.47970146801E+03  0.80219311935E+02 0.  0.
          6    2    1    2  501    0 -0.31410083665E+02 -0.10727600418E+03 -0.28954389881E+03  0.35510061330E+03  0.17252837968E+03 0.  0.
         24    2    5    5    0    0 -0.69938137085E+02 -0.37538478552E+02 -0.22759341517E+03  0.25406752067E+03  0.80318503730E+02 0.  0.
          5    1    5    5  501    0  0.38528053420E+02 -0.69737525631E+02 -0.61950483646E+02  0.10103309263E+03  0.47000000000E+01 0. -1.
        -13    1    6    6    0    0 -0.26510852539E+01  0.15450998966E+02 -0.65112325443E+01  0.16975210494E+02  0.00000000000E+00 0.  1.
         14    1    6    6    0    0 -0.67287051831E+02 -0.52989477518E+02 -0.22108218262E+03  0.23709231018E+03  0.00000000000E+00 0. -1.
         -5    1    3    3    0  503 -0.13799588713E+02  0.47836906053E+02 -0.10492833323E+04  0.10504743689E+04  0.47000000000E+01 0.  1.
         11    1    4    4    0    0 -0.19289252312E+02  0.33207049648E+02 -0.12918561516E+03  0.13477279609E+03  0.00000000000E+00 0. -1.
        -12    1    4    4    0    0  0.64498924690E+02  0.26232048482E+02 -0.33782770321E+03  0.34492867191E+03  0.00000000000E+00 0.  1.
</event>
<event>
12    1  0.8053217E-002  0.2674008E+03  0.7818608E-02  0.1102853E+00
         21   -1    0    0  501  502  0.00000000000E+00  0.00000000000E+00  0.18093497535E+03  0.18093497535E+03  0.00000000000E+00 0.  1.
         21   -1    0    0  502  503 -0.00000000000E+00 -0.00000000000E+00 -0.49219488961E+03  0.49219488961E+03  0.00000000000E+00 0.  1.
         -6    2    1    2    0  503  0.17445692087E+03 -0.10625068421E+03 -0.57365358947E+01  0.26746233930E+03  0.17256526292E+03 0.  0.
        -24    2    3    3    0    0  0.40619774225E+02 -0.21829831432E+02 -0.50829238199E+02  0.10285764919E+03  0.76613164286E+02 0.  0.
          6    2    1    2  501    0 -0.17445692087E+03  0.10625068421E+03 -0.30552337837E+03  0.40566752567E+03  0.17174743525E+03 0.  0.
         24    2    5    5    0    0 -0.81650671767E+02  0.82579181332E+02 -0.26012975992E+03  0.29957317842E+03  0.92684647304E+02 0.  0.
          5    1    5    5  501    0 -0.92806249101E+02  0.23671502879E+02 -0.45393618450E+02  0.10609434724E+03  0.47000000000E+01 0. -1.
        -13    1    6    6    0    0 -0.66790135616E+02  0.28949916981E+02 -0.21783130134E+03  0.22967258381E+03  0.00000000000E+00 0.  1.
         14    1    6    6    0    0 -0.14860536152E+02  0.53629264351E+02 -0.42298458577E+02  0.69900594615E+02  0.00000000000E+00 0. -1.
         -5    1    3    3    0  503  0.13383714664E+03 -0.84420852779E+02  0.45092702305E+02  0.16460469011E+03  0.47000000000E+01 0.  1.
         13    1    4    4    0    0  0.30465303331E+02  0.24848363733E+02 -0.11445372725E+02  0.40945969815E+02  0.00000000000E+00 0. -1.
        -14    1    4    4    0    0  0.10154470894E+02 -0.46678195165E+02 -0.39383865474E+02  0.61911679373E+02  0.00000000000E+00 0.  1.
</event>
<event>
12    1  0.8053217E-002  0.3145587E+03  0.7818608E-02  0.1078589E+00
         21   -1    0    0  501  502  0.00000000000E+00  0.00000000000E+00  0.37314751064E+03  0.37314751064E+03  0.00000000000E+00 0.  1.
         21   -1    0    0  502  503 -0.00000000000E+00 -0.00000000000E+00 -0.44735338676E+03  0.44735338676E+03  0.00000000000E+00 0. -1.
         -6    2    1    2    0  503  0.94521415545E+02 -0.23893666684E+03 -0.30110214516E+03  0.43544192304E+03  0.18144458594E+03 0.  0.
        -24    2    3    3    0    0  0.12918890200E+02 -0.19263294001E+03 -0.25769884781E+03  0.33195789779E+03  0.80703174939E+02 0.  0.
          6    2    1    2  501    0 -0.94521415545E+02  0.23893666684E+03  0.22689626905E+03  0.38505897436E+03  0.17539517688E+03 0.  0.
         24    2    5    5    0    0 -0.29750910098E+02  0.45713885493E+01  0.27188827629E+02  0.70372695347E+02  0.57507127015E+02 0.  0.
          5    1    5    5  501    0 -0.64770505446E+02  0.23436527829E+03  0.19970744142E+03  0.31468627901E+03  0.47000000000E+01 0. -1.
        -13    1    6    6    0    0 -0.33694183946E+02  0.26133512495E+02  0.14465233668E+02  0.45027785779E+02  0.00000000000E+00 0.  1.
         14    1    6    6    0    0  0.39432738480E+01 -0.21562123945E+02  0.12723593962E+02  0.25344909567E+02  0.00000000000E+00 0. -1.
         -5    1    3    3    0  503  0.81602525345E+02 -0.46303726829E+02 -0.43403297352E+02  0.10348402525E+03  0.47000000000E+01 0.  1.
         11    1    4    4    0    0  0.44489549397E+02 -0.84177674112E+02 -0.13480705525E+03  0.16503982238E+03  0.00000000000E+00 0. -1.
        -12    1    4    4    0    0 -0.31570659198E+02 -0.10845526590E+03 -0.12289179255E+03  0.16691807541E+03  0.00000000000E+00 0.  1.
</event>
<event>
12    1  0.8053217E-002  0.3260819E+03  0.7818608E-02  0.1072979E+00
         21   -1    0    0  501  502  0.00000000000E+00  0.00000000000E+00  0.12834931110E+04  0.12834931110E+04  0.00000000000E+00 0.  1.
         21   -1    0    0  502  503 -0.00000000000E+00 -0.00000000000E+00 -0.20381584449E+03  0.20381584449E+03  0.00000000000E+00 0.  1.
         -6    2    1    2    0  503  0.27345072451E+03 -0.28180645657E+02 -0.33306448673E+02  0.32777842165E+03  0.17538508105E+03 0.  0.
        -24    2    3    3    0    0  0.16819405909E+03  0.48495121783E+02  0.35694035912E+01  0.19235295356E+03  0.79661155850E+02 0.  0.
          6    2    1    2  501    0 -0.27345072451E+03  0.28180645657E+02  0.11129837152E+04  0.11595305339E+04  0.17380696507E+03 0.  0.
         24    2    5    5    0    0 -0.20459537537E+03  0.49900302498E+02  0.10034847577E+04  0.10282868129E+04  0.77735466968E+02 0.  0.
          5    1    5    5  501    0 -0.68855349142E+02 -0.21719656841E+02  0.10949895756E+03  0.13124372101E+03  0.47000000000E+01 0. -1.
        -11    1    6    6    0    0 -0.12990379148E+03  0.59884056142E+02  0.53557629775E+03  0.55434922742E+03  0.00000000000E+00 0.  1.
         12    1    6    6    0    0 -0.74691583889E+02 -0.99837536434E+01  0.46790845991E+03  0.47393758545E+03  0.00000000000E+00 0. -1.
         -5    1    3    3    0  503  0.10525666541E+03 -0.76675767440E+02 -0.36875852264E+02  0.13542546809E+03  0.47000000000E+01 0.  1.
         11    1    4    4    0    0  0.34712539918E+02  0.46764370518E+02  0.80005223663E+01  0.58786691824E+02  0.00000000000E+00 0. -1.
        -12    1    4    4    0    0  0.13348151918E+03  0.17307512652E+01 -0.44311187751E+01  0.13356626174E+03  0.00000000000E+00 0.  1.
</event>
<event>
12    1  0.8053217E-002  0.2190252E+03  0.7818608E-02  0.1134798E+00
         21   -1    0    0  501  502  0.00000000000E+00  0.00000000000E+00  0.38316317522E+03  0.38316317522E+03  0.00000000000E+00 0.  1.
         21   -1    0    0  502  503 -0.00000000000E+00 -0.00000000000E+00 -0.20040658121E+03  0.20040658121E+03  0.00000000000E+00 0. -1.
         -6    2    1    2    0  503 -0.12896203832E+03  0.40462071313E+02 -0.87910137089E+02  0.23600897837E+03  0.17234749527E+03 0.  0.
        -24    2    3    3    0    0 -0.84810524644E+02  0.82794179012E+02 -0.95505074633E+02  0.17419363579E+03  0.84702433844E+02 0.  0.
          6    2    1    2  501    0  0.12896203832E+03 -0.40462071313E+02  0.27066673110E+03  0.34756077806E+03  0.17108368881E+03 0.  0.
         24    2    5    5    0    0  0.20863021731E+02 -0.39332830069E+02  0.50815529489E+02  0.10252340657E+03  0.77113511535E+02 0.  0.
          5    1    5    5  501    0  0.10809901659E+03 -0.11292412433E+01  0.21985120161E+03  0.24503737148E+03  0.47000000000E+01 0. -1.
        -11    1    6    6    0    0 -0.20027838506E+02 -0.11452187621E+02  0.47637510291E+02  0.52930136059E+02  0.00000000000E+00 0.  1.
         12    1    6    6    0    0  0.40890860237E+02 -0.27880642448E+02  0.31780191980E+01  0.49593270514E+02  0.00000000000E+00 0. -1.
         -5    1    3    3    0  503 -0.44151513675E+02 -0.42332107700E+02  0.75949375440E+01  0.61815342581E+02  0.47000000000E+01 0.  1.
         11    1    4    4    0    0 -0.79345176941E+02  0.31133390733E+02 -0.86558676352E+02  0.12147983196E+03  0.00000000000E+00 0. -1.
        -12    1    4    4    0    0 -0.54653477025E+01  0.51660788279E+02 -0.89463982814E+01  0.52713803822E+02  0.00000000000E+00 0.  1.
</event>
<event>
12    1  0.8053217E-002  0.2468439E+03  0.7818608E-02  0.1115370E+00
         21   -1    0    0  501  502  0.00000000000E+00  0.00000000000E+00  0.16975279933E+04  0.16975279933E+04  0.00000000000E+00 0.  1.
         21   -1    0    0  502  503 -0.00000000000E+00 -0.00000000000E+00 -0.10159499061E+03  0.10159499061E+03  0.00000000000E+00 0.  1.
         -6    2    1    2    0  503  0.17649574980E+03 -0.11962184863E+02  0.74102861197E+02  0.25740353129E+03  0.17167265454E+03 0.  0.
        -24    2    3    3    0    0  0.10365872193E+03 -0.31348728235E+02 -0.20561467660E+02  0.13630647992E+03  0.80179854828E+02 0.  0.
          6    2    1    2  501    0 -0.17649574980E+03  0.11962184863E+02  0.15218301415E+04  0.15417194526E+04  0.17215704299E+03 0.  0.
         24    2    5    5    0    0 -0.14980323053E+03 -0.48722723958E+02  0.12112731437E+04  0.12241302721E+04  0.80606343137E+02 0.  0.
          5    1    5    5  501    0 -0.26692519274E+02  0.60684908821E+02  0.31055699772E+03  0.31758918051E+03  0.47000000000E+01 0. -1.
        -11    1    6    6    0    0 -0.11001917151E+03 -0.30615104072E+01  0.61323682175E+03  0.62303530437E+03  0.00000000000E+00 0.  1.
         12    1    6    6    0    0 -0.39784059020E+02 -0.45661213551E+02  0.59803632199E+03  0.60109496770E+03  0.00000000000E+00 0. -1.
         -5    1    3    3    0  503  0.72837027868E+02  0.19386543372E+02  0.94664328857E+02  0.12109705137E+03  0.47000000000E+01 0.  1.
         11    1    4    4    0    0  0.62467485990E+02 -0.47606780503E+02  0.14444680592E+02  0.79857630526E+02  0.00000000000E+00 0. -1.
        -12    1    4    4    0    0  0.41191235945E+02  0.16258052269E+02 -0.35006148253E+02  0.56448849392E+02  0.00000000000E+00 0.  1.
</event>
<event>
12    1  0.8053217E-002  0.1817623E+03  0.7818608E-02  0.1166922E+00
         21   -1    0    0  503  502  0.00000000000E+00  0.00000000000E+00  0.89026574191E+02  0.89026574191E+02  0.00000000000E+00 0. -1.
         21   -1    0    0  501  503 -0.00000000000E+00 -0.00000000000E+00 -0.37494620681E+03  0.37494620681E+03  0.00000000000E+00 0. -1.
          6    2    1    2  501    0 -0.53672675890E+02 -0.19052578762E+02 -0.18345092819E+03  0.25824752261E+03  0.17260875698E+03 0.  0.
         24    2    3    3    0    0 -0.95998098815E+02 -0.26474874120E+02 -0.95100519987E+02  0.15988891077E+03  0.81263773898E+02 0.  0.
         -6    2    1    2    0  502  0.53672675890E+02  0.19052578762E+02 -0.10246870442E+03  0.20572525838E+03  0.16905410275E+03 0.  0.
        -24    2    5    5    0    0 -0.16747534655E+02 -0.20514807491E+02 -0.22164349621E+02  0.91727611444E+02  0.84978580028E+02 0.  0.
          5    1    3    3  501    0  0.42325422925E+02  0.74222953584E+01 -0.88350408207E+02  0.98358611847E+02  0.47000000000E+01 0. -1.
        -13    1    4    4    0    0 -0.22702243485E+02 -0.68881067413E+01  0.13588328843E+02  0.27340090608E+02  0.00000000000E+00 0.  1.
         14    1    4    4    0    0 -0.73295855330E+02 -0.19586767379E+02 -0.10868884883E+03  0.13254882016E+03  0.00000000000E+00 0. -1.
         -5    1    5    5    0  502  0.70420210544E+02  0.39567386253E+02 -0.80304354800E+02  0.11399764694E+03  0.47000000000E+01 0.  1.
         11    1    6    6    0    0 -0.20031691928E+02  0.28525423899E+02  0.55605210767E+01  0.35297137061E+02  0.00000000000E+00 0. -1.
        -12    1    6    6    0    0  0.32841572730E+01 -0.49040231390E+02 -0.27724870698E+02  0.56430474382E+02  0.00000000000E+00 0.  1.
</event>
<event>
12    1  0.8053217E-002  0.1905584E+03  0.7818608E-02  0.1158250E+00
         21   -1    0    0  501  502  0.00000000000E+00  0.00000000000E+00  0.64327706098E+03  0.64327706098E+03  0.00000000000E+00 0.  1.
         21   -1    0    0  502  503 -0.00000000000E+00 -0.00000000000E+00 -0.10882284767E+03  0.10882284767E+03  0.00000000000E+00 0.  1.
         -6    2    1    2    0  503  0.17938837449E+02  0.78592104556E+02  0.49267839436E+01  0.18932836035E+03  0.17123794569E+03 0.  0.
        -24    2    3    3    0    0 -0.54849707323E+02  0.37400047692E+02 -0.77124040411E+01  0.10461238268E+03  0.80479907265E+02 0.  0.
          6    2    1    2  501    0 -0.17938837449E+02 -0.78592104556E+02  0.52952742937E+03  0.56277154830E+03  0.17266729956E+03 0.  0.
         24    2    5    5    0    0 -0.56350866655E+02 -0.99847901727E+02  0.31395688705E+03  0.34272600388E+03  0.75810046576E+02 0.  0.
          5    1    5    5  501    0  0.38412029206E+02  0.21255797171E+02  0.21557054232E+03  0.22004554442E+03  0.47000000000E+01 0. -1.
        -13    1    6    6    0    0 -0.19890492624E+02 -0.33645089283E+02  0.21330960857E+03  0.21686081443E+03  0.00000000000E+00 0.  1.
         14    1    6    6    0    0 -0.36460374031E+02 -0.66202812444E+02  0.10064727848E+03  0.12586518945E+03  0.00000000000E+00 0. -1.
         -5    1    3    3    0  503  0.72788544773E+02  0.41192056864E+02  0.12639187985E+02  0.84715977665E+02  0.47000000000E+01 0.  1.
         13    1    4    4    0    0 -0.42718769651E+02  0.60918244923E+02  0.62979071126E+01  0.74669869955E+02  0.00000000000E+00 0. -1.
        -14    1    4    4    0    0 -0.12130937672E+02 -0.23518197231E+02 -0.14010311154E+02  0.29942512727E+02  0.00000000000E+00 0.  1.
</event>
<event>
12    1  0.8053217E-002  0.2132630E+03  0.7818608E-02  0.1139110E+00
         21   -1    0    0  501  502  0.00000000000E+00  0.00000000000E+00  0.12769313354E+04  0.12769313354E+04  0.00000000000E+00 0.  1.
         21   -1    0    0  502  503 -0.00000000000E+00 -0.00000000000E+00 -0.35541633066E+02  0.35541633066E+02  0.00000000000E+00 0.  1.
         -6    2    1    2    0  503 -0.12442605744E+03 -0.16975761053E+02  0.60799097708E+03  0.64413544083E+03  0.17171900797E+03 0.  0.
        -24    2    3    3    0    0 -0.87390127275E+02  0.52997853686E+02  0.30689289257E+03  0.33276730923E+03  0.78134676963E+02 0.  0.
          6    2    1    2  501    0  0.12442605744E+03  0.16975761053E+02  0.63339872525E+03  0.66833752762E+03  0.17236903854E+03 0.  0.
         24    2    5    5    0    0  0.87861146552E+02 -0.51871323585E+02  0.46427266756E+03  0.48205111598E+03  0.80087160616E+02 0.  0.
          5    1    5    5  501    0  0.36564910889E+02  0.68847084639E+02  0.16912605770E+03  0.18628641164E+03  0.47000000000E+01 0. -1.
        -13    1    6    6    0    0  0.38034029659E+02  0.16555533209E+02  0.21005423900E+03  0.21411085076E+03  0.00000000000E+00 0.  1.
         14    1    6    6    0    0  0.49827116894E+02 -0.68426856795E+02  0.25421842856E+03  0.26794026522E+03  0.00000000000E+00 0. -1.
         -5    1    3    3    0  503 -0.37035930167E+02 -0.69973614739E+02  0.30109808451E+03  0.31136813160E+03  0.47000000000E+01 0.  1.
         11    1    4    4    0    0 -0.64607986303E+01  0.46398311544E+02  0.12821243277E+03  0.13650264887E+03  0.00000000000E+00 0. -1.
        -12    1    4    4    0    0 -0.80929328644E+02  0.65995421415E+01  0.17868045980E+03  0.19626466036E+03  0.00000000000E+00 0.  1.
</event>
<event>
12    1  0.8053217E-002  0.1788055E+03  0.7818608E-02  0.1169549E+00
         21   -1    0    0  501  502  0.00000000000E+00  0.00000000000E+00  0.79644889734E+03  0.79644889734E+03  0.00000000000E+00 0.  1.
         21   -1    0    0  502  503 -0.00000000000E+00 -0.00000000000E+00 -0.42145844432E+02  0.42145844432E+02  0.00000000000E+00 0.  1.
         -6    2    1    2    0  503 -0.37042503163E+02 -0.39091612925E+02  0.27668196652E+03  0.32943029181E+03  0.17050250827E+03 0.  0.
        -24    2    3    3    0    0 -0.54697381090E+02  0.35775603520E+02  0.15176433460E+03  0.18265393276E+03  0.77835394199E+02 0.  0.
          6    2    1    2  501    0  0.37042503163E+02  0.39091612925E+02  0.47762108639E+03  0.50916444996E+03  0.16800664778E+03 0.  0.
         24    2    5    5    0    0  0.23027018947E+01 -0.40264210386E+02  0.25659466484E+03  0.27172188952E+03  0.79783796258E+02 0.  0.
          5    1    5    5  501    0  0.34739801268E+02  0.79355823312E+02  0.22102642155E+03  0.23744256044E+03  0.47000000000E+01 0. -1.
        -13    1    6    6    0    0  0.36290412013E+02 -0.28823777472E+02  0.19515204571E+03  0.20057947327E+03  0.00000000000E+00 0.  1.
         14    1    6    6    0    0 -0.33987710118E+02 -0.11440432915E+02  0.61442619125E+02  0.71142416245E+02  0.00000000000E+00 0. -1.
         -5    1    3    3    0  503  0.17654877927E+02 -0.74867216445E+02  0.12491763191E+03  0.14677635905E+03  0.47000000000E+01 0.  1.
         11    1    4    4    0    0  0.17139488395E+02 -0.75407225773E-01  0.10304594686E+02  0.19998810473E+02  0.00000000000E+00 0. -1.
        -12    1    4    4    0    0 -0.71836869485E+02  0.35851010746E+02  0.14145973992E+03  0.16265512229E+03  0.00000000000E+00 0.  1.
</event>
<event>
12    1  0.8053217E-002  0.2446520E+03  0.7818608E-02  0.1116961E+00
         21   -1    0    0  501  502  0.00000000000E+00  0.00000000000E+00  0.28927449104E+03  0.28927449104E+03  0.00000000000E+00 0. -1.
         21   -1    0    0  502  503 -0.00000000000E+00 -0.00000000000E+00 -0.21801683918E+03  0.21801683918E+03  0.00000000000E+00 0.  1.
         -6    2    1    2    0  503  0.16956197845E+03  0.32786358782E+02  0.95944984757E+02  0.26279278919E+03  0.17328704537E+03 0.  0.
        -24    2    3    3    0    0  0.11448402268E+03  0.36368782446E+02  0.13256522421E+03  0.19638836985E+03  0.81028225681E+02 0.  0.
          6    2    1    2  501    0 -0.16956197845E+03 -0.32786358782E+02 -0.24687332901E+02  0.24449854103E+03  0.17130050292E+03 0.  0.
         24    2    5    5    0    0 -0.17998440452E+03  0.45590759160E+01  0.39485032445E+01  0.19606911227E+03  0.77539248561E+02 0.  0.
          5    1    5    5  501    0  0.10422426066E+02 -0.37345434698E+02 -0.28635836146E+02  0.48429428756E+02  0.47000000000E+01 0. -1.
        -13    1    6    6    0    0 -0.45703037390E+02 -0.20356457216E+02 -0.25802073781E+02  0.56292983475E+02  0.00000000000E+00 0.  1.
         14    1    6    6    0    0 -0.13428136713E+03  0.24915533132E+02  0.29750577026E+02  0.13977612880E+03  0.00000000000E+00 0. -1.
         -5    1    3    3    0  503  0.55077955771E+02 -0.35824236644E+01 -0.36620239449E+02  0.66404419345E+02  0.47000000000E+01 0.  1.
         13    1    4    4    0    0  0.57201947632E+02  0.48310770747E+02  0.11127919364E+03  0.13412327286E+03  0.00000000000E+00 0. -1.
        -14    1    4    4    0    0  0.57282075048E+02 -0.11941988301E+02  0.21286030561E+02  0.62265096992E+02  0.00000000000E+00 0.  1.
</event>
<event>
12    1  0.8053217E-002  0.1777460E+03  0.7818608E-02  0.1170762E+00
         21   -1    0    0  501  502  0.00000000000E+00  0.00000000000E+00  0.14063127188E+03  0.14063127188E+03  0.00000000000E+00 0.  1.
         21   -1    0    0  502  503 -0.00000000000E+00 -0.00000000000E+00 -0.37767459766E+03  0.37767459766E+03  0.00000000000E+00 0.  1.
         -6    2    1    2    0  503  0.15208452541E+02  0.30057824070E+02 -0.28613934925E+03  0.33685216274E+03  0.17452473331E+03 0.  0.
        -24    2    3    3    0    0  0.48807753007E+02  0.28080835387E+02 -0.11165852556E+03  0.15909257984E+03  0.98346797408E+02 0.  0.
          6    2    1    2  501    0 -0.15208452541E+02 -0.30057824070E+02  0.49096023470E+02  0.18145370679E+03  0.17140670457E+03 0.  0.
         24    2    5    5    0    0 -0.38869956634E+02 -0.18340255823E+01 -0.30384168987E+02  0.93728906595E+02  0.79672285193E+02 0.  0.
          5    1    5    5  501    0  0.23661504092E+02 -0.28223798487E+02  0.79480192457E+02  0.87724800199E+02  0.47000000000E+01 0. -1.
        -13    1    6    6    0    0 -0.99539330483E+00  0.23030760035E+02  0.16639193274E+02  0.28430080346E+02  0.00000000000E+00 0.  1.
         14    1    6    6    0    0 -0.37874563329E+02 -0.24864785618E+02 -0.47023362261E+02  0.65298826249E+02  0.00000000000E+00 0. -1.
         -5    1    3    3    0  503 -0.33599300465E+02  0.19769886829E+01 -0.17448082369E+03  0.17775958290E+03  0.47000000000E+01 0.  1.
         11    1    4    4    0    0  0.69956012509E+02 -0.47790693443E+01 -0.91029640757E+02  0.11490465041E+03  0.00000000000E+00 0. -1.
        -12    1    4    4    0    0 -0.21148259502E+02  0.32859904731E+02 -0.20628884799E+02  0.44187929426E+02  0.00000000000E+00 0.  1.
</event>
<event>
12    1  0.8053217E-002  0.1851411E+03  0.7818608E-02  0.1164126E+00
         21   -1    0    0  501  502  0.00000000000E+00  0.00000000000E+00  0.45470902015E+03  0.45470902015E+03  0.00000000000E+00 0.  1.
         21   -1    0    0  502  503 -0.00000000000E+00 -0.00000000000E+00 -0.15371501224E+03  0.15371501224E+03  0.00000000000E+00 0.  1.
         -6    2    1    2    0  503  0.58965726385E+02  0.32982053586E+02 -0.70500830032E+02  0.19335096158E+03  0.16688155848E+03 0.  0.
        -24    2    3    3    0    0 -0.29571147074E+02  0.24604921586E+02 -0.14531274219E+02  0.88167144000E+02  0.77989950924E+02 0.  0.
          6    2    1    2  501    0 -0.58965726385E+02 -0.32982053586E+02  0.37149483794E+03  0.41507307081E+03  0.17237304531E+03 0.  0.
         24    2    5    5    0    0 -0.70819658392E+02 -0.51450172893E+02  0.37371833400E+03  0.39252044193E+03  0.82124051634E+02 0.  0.
          5    1    5    5  501    0  0.11853932007E+02  0.18468119307E+02 -0.22234960634E+01  0.22552628883E+02  0.47000000000E+01 0. -1.
        -11    1    6    6    0    0  0.29585161431E+01 -0.29918072356E+02  0.20409840285E+03  0.20630075598E+03  0.00000000000E+00 0.  1.
         12    1    6    6    0    0 -0.73778174535E+02 -0.21532100537E+02  0.16961993115E+03  0.18621968595E+03  0.00000000000E+00 0. -1.
         -5    1    3    3    0  503  0.88536873458E+02  0.83771320000E+01 -0.55969555813E+02  0.10518381758E+03  0.47000000000E+01 0.  1.
         11    1    4    4    0    0 -0.14837754994E+02 -0.22199359891E+02  0.15268407850E+02  0.30758654573E+02  0.00000000000E+00 0. -1.
        -12    1    4    4    0    0 -0.14733392079E+02  0.46804281478E+02 -0.29799682070E+02  0.57408489427E+02  0.00000000000E+00 0.  1.
</event>
<event>
12    1  0.8053217E-002  0.1870275E+03  0.7818608E-02  0.1162530E+00
         21   -1    0    0  501  502  0.00000000000E+00  0.00000000000E+00  0.65053531059E+02  0.65053531059E+02  0.00000000000E+00 0.  1.
         21   -1    0    0  502  503 -0.00000000000E+00 -0.00000000000E+00 -0.56531472195E+03  0.56531472195E+03  0.00000000000E+00 0.  1.
         -6    2    1    2    0  503  0.66187476029E+02  0.93764581842E+01 -0.34187629086E+03  0.38969048522E+03  0.17467276853E+03 0.  0.
        -24    2    3    3    0    0  0.67951019839E+02 -0.35170438346E+02 -0.12049171358E+03  0.16381273701E+03  0.80386932613E+02 0.  0.
          6    2    1    2  501    0 -0.66187476029E+02 -0.93764581842E+01 -0.15838490003E+03  0.24067776779E+03  0.16843785620E+03 0.  0.
         24    2    5    5    0    0 -0.94101632451E+02 -0.43497985607E+02 -0.88662109930E+02  0.15805309701E+03  0.79828690051E+02 0.  0.
          5    1    5    5  501    0  0.27914156422E+02  0.34121527423E+02 -0.69722790104E+02  0.82624670785E+02  0.47000000000E+01 0. -1.
        -11    1    6    6    0    0 -0.54475614566E+02  0.29330029062E+01 -0.79366344870E+02  0.96307900955E+02  0.00000000000E+00 0.  1.
         12    1    6    6    0    0 -0.39626017885E+02 -0.46430988514E+02 -0.92957650600E+01  0.61745196055E+02  0.00000000000E+00 0. -1.
         -5    1    3    3    0  503 -0.17635438100E+01  0.44546896530E+02 -0.22138457728E+03  0.22587774820E+03  0.47000000000E+01 0.  1.
         11    1    4    4    0    0 -0.12614995225E+02  0.15191474349E+00  0.22374084670E+01  0.12812774065E+02  0.00000000000E+00 0. -1.
        -12    1    4    4    0    0  0.80566015064E+02 -0.35322353090E+02 -0.12272912205E+03  0.15099996295E+03  0.00000000000E+00 0.  1.
</event>
<event>
12    1  0.8053217E-002  0.2135715E+03  0.7818608E-02  0.1138807E+00
         21   -1    0    0  501  502  0.00000000000E+00  0.00000000000E+00  0.34401618011E+02  0.34401618011E+02  0.00000000000E+00 0. -1.
         21   -1    0    0  502  503 -0.00000000000E+00 -0.00000000000E+00 -0.14486971842E+04  0.14486971842E+04  0.00000000000E+00 0. -1.
         -6    2    1    2    0  503  0.87917070240E+02  0.89755598235E+02 -0.92444225805E+03  0.94879201755E+03  0.17270589294E+03 0.  0.
        -24    2    3    3    0    0  0.50616034792E+01  0.56984931372E+02 -0.24290391328E+03  0.26143799642E+03  0.77939801465E+02 0.  0.
          6    2    1    2  501    0 -0.87917070240E+02 -0.89755598235E+02 -0.48985330815E+03  0.53430678467E+03  0.17245868485E+03 0.  0.
         24    2    5    5    0    0 -0.41239903247E+02  0.22858910166E+02 -0.17405065014E+03  0.19575960298E+03  0.76190117151E+02 0.  0.
          5    1    5    5  501    0 -0.46677166993E+02 -0.11261450840E+03 -0.31580265801E+03  0.33854718168E+03  0.47000000000E+01 0. -1.
        -13    1    6    6    0    0 -0.57328961426E+02  0.20966584036E+02 -0.81628991268E+02  0.10192889522E+03  0.00000000000E+00 0.  1.
         14    1    6    6    0    0  0.16089058179E+02  0.18923261294E+01 -0.92421658874E+02  0.93830707768E+02  0.00000000000E+00 0. -1.
         -5    1    3    3    0  503  0.82855466761E+02  0.32770666863E+02 -0.68153834477E+03  0.68735402113E+03  0.47000000000E+01 0.  1.
         13    1    4    4    0    0  0.23047230688E+02  0.70260912301E+02 -0.17616527824E+03  0.19105490284E+03  0.00000000000E+00 0. -1.
        -14    1    4    4    0    0 -0.17985627209E+02 -0.13275980929E+02 -0.66738635037E+02  0.70383093584E+02  0.00000000000E+00 0.  1.
</event>
<event>
12    1  0.8053217E-002  0.1822990E+03  0.7818608E-02  0.1166136E+00
         21   -1    0    0  501  502  0.00000000000E+00  0.00000000000E+00  0.84682011927E+02  0.84682011927E+02  0.00000000000E+00 0.  1.
         21   -1    0    0  502  503 -0.00000000000E+00 -0.00000000000E+00 -0.78192665483E+03  0.78192665483E+03  0.00000000000E+00 0.  1.
         -6    2    1    2    0  503  0.57129638964E+02  0.20259414255E+02 -0.65739834249E+03  0.68220634170E+03  0.17192635758E+03 0.  0.
        -24    2    3    3    0    0 -0.19131584332E+02 -0.32770405189E+02 -0.33231394763E+03  0.34407930979E+03  0.80734717792E+02 0.  0.
          6    2    1    2  501    0 -0.57129638964E+02 -0.20259414255E+02 -0.39846300408E+02  0.18440232505E+03  0.16953539546E+03 0.  0.
         24    2    5    5    0    0 -0.65615831931E+02 -0.68216296553E+02 -0.61588096776E+01  0.12499849469E+03  0.81411253654E+02 0.  0.
          5    1    5    5  501    0  0.84861929670E+01  0.47956882298E+02 -0.33687490731E+02  0.59403830369E+02  0.47000000000E+01 0. -1.
        -13    1    6    6    0    0 -0.56801394833E+01 -0.30152794367E+02  0.32049975123E+02  0.44369537952E+02  0.00000000000E+00 0.  1.
         14    1    6    6    0    0 -0.59935692448E+02 -0.38063502186E+02 -0.38208784801E+02  0.80628956733E+02  0.00000000000E+00 0. -1.
         -5    1    3    3    0  503  0.76261223296E+02  0.53029819444E+02 -0.32508439486E+03  0.33812703192E+03  0.47000000000E+01 0.  1.
         13    1    4    4    0    0 -0.16944451610E+02 -0.50547441045E+02 -0.31388583991E+03  0.31838102759E+03  0.00000000000E+00 0. -1.
        -14    1    4    4    0    0 -0.21871327222E+01  0.17777035856E+02 -0.18428107723E+02  0.25698282192E+02  0.00000000000E+00 0.  1.
</event>
<event>
12    1  0.8053217E-002  0.1851933E+03  0.7818608E-02  0.1163591E+00
         21   -1    0    0  501  502  0.00000000000E+00  0.00000000000E+00  0.48974229979E+03  0.48974229979E+03  0.00000000000E+00 0. -1.
         21   -1    0    0  502  503 -0.00000000000E+00 -0.00000000000E+00 -0.12418854655E+03  0.12418854655E+03  0.00000000000E+00 0. -1.
         -6    2    1    2    0  503 -0.69390510614E+02 -0.10963694217E+02 -0.22927953791E+02  0.18356521118E+03  0.16803347921E+03 0.  0.
        -24    2    3    3    0    0 -0.90932009478E+02  0.22151158475E+02 -0.52721210924E+02  0.13386251696E+03  0.79877050494E+02 0.  0.
          6    2    1    2  501    0  0.69390510614E+02  0.10963694217E+02  0.38848170703E+03  0.43036563517E+03  0.17135138657E+03 0.  0.
         24    2    5    5    0    0  0.63869684585E+02 -0.17640849216E+02  0.10866773077E+03  0.14899994654E+03  0.77471105500E+02 0.  0.
          5    1    5    5  501    0  0.55208260287E+01  0.28604543434E+02  0.27981397626E+03  0.28136568863E+03  0.47000000000E+01 0. -1.
        -13    1    6    6    0    0  0.39327843904E+02 -0.40637050849E+02  0.98987157738E+02  0.11400222193E+03  0.00000000000E+00 0.  1.
         14    1    6    6    0    0  0.24541840682E+02  0.22996201633E+02  0.96805730338E+01  0.34997724609E+02  0.00000000000E+00 0. -1.
         -5    1    3    3    0  503  0.21541498864E+02 -0.33114852692E+02  0.29793257133E+02  0.49702694220E+02  0.47000000000E+01 0.  1.
         11    1    4    4    0    0 -0.43975897462E+02  0.51026857376E+02 -0.22639696587E+02  0.71064587474E+02  0.00000000000E+00 0. -1.
        -12    1    4    4    0    0 -0.46956112017E+02 -0.28875698901E+02 -0.30081514336E+02  0.62797929484E+02  0.00000000000E+00 0.  1.
</event>
<event>
12    1  0.8053217E-002  0.1745999E+03  0.7818608E-02  0.1173140E+00
         21   -1    0    0  501  502  0.00000000000E+00  0.00000000000E+00  0.23007937776E+03  0.23007937776E+03  0.00000000000E+00 0. -1.
         21   -1    0    0  502  503 -0.00000000000E+00 -0.00000000000E+00 -0.42185654490E+03  0.42185654490E+03  0.00000000000E+00 0. -1.
         -6    2    1    2    0  503 -0.15408711784E+02  0.21987361920E+02 -0.36586129768E+03  0.40537882570E+03  0.17250110347E+03 0.  0.
        -24    2    3    3    0    0 -0.16613426172E+02  0.49251176598E+02 -0.36510089366E+03  0.37767620593E+03  0.81479872682E+02 0.  0.
          6    2    1    2  501    0  0.15408711784E+02 -0.21987361920E+02  0.17408413055E+03  0.24655709697E+03  0.17252317257E+03 0.  0.
         24    2    5    5    0    0 -0.39716643118E+01 -0.79552203900E+02  0.91899353466E+02  0.14425490934E+03  0.77586470713E+02 0.  0.
          5    1    5    5  501    0  0.19380376095E+02  0.57564841980E+02  0.82184777082E+02  0.10230218763E+03  0.47000000000E+01 0. -1.
        -13    1    6    6    0    0 -0.40636647961E+02 -0.44640115972E+02  0.45664975756E+02  0.75692583007E+02  0.00000000000E+00 0.  1.
         14    1    6    6    0    0  0.36664983650E+02 -0.34912087928E+02  0.46234377710E+02  0.68562326330E+02  0.00000000000E+00 0. -1.
         -5    1    3    3    0  503  0.12047143884E+01 -0.27263814678E+02 -0.76040402687E+00  0.27702619765E+02  0.47000000000E+01 0.  1.
         13    1    4    4    0    0 -0.45728549468E+02  0.22392649754E+02 -0.26822177958E+03  0.27301182033E+03  0.00000000000E+00 0. -1.
        -14    1    4    4    0    0  0.29115123296E+02  0.26858526844E+02 -0.96879114078E+02  0.10466438560E+03  0.00000000000E+00 0.  1.
</event>
<event>
12    1  0.8053217E-002  0.2850552E+03  0.7818608E-02  0.1093296E+00
         21   -1    0    0  501  502  0.00000000000E+00  0.00000000000E+00  0.11249275547E+04  0.11249275547E+04  0.00000000000E+00 0.  1.
         21   -1    0    0  502  503 -0.00000000000E+00 -0.00000000000E+00 -0.72633926923E+02  0.72633926923E+02  0.00000000000E+00 0.  1.
         -6    2    1    2    0  503 -0.18574929588E+03 -0.12620708290E+03  0.59992838597E+03  0.66420669217E+03  0.17557173160E+03 0.  0.
        -24    2    3    3    0    0 -0.68126985311E+02 -0.68330622089E+01  0.13267484560E+03  0.16778638059E+03  0.76561596050E+02 0.  0.
          6    2    1    2  501    0  0.18574929588E+03  0.12620708290E+03  0.45236524185E+03  0.53335478950E+03  0.17147008704E+03 0.  0.
         24    2    5    5    0    0  0.25319296940E+02  0.19938023792E+02  0.93065348614E+02  0.12574051011E+03  0.78172406760E+02 0.  0.
          5    1    5    5  501    0  0.16042999894E+03  0.10626905911E+03  0.35929989324E+03  0.40761427939E+03  0.47000000000E+01 0. -1.
        -13    1    6    6    0    0  0.53299266413E+02  0.12449903393E+02  0.52071022341E+02  0.75546034061E+02  0.00000000000E+00 0.  1.
         14    1    6    6    0    0 -0.27979969473E+02  0.74881203987E+01  0.40994326273E+02  0.50194476044E+02  0.00000000000E+00 0. -1.
         -5    1    3    3    0  503 -0.11762231057E+03 -0.11937402069E+03  0.46725354038E+03  0.49642031159E+03  0.47000000000E+01 0.  1.
         13    1    4    4    0    0  0.15521968770E+02 -0.20145724616E+01  0.80147401819E+01  0.17584825188E+02  0.00000000000E+00 0. -1.
        -14    1    4    4    0    0 -0.83648954082E+02 -0.48184897473E+01  0.12466010541E+03  0.15020155540E+03  0.00000000000E+00 0.  1.
</event>
<event>
12    1  0.8053217E-002  0.1776789E+03  0.7818608E-02  0.1170660E+00
         21   -1    0    0  503  502  0.00000000000E+00  0.00000000000E+00  0.14678188641E+03  0.14678188641E+03  0.00000000000E+00 0. -1.
         21   -1    0    0  501  503 -0.00000000000E+00 -0.00000000000E+00 -0.35112427054E+03  0.35112427054E+03  0.00000000000E+00 0. -1.
          6    2    1    2  501    0  0.38618496952E+02 -0.18308929669E+02 -0.25917899780E+03  0.31423486885E+03  0.17246215436E+03 0.  0.
         24    2    3    3    0    0  0.82615962174E+02  0.21842506856E+02 -0.15594169449E+03  0.19495391649E+03  0.79916989197E+02 0.  0.
         -6    2    1    2    0  502 -0.38618496952E+02  0.18308929669E+02  0.54836613661E+02  0.18367128810E+03  0.17000436072E+03 0.  0.
        -24    2    5    5    0    0 -0.17005803153E+01  0.44050238975E+02  0.88559319249E+02  0.12723673800E+03  0.80019491022E+02 0.  0.
          5    1    3    3  501    0 -0.43997465222E+02 -0.40151436525E+02 -0.10323730331E+03  0.11928095236E+03  0.47000000000E+01 0. -1.
        -11    1    4    4    0    0  0.55823441017E+01  0.37565198877E+02 -0.43412511236E+02  0.57679743967E+02  0.00000000000E+00 0.  1.
         12    1    4    4    0    0  0.77033618072E+02 -0.15722692021E+02 -0.11252918325E+03  0.13727417252E+03  0.00000000000E+00 0. -1.
         -5    1    5    5    0  502 -0.36917916636E+02 -0.25741309306E+02 -0.33722705588E+02  0.56434550106E+02  0.47000000000E+01 0.  1.
         11    1    6    6    0    0  0.78346513114E+00 -0.21976872167E+02  0.38512243335E+02  0.44348501830E+02  0.00000000000E+00 0. -1.
        -12    1    6    6    0    0 -0.24840454465E+01  0.66027111142E+02  0.50047075913E+02  0.82888236168E+02  0.00000000000E+00 0.  1.
</event>
<event>
12    1  0.8053217E-002  0.2000263E+03  0.7818608E-02  0.1149854E+00
         21   -1    0    0  501  502  0.00000000000E+00  0.00000000000E+00  0.26770109441E+03  0.26770109441E+03  0.00000000000E+00 0.  1.
         21   -1    0    0  502  503 -0.00000000000E+00 -0.00000000000E+00 -0.15091145619E+03  0.15091145619E+03  0.00000000000E+00 0. -1.
         -6    2    1    2    0  503 -0.13013448944E+02 -0.10170252910E+03  0.34773187995E+02  0.20302630542E+03  0.17174909551E+03 0.  0.
        -24    2    3    3    0    0 -0.67835084217E+02 -0.35245213038E+02 -0.75353290419E+01  0.10693214760E+03  0.74390048490E+02 0.  0.
          6    2    1    2  501    0  0.13013448944E+02  0.10170252910E+03  0.82016450218E+02  0.21558624518E+03  0.17099115979E+03 0.  0.
         24    2    5    5    0    0  0.53735981622E+02  0.51462910079E+02 -0.14594630527E+01  0.10988543117E+03  0.80849805913E+02 0.  0.
          5    1    5    5  501    0 -0.40722532678E+02  0.50239619019E+02  0.83475913271E+02  0.10570081401E+03  0.47000000000E+01 0. -1.
        -11    1    6    6    0    0  0.46405994317E+02  0.68966803814E+02  0.15353582959E+02  0.84532058100E+02  0.00000000000E+00 0.  1.
         12    1    6    6    0    0  0.73299873047E+01 -0.17503893735E+02 -0.16813046012E+02  0.25353373069E+02  0.00000000000E+00 0. -1.
         -5    1    3    3    0  503  0.54821635273E+02 -0.66457316060E+02  0.42308517037E+02  0.96094157813E+02  0.47000000000E+01 0.  1.
         11    1    4    4    0    0 -0.34388195749E+01 -0.41726295272E+02 -0.49446805467E+01  0.42158736496E+02  0.00000000000E+00 0. -1.
        -12    1    4    4    0    0 -0.64396264642E+02  0.64810822342E+01 -0.25906484952E+01  0.64773411107E+02  0.00000000000E+00 0.  1.
</event>
<event>
12    1  0.8053217E-002  0.2017677E+03  0.7818608E-02  0.1148376E+00
         21   -1    0    0  501  502  0.00000000000E+00  0.00000000000E+00  0.27772602735E+03  0.27772602735E+03  0.00000000000E+00 0. -1.
         21   -1    0    0  502  503 -0.00000000000E+00 -0.00000000000E+00 -0.20541378922E+03  0.20541378922E+03  0.00000000000E+00 0.  1.
         -6    2    1    2    0  503  0.10058287387E+03  0.28817917551E+02 -0.93614523957E+02  0.22190834129E+03  0.17184948633E+03 0.  0.
        -24    2    3    3    0    0  0.40597273957E+02  0.45880142058E+02  0.83758320622E+01  0.10226924056E+03  0.81459909862E+02 0.  0.
          6    2    1    2  501    0 -0.10058287387E+03 -0.28817917551E+02  0.16592676208E+03  0.26123147528E+03  0.17251900305E+03 0.  0.
         24    2    5    5    0    0 -0.13995205231E+03 -0.24978442181E+02  0.13533861835E+03  0.21100799154E+03  0.77442438982E+02 0.  0.
          5    1    5    5  501    0  0.39369178443E+02 -0.38394753700E+01  0.30588143734E+02  0.50223483745E+02  0.47000000000E+01 0. -1.
        -11    1    6    6    0    0 -0.38819962682E+02 -0.43352652618E+02  0.38409438780E+02  0.69726085356E+02  0.00000000000E+00 0.  1.
         12    1    6    6    0    0 -0.10113208963E+03  0.18374210437E+02  0.96929179568E+02  0.14128190618E+03  0.00000000000E+00 0. -1.
         -5    1    3    3    0  503  0.59985599913E+02 -0.17062224508E+02 -0.10199035602E+03  0.11963910073E+03  0.47000000000E+01 0.  1.
         11    1    4    4    0    0  0.44299532085E+01  0.48367466891E+02 -0.23535943315E+02  0.53972001692E+02  0.00000000000E+00 0. -1.
        -12    1    4    4    0    0  0.36167320749E+02 -0.24873248324E+01  0.31911775377E+02  0.48297238872E+02  0.00000000000E+00 0.  1.
</event>
<event>
12    1  0.8053217E-002  0.1860776E+03  0.7818608E-02  0.1162526E+00
         21   -1    0    0  501  502  0.00000000000E+00  0.00000000000E+00  0.64157562171E+02  0.64157562171E+02  0.00000000000E+00 0. -1.
         21   -1    0    0  502  503 -0.00000000000E+00 -0.00000000000E+00 -0.10489425459E+04  0.10489425459E+04  0.00000000000E+00 0. -1.
         -6    2    1    2    0  503 -0.14490111093E+02  0.62334511579E+02 -0.88104489729E+03  0.90005816252E+03  0.17253704015E+03 0.  0.
        -24    2    3    3    0    0 -0.52745253020E+02  0.32292503449E+02 -0.78734523082E+03  0.79438084407E+03  0.85460783103E+02 0.  0.
          6    2    1    2  501    0  0.14490111093E+02 -0.62334511579E+02 -0.10374008642E+03  0.21304194553E+03  0.17472638716E+03 0.  0.
         24    2    5    5    0    0  0.39260492732E+02 -0.91217112152E+02 -0.11697069384E+03  0.17248438895E+03  0.78783077976E+02 0.  0.
          5    1    5    5  501    0 -0.24770381639E+02  0.28882600574E+02  0.13230607427E+02  0.40557556575E+02  0.47000000000E+01 0. -1.
        -11    1    6    6    0    0  0.34197778012E+02 -0.88843944619E+02 -0.54361885361E+02  0.10962640693E+03  0.00000000000E+00 0.  1.
         12    1    6    6    0    0  0.50627147197E+01 -0.23731675333E+01 -0.62608808480E+02  0.62857982022E+02  0.00000000000E+00 0. -1.
         -5    1    3    3    0  503  0.38255141928E+02  0.30042008130E+02 -0.93699666473E+02  0.10567731844E+03  0.47000000000E+01 0.  1.
         13    1    4    4    0    0 -0.13116407594E+02  0.53709742028E+02 -0.55211560808E+03  0.55487694241E+03  0.00000000000E+00 0. -1.
        -14    1    4    4    0    0 -0.39628845427E+02 -0.21417238579E+02 -0.23522962274E+03  0.23950390166E+03  0.00000000000E+00 0.  1.
</event>
<event>
12    1  0.8053217E-002  0.1989628E+03  0.7818608E-02  0.1150808E+00
         21   -1    0    0  501  502  0.00000000000E+00  0.00000000000E+00  0.10248872070E+04  0.10248872070E+04  0.00000000000E+00 0. -1.
         21   -1    0    0  502  503 -0.00000000000E+00 -0.00000000000E+00 -0.43482784686E+02  0.43482784686E+02  0.00000000000E+00 0. -1.
         -6    2    1    2    0  503  0.74826908957E+02  0.67361212451E+02  0.30801377696E+03  0.36620109318E+03  0.17057008707E+03 0.  0.
        -24    2    3    3    0    0  0.57185078345E+02  0.10940765104E+03  0.22589162423E+03  0.27215177019E+03  0.88314171174E+02 0.  0.
          6    2    1    2  501    0 -0.74826908957E+02 -0.67361212451E+02  0.67339064536E+03  0.70216889851E+03  0.17160886203E+03 0.  0.
         24    2    5    5    0    0 -0.30034294322E+02  0.22816664832E+02  0.42483076242E+03  0.43394784549E+03  0.80043093862E+02 0.  0.
          5    1    5    5  501    0 -0.44792614634E+02 -0.90177877283E+02  0.24855988294E+03  0.26822105302E+03  0.47000000000E+01 0. -1.
        -11    1    6    6    0    0 -0.47802173862E+02  0.24656113309E+02  0.16589021353E+03  0.17439189974E+03  0.00000000000E+00 0.  1.
         12    1    6    6    0    0  0.17767879539E+02 -0.18394484764E+01  0.25894054889E+03  0.25955594574E+03  0.00000000000E+00 0. -1.
         -5    1    3    3    0  503  0.17641830612E+02 -0.42046438592E+02  0.82122152732E+02  0.94049322991E+02  0.47000000000E+01 0.  1.
         11    1    4    4    0    0  0.94776667532E+01  0.82449516296E+02  0.18807490939E+03  0.20557217819E+03  0.00000000000E+00 0. -1.
        -12    1    4    4    0    0  0.47707411592E+02  0.26958134747E+02  0.37816714840E+02  0.66579592002E+02  0.00000000000E+00 0.  1.
</event>
<event>
12    1  0.8053217E-002  0.3225902E+03  0.7818608E-02  0.1074567E+00
         21   -1    0    0  501  502  0.00000000000E+00  0.00000000000E+00  0.24668871129E+03  0.24668871129E+03  0.00000000000E+00 0.  1.
         21   -1    0    0  502  503 -0.00000000000E+00 -0.00000000000E+00 -0.94206906121E+03  0.94206906121E+03  0.00000000000E+00 0. -1.
         -6    2    1    2    0  503  0.26962377406E+03 -0.42221179573E+02 -0.79010219454E+03  0.85342012974E+03  0.17200241998E+03 0.  0.
        -24    2    3    3    0    0  0.27378762235E+03 -0.66637829260E+02 -0.67267529947E+03  0.73331735666E+03  0.76563859793E+02 0.  0.
          6    2    1    2  501    0 -0.26962377406E+03  0.42221179573E+02  0.94721844617E+02  0.33533764276E+03  0.17029239343E+03 0.  0.
         24    2    5    5    0    0 -0.18062494649E+03  0.18513329465E+02  0.12952777131E+03  0.23676586181E+03  0.79451338048E+02 0.  0.
          5    1    5    5  501    0 -0.88998827571E+02  0.23707850108E+02 -0.34805926693E+02  0.98571780946E+02  0.47000000000E+01 0. -1.
        -13    1    6    6    0    0 -0.11289954226E+03  0.50034885930E+02  0.80233553225E+02  0.14726581245E+03  0.00000000000E+00 0.  1.
         14    1    6    6    0    0 -0.67725404232E+02 -0.31521556465E+02  0.49294218085E+02  0.89500049369E+02  0.00000000000E+00 0. -1.
         -5    1    3    3    0  503 -0.41638482842E+01  0.24416649687E+02 -0.11742689508E+03  0.12010277308E+03  0.47000000000E+01 0.  1.
         11    1    4    4    0    0  0.28009538014E+02 -0.32639243004E+02 -0.12090063109E+03  0.12832309613E+03  0.00000000000E+00 0. -1.
        -12    1    4    4    0    0  0.24577808433E+03 -0.33998586256E+02 -0.55177466838E+03  0.60499426053E+03  0.00000000000E+00 0.  1.
</event>
<event>
12    1  0.8053217E-002  0.1740510E+03  0.7818608E-02  0.1173819E+00
         21   -1    0    0  501  502  0.00000000000E+00  0.00000000000E+00  0.12438770484E+04  0.12438770484E+04  0.00000000000E+00 0.  1.
         21   -1    0    0  502  503 -0.00000000000E+00 -0.00000000000E+00 -0.62794442446E+02  0.62794442446E+02  0.00000000000E+00 0.  1.
         -6    2    1    2    0  503 -0.25539285068E+02  0.28071055440E+01  0.79226920324E+02  0.19123452214E+03  0.17214413330E+03 0.  0.
        -24    2    3    3    0    0  0.31688874812E+02  0.32990963794E+02  0.85913644636E+02  0.12602003093E+03  0.80045645608E+02 0.  0.
          6    2    1    2  501    0  0.25539285068E+02 -0.28071055440E+01  0.11018556856E+04  0.11154369687E+04  0.17162034926E+03 0.  0.
         24    2    5    5    0    0 -0.15604138727E+02 -0.12681676153E+02  0.26273243840E+03  0.27523449162E+03  0.79507088567E+02 0.  0.
          5    1    5    5  501    0  0.41143423795E+02  0.98745706088E+01  0.83912324723E+03  0.84020247709E+03  0.47000000000E+01 0. -1.
        -11    1    6    6    0    0 -0.39729528378E+02  0.58284290326E+01  0.21443100738E+03  0.21815834372E+03  0.00000000000E+00 0.  1.
         12    1    6    6    0    0  0.24125389651E+02 -0.18510105185E+02  0.48301431022E+02  0.57076147895E+02  0.00000000000E+00 0. -1.
         -5    1    3    3    0  503 -0.57228159880E+02 -0.30183858250E+02 -0.66867243123E+01  0.65214491213E+02  0.47000000000E+01 0.  1.
         11    1    4    4    0    0 -0.25262120885E+02  0.56344529064E+01  0.41059226700E+02  0.48536397769E+02  0.00000000000E+00 0. -1.
        -12    1    4    4    0    0  0.56950995697E+02  0.27356510888E+02  0.44854417936E+02  0.77483633157E+02  0.00000000000E+00 0.  1.
</event>
<event>
12    1  0.8053217E-002  0.2259135E+03  0.7818608E-02  0.1129732E+00
         21   -1    0    0  501  502  0.00000000000E+00  0.00000000000E+00  0.40619508086E+03  0.40619508086E+03  0.00000000000E+00 0. -1.
         21   -1    0    0  502  503 -0.00000000000E+00 -0.00000000000E+00 -0.22825637478E+03  0.22825637478E+03  0.00000000000E+00 0. -1.
         -6    2    1    2    0  503  0.94687935884E+02 -0.11083178472E+03 -0.12419487337E+03  0.25780082433E+03  0.17259029158E+03 0.  0.
        -24    2    3    3    0    0  0.58743793472E+02 -0.13754831243E+01 -0.98233050705E+02  0.13961127501E+03  0.79930286084E+02 0.  0.
          6    2    1    2  501    0 -0.94687935884E+02  0.11083178472E+03  0.30213357945E+03  0.37665063131E+03  0.17126444035E+03 0.  0.
         24    2    5    5    0    0  0.92018866350E+01  0.14523565190E+02  0.84644298220E+02  0.11705085122E+03  0.78997695456E+02 0.  0.
          5    1    5    5  501    0 -0.10388982252E+03  0.96308219525E+02  0.21748928123E+03  0.25959978009E+03  0.47000000000E+01 0. -1.
        -13    1    6    6    0    0 -0.28462479016E+01 -0.78878048657E+01 -0.13373060395E+02  0.15784718466E+02  0.00000000000E+00 0.  1.
         14    1    6    6    0    0  0.12048134537E+02  0.22411370056E+02  0.98017358615E+02  0.10126613276E+03  0.00000000000E+00 0. -1.
         -5    1    3    3    0  503  0.35944142412E+02 -0.10945630159E+03 -0.25961822667E+02  0.11818954932E+03  0.47000000000E+01 0.  1.
         11    1    4    4    0    0  0.66509995856E+02 -0.19293590721E+02 -0.44194209991E+02  0.82151995645E+02  0.00000000000E+00 0. -1.
        -12    1    4    4    0    0 -0.77662023839E+01  0.17918107597E+02 -0.54038840715E+02  0.57459279365E+02  0.00000000000E+00 0.  1.
</event>
<event>
12    1  0.8053217E-002  0.1771519E+03  0.7818608E-02  0.1171412E+00
         21   -1    0    0  501  502  0.00000000000E+00  0.00000000000E+00  0.45218240538E+03  0.45218240538E+03  0.00000000000E+00 0. -1.
         21   -1    0    0  502  503 -0.00000000000E+00 -0.00000000000E+00 -0.75987301539E+02  0.75987301539E+02  0.00000000000E+00 0. -1.
         -6    2    1    2    0  503  0.23185676431E+02  0.18809276626E+02  0.10152028166E+03  0.20132255200E+03  0.17126890517E+03 0.  0.
        -24    2    3    3    0    0 -0.46836002830E+02  0.38249491844E+02  0.55759966133E+02  0.11531642424E+03  0.80821216831E+02 0.  0.
          6    2    1    2  501    0 -0.23185676431E+02 -0.18809276626E+02  0.27467482219E+03  0.32684715493E+03  0.17461798378E+03 0.  0.
         24    2    5    5    0    0 -0.37415624551E+02 -0.69116830800E+02  0.23702004259E+03  0.26224596409E+03  0.80108550309E+02 0.  0.
          5    1    5    5  501    0  0.14229948120E+02  0.50307554174E+02  0.37654779598E+02  0.64601190833E+02  0.47000000000E+01 0. -1.
        -11    1    6    6    0    0 -0.54396279327E+01  0.10197114427E+02  0.14671740815E+01  0.11650034097E+02  0.00000000000E+00 0.  1.
         12    1    6    6    0    0 -0.31975996618E+02 -0.79313945227E+02  0.23555286851E+03  0.25059592999E+03  0.00000000000E+00 0. -1.
         -5    1    3    3    0  503  0.70021679261E+02 -0.19440215218E+02  0.45760315523E+02  0.86006127753E+02  0.47000000000E+01 0.  1.
         13    1    4    4    0    0 -0.58656653385E+02  0.21156211013E+02  0.67134023090E+02  0.91625134690E+02  0.00000000000E+00 0. -1.
        -14    1    4    4    0    0  0.11820650555E+02  0.17093280831E+02 -0.11374056957E+02  0.23691289555E+02  0.00000000000E+00 0.  1.
</event>
<event>
12    1  0.8053217E-002  0.1849524E+03  0.7818608E-02  0.1163213E+00
         21   -1    0    0  503  502  0.00000000000E+00  0.00000000000E+00  0.46985524606E+03  0.46985524606E+03  0.00000000000E+00 0.  1.
         21   -1    0    0  501  503 -0.00000000000E+00 -0.00000000000E+00 -0.75286175896E+02  0.75286175896E+02  0.00000000000E+00 0. -1.
          6    2    1    2  501    0  0.49829001531E+02  0.41860536210E+02  0.24847219046E+03  0.30944736500E+03  0.17258044033E+03 0.  0.
         24    2    3    3    0    0  0.44034033792E+02 -0.11950196160E+02  0.50669931221E+02  0.10432057413E+03  0.78952751291E+02 0.  0.
         -6    2    1    2    0  502 -0.49829001531E+02 -0.41860536210E+02  0.14609687970E+03  0.23569405696E+03  0.17312468438E+03 0.  0.
        -24    2    5    5    0    0 -0.31167822011E+02  0.35094748062E+02  0.12159819883E+03  0.15267218778E+03  0.79495914928E+02 0.  0.
          5    1    3    3  501    0  0.57949677392E+01  0.53810732370E+02  0.19780225924E+03  0.20512679087E+03  0.47000000000E+01 0. -1.
        -13    1    4    4    0    0  0.19775416120E+02  0.20904355509E+02  0.56169898418E+02  0.63111937462E+02  0.00000000000E+00 0.  1.
         14    1    4    4    0    0  0.24258617672E+02 -0.32854551669E+02 -0.54999671971E+01  0.41208636667E+02  0.00000000000E+00 0. -1.
         -5    1    5    5    0  502 -0.18661179520E+02 -0.76955284273E+02  0.24498680864E+02  0.83021869183E+02  0.47000000000E+01 0.  1.
         13    1    6    6    0    0  0.21035602635E+01  0.53813304037E+02  0.77034543585E+02  0.93992646321E+02  0.00000000000E+00 0. -1.
        -14    1    6    6    0    0 -0.33271382274E+02 -0.18718555974E+02  0.44563655248E+02  0.58679541454E+02  0.00000000000E+00 0.  1.
</event>
<event>
12    1  0.8053217E-002  0.2529083E+03  0.7818608E-02  0.1111530E+00
         21   -1    0    0  503  502  0.00000000000E+00  0.00000000000E+00  0.50722119271E+02  0.50722119271E+02  0.00000000000E+00 0.  1.
         21   -1    0    0  501  503 -0.00000000000E+00 -0.00000000000E+00 -0.12968497851E+04  0.12968497851E+04  0.00000000000E+00 0. -1.
          6    2    1    2  501    0 -0.60043162107E+01 -0.18449401285E+03 -0.73711025271E+03  0.77918704956E+03  0.17241473536E+03 0.  0.
         24    2    3    3    0    0 -0.14311380182E+02 -0.16937143678E+03 -0.38914017858E+03  0.43075777107E+03  0.72323437126E+02 0.  0.
         -6    2    1    2    0  502  0.60043162107E+01  0.18449401285E+03 -0.50901741315E+03  0.56838485483E+03  0.17288297697E+03 0.  0.
        -24    2    5    5    0    0  0.96928619155E+00  0.17900715986E+03 -0.51888965594E+03  0.55515578605E+03  0.83108176234E+02 0.  0.
          5    1    3    3  501    0  0.83070639713E+01 -0.15122576076E+02 -0.34797007413E+03  0.34842927849E+03  0.47000000000E+01 0. -1.
        -11    1    4    4    0    0 -0.40471109405E+02 -0.88911714009E+02 -0.17345887248E+03  0.19907582482E+03  0.00000000000E+00 0.  1.
         12    1    4    4    0    0  0.26159729223E+02 -0.80459722768E+02 -0.21568130610E+03  0.23168194626E+03  0.00000000000E+00 0. -1.
         -5    1    5    5    0  502  0.50350300192E+01  0.54868529945E+01  0.98722427891E+01  0.13229068779E+02  0.47000000000E+01 0.  1.
         11    1    6    6    0    0 -0.37895870591E+02  0.11435624037E+03 -0.28544901978E+03  0.30982993660E+03  0.00000000000E+00 0. -1.
        -12    1    6    6    0    0  0.38865156783E+02  0.64650919483E+02 -0.23344063615E+03  0.24532584945E+03  0.00000000000E+00 0.  1.
</event>
<event>
12    1  0.8053217E-002  0.1843400E+03  0.7818608E-02  0.1163811E+00
         21   -1    0    0  501  502  0.00000000000E+00  0.00000000000E+00  0.95576051598E+02  0.95576051598E+02  0.00000000000E+00 0. -1.
         21   -1    0    0  502  503 -0.00000000000E+00 -0.00000000000E+00 -0.37640749476E+03  0.37640749476E+03  0.00000000000E+00 0. -1.
         -6    2    1    2    0  503 -0.61625099963E+02 -0.21865545288E+02 -0.83530623388E+02  0.20238234540E+03  0.17235281741E+03 0.  0.
        -24    2    3    3    0    0  0.11819152842E+02  0.21185264747E+02 -0.11162958285E+01  0.83800551259E+02  0.80204603725E+02 0.  0.
          6    2    1    2  501    0  0.61625099963E+02  0.21865545288E+02 -0.19730081977E+03  0.26960120096E+03  0.17170159888E+03 0.  0.
         24    2    5    5    0    0  0.56455081818E+00  0.48565171387E+02 -0.46060363845E+02  0.10426207611E+03  0.79938281240E+02 0.  0.
          5    1    5    5  501    0  0.61060549145E+02 -0.26699626099E+02 -0.15124045593E+03  0.16533912485E+03  0.47000000000E+01 0. -1.
        -11    1    6    6    0    0  0.38329066305E+02  0.11462406557E+02 -0.25648858950E+02  0.47522290068E+02  0.00000000000E+00 0.  1.
         12    1    6    6    0    0 -0.37764515487E+02  0.37102764830E+02 -0.20411504895E+02  0.56739786041E+02  0.00000000000E+00 0. -1.
         -5    1    3    3    0  503 -0.73444252804E+02 -0.43050810036E+02 -0.82414327559E+02  0.11858179414E+03  0.47000000000E+01 0.  1.
         13    1    4    4    0    0 -0.25158418469E+02  0.35382168817E+02 -0.62412887351E+01  0.43861116893E+02  0.00000000000E+00 0. -1.
        -14    1    4    4    0    0  0.36977571311E+02 -0.14196904069E+02  0.51249929066E+01  0.39939434366E+02  0.00000000000E+00 0.  1.
</event>
<event>
12    1  0.8053217E-002  0.2060602E+03  0.7818608E-02  0.1144804E+00
         21   -1    0    0  501  502  0.00000000000E+00  0.00000000000E+00  0.59225606646E+03  0.59225606646E+03  0.00000000000E+00 0.  1.
         21   -1    0    0  502  503 -0.00000000000E+00 -0.00000000000E+00 -0.80976266669E+02  0.80976266669E+02  0.00000000000E+00 0. -1.
         -6    2    1    2    0  503  0.72181404690E+02  0.87099548935E+02  0.37022785117E+03  0.42351955633E+03  0.17176631279E+03 0.  0.
        -24    2    3    3    0    0  0.35813893355E+02 -0.18534148823E+02  0.13252704045E+03  0.16083183413E+03  0.81714826002E+02 0.  0.
          6    2    1    2  501    0 -0.72181404690E+02 -0.87099548935E+02  0.14105194862E+03  0.24971277680E+03  0.17223336517E+03 0.  0.
         24    2    5    5    0    0 -0.11353998241E+03 -0.62255493894E+02  0.80425997646E+02  0.17208961689E+03  0.79871277793E+02 0.  0.
          5    1    5    5  501    0  0.41358577724E+02 -0.24844055040E+02  0.60625950978E+02  0.77623159908E+02  0.47000000000E+01 0. -1.
        -11    1    6    6    0    0 -0.46280455073E+02 -0.12159969777E+02  0.73809578573E+02  0.87963624731E+02  0.00000000000E+00 0.  1.
         12    1    6    6    0    0 -0.67259527341E+02 -0.50095524118E+02  0.66164190730E+01  0.84125992156E+02  0.00000000000E+00 0. -1.
         -5    1    3    3    0  503  0.36367511335E+02  0.10563369776E+03  0.23770081072E+03  0.26268772221E+03  0.47000000000E+01 0.  1.
         11    1    4    4    0    0  0.28012394874E+01  0.27641542235E+02  0.18270949898E+02  0.33252509829E+02  0.00000000000E+00 0. -1.
        -12    1    4    4    0    0  0.33012653868E+02 -0.46175691057E+02  0.11425609055E+03  0.12757932430E+03  0.00000000000E+00 0.  1.
</event>
<event>
12    1  0.8053217E-002  0.1724642E+03  0.7818608E-02  0.1175335E+00
         21   -1    0    0  501  502  0.00000000000E+00  0.00000000000E+00  0.14752340362E+04  0.14752340362E+04  0.00000000000E+00 0.  1.
         21   -1    0    0  502  503 -0.00000000000E+00 -0.00000000000E+00 -0.46953915941E+02  0.46953915941E+02  0.00000000000E+00 0.  1.
         -6    2    1    2    0  503  0.12316320260E+02  0.82819743785E+01  0.13917950807E+03  0.22161870399E+03  0.17182442099E+03 0.  0.
        -24    2    3    3    0    0  0.64815898005E+01  0.66890378541E+02  0.54601446356E+02  0.11844638386E+03  0.80820134610E+02 0.  0.
          6    2    1    2  501    0 -0.12316320260E+02 -0.82819743785E+01  0.12891006122E+04  0.13005692482E+04  0.17169652890E+03 0.  0.
         24    2    5    5    0    0 -0.73644987076E+02 -0.14334974280E+02  0.85973865313E+03  0.86678171251E+03  0.80814044935E+02 0.  0.
          5    1    5    5  501    0  0.61328666816E+02  0.60529999014E+01  0.42936195911E+03  0.43378753568E+03  0.47000000000E+01 0. -1.
        -13    1    6    6    0    0 -0.22549418749E+02 -0.41454021104E+02  0.25896073494E+03  0.26322533007E+03  0.00000000000E+00 0.  1.
         14    1    6    6    0    0 -0.51095568327E+02  0.27119046824E+02  0.60077791819E+03  0.60355638244E+03  0.00000000000E+00 0. -1.
         -5    1    3    3    0  503  0.58347304596E+01 -0.58608404163E+02  0.84578061714E+02  0.10317232013E+03  0.47000000000E+01 0.  1.
         11    1    4    4    0    0  0.10333621993E+02  0.80687894976E+01  0.57939530282E+02  0.59404362439E+02  0.00000000000E+00 0. -1.
        -12    1    4    4    0    0 -0.38520321926E+01  0.58821589044E+02 -0.33380839260E+01  0.59042021425E+02  0.00000000000E+00 0.  1.
</event>
<event>
12    1  0.8053217E-002  0.2278370E+03  0.7818608E-02  0.1128195E+00
         21   -1    0    0  503  502  0.00000000000E+00  0.00000000000E+00  0.18482894222E+04  0.18482894222E+04  0.00000000000E+00 0. -1.
         21   -1    0    0  501  503 -0.00000000000E+00 -0.00000000000E+00 -0.37997314317E+02  0.37997314317E+02  0.00000000000E+00 0.  1.
          6    2    1    2  501    0 -0.51660092637E+02 -0.13965220730E+03  0.42323863786E+03  0.48066689631E+03  0.17244772093E+03 0.  0.
         24    2    3    3    0    0 -0.83147268665E+02 -0.15385643979E+03  0.37195293108E+03  0.41865467014E+03  0.79608275562E+02 0.  0.
         -6    2    1    2    0  502  0.51660092637E+02  0.13965220730E+03  0.13870534700E+04  0.14056198402E+04  0.17227391649E+03 0.  0.
        -24    2    5    5    0    0  0.61372353527E+02  0.16713715026E+03  0.11149780042E+04  0.11319468616E+04  0.80164549059E+02 0.  0.
          5    1    3    3  501    0  0.31487176028E+02  0.14204232490E+02  0.51285706782E+02  0.62012226174E+02  0.47000000000E+01 0. -1.
        -13    1    4    4    0    0 -0.30741693603E+02 -0.30968549163E+02  0.34203962723E+02  0.55443789813E+02  0.00000000000E+00 0.  1.
         14    1    4    4    0    0 -0.52405575062E+02 -0.12288789063E+03  0.33774896836E+03  0.36321088033E+03  0.00000000000E+00 0. -1.
         -5    1    5    5    0  502 -0.97122608894E+01 -0.27484942958E+02  0.27207546579E+03  0.27367297854E+03  0.47000000000E+01 0.  1.
         13    1    6    6    0    0 -0.12307895677E+02  0.59342154968E+01  0.16579755751E+03  0.16635963839E+03  0.00000000000E+00 0. -1.
        -14    1    6    6    0    0  0.73680249203E+02  0.16120293477E+03  0.94918044669E+03  0.96558722323E+03  0.00000000000E+00 0.  1.
</event>
<event>
12    1  0.8053217E-002  0.2061206E+03  0.7818608E-02  0.1146721E+00
         21   -1    0    0  503  502  0.00000000000E+00  0.00000000000E+00  0.86739596022E+02  0.86739596022E+02  0.00000000000E+00 0.  1.
         21   -1    0    0  501  503 -0.00000000000E+00 -0.00000000000E+00 -0.57804787442E+03  0.57804787442E+03  0.00000000000E+00 0.  1.
          6    2    1    2  501    0  0.45053045662E+02 -0.83854615317E+02 -0.10467290948E+03  0.23117549522E+03  0.18282318829E+03 0.  0.
         24    2    3    3    0    0  0.73331797094E+02 -0.10423756980E+03 -0.48841126018E+02  0.16518738522E+03  0.93050487499E+02 0.  0.
         -6    2    1    2    0  502 -0.45053045662E+02  0.83854615317E+02 -0.38663536892E+03  0.43361197523E+03  0.17167138121E+03 0.  0.
        -24    2    5    5    0    0 -0.52933040374E+02 -0.11474723945E+02 -0.15374309809E+03  0.18179720788E+03  0.80496636759E+02 0.  0.
          5    1    3    3  501    0 -0.28278751431E+02  0.20382954483E+02 -0.55831783463E+02  0.65988109994E+02  0.47000000000E+01 0. -1.
        -11    1    4    4    0    0  0.11554949126E+02 -0.79529510938E+02 -0.56464145474E+02  0.98217410286E+02  0.00000000000E+00 0.  1.
         12    1    4    4    0    0  0.61776847968E+02 -0.24708058862E+02  0.76230194561E+01  0.66969974938E+02  0.00000000000E+00 0. -1.
         -5    1    5    5    0  502  0.78799947117E+01  0.95329339262E+02 -0.23289227083E+03  0.25181476735E+03  0.47000000000E+01 0.  1.
         11    1    6    6    0    0 -0.21269822603E+02 -0.74301140108E+01 -0.14757661830E+03  0.14928653729E+03  0.00000000000E+00 0. -1.
        -12    1    6    6    0    0 -0.31663217771E+02 -0.40446099345E+01 -0.61664797919E+01  0.32510670589E+02  0.00000000000E+00 0.  1.
</event>
<event>
12    1  0.8053217E-002  0.1808404E+03  0.7818608E-02  0.1167282E+00
         21   -1    0    0  501  502  0.00000000000E+00  0.00000000000E+00  0.20172974341E+03  0.20172974341E+03  0.00000000000E+00 0. -1.
         21   -1    0    0  502  503 -0.00000000000E+00 -0.00000000000E+00 -0.31412401458E+03  0.31412401458E+03  0.00000000000E+00 0. -1.
         -6    2    1    2    0  503 -0.40134972733E+02 -0.34866545289E+02 -0.23615868234E+03  0.29671711801E+03  0.17159147083E+03 0.  0.
        -24    2    3    3    0    0 -0.17761036014E+02 -0.75422908713E+02 -0.92839154002E+02  0.14602541664E+03  0.81855019584E+02 0.  0.
          6    2    1    2  501    0  0.40134972733E+02  0.34866545289E+02  0.12376441116E+03  0.21913663997E+03  0.17284890943E+03 0.  0.
         24    2    5    5    0    0  0.40485139478E+02  0.86252518823E+02  0.63707422958E+02  0.13995600645E+03  0.80315032714E+02 0.  0.
          5    1    5    5  501    0 -0.35016674449E+00 -0.51385973533E+02  0.60056988206E+02  0.79180633523E+02  0.47000000000E+01 0. -1.
        -11    1    6    6    0    0 -0.57096323857E+01  0.62559173886E+02  0.72168555262E+01  0.63232374169E+02  0.00000000000E+00 0.  1.
         12    1    6    6    0    0  0.46194771863E+02  0.23693344936E+02  0.56490567432E+02  0.76723632282E+02  0.00000000000E+00 0. -1.
         -5    1    3    3    0  503 -0.22373936719E+02  0.40556363424E+02 -0.14331952833E+03  0.15069170136E+03  0.47000000000E+01 0.  1.
         13    1    4    4    0    0 -0.45556513689E+02 -0.19814404923E+02 -0.50293832614E+02  0.70692829771E+02  0.00000000000E+00 0. -1.
        -14    1    4    4    0    0  0.27795477675E+02 -0.55608503790E+02 -0.42545321388E+02  0.75332586873E+02  0.00000000000E+00 0.  1.
</event>
<event>
12    1  0.8053217E-002  0.1884882E+03  0.7818608E-02  0.1159834E+00
         21   -1    0    0  503  502  0.00000000000E+00  0.00000000000E+00  0.28151538577E+03  0.28151538577E+03  0.00000000000E+00 0. -1.
         21   -1    0    0  501  503 -0.00000000000E+00 -0.00000000000E+00 -0.24925683811E+03  0.24925683811E+03  0.00000000000E+00 0.  1.
          6    2    1    2  501    0 -0.74703494052E+02 -0.14312438863E+02  0.20260149524E+03  0.27671606070E+03  0.17244986067E+03 0.  0.
         24    2    3    3    0    0 -0.28002545580E+02  0.55971267436E+02  0.11450246004E+03  0.15463285972E+03  0.82967358708E+02 0.  0.
         -6    2    1    2    0  502  0.74703494052E+02  0.14312438863E+02 -0.17034294758E+03  0.25405616318E+03  0.17245972378E+03 0.  0.
        -24    2    5    5    0    0  0.11176491174E+03  0.38587417078E+02 -0.11818141722E+03  0.18545777764E+03  0.80295427389E+02 0.  0.
          5    1    3    3  501    0 -0.46700948471E+02 -0.70283706300E+02  0.88099035203E+02  0.12208320099E+03  0.47000000000E+01 0. -1.
        -11    1    4    4    0    0 -0.39404361505E+02 -0.44346059653E+01  0.62983505084E+02  0.74426415662E+02  0.00000000000E+00 0.  1.
         12    1    4    4    0    0  0.11401815925E+02  0.60405873402E+02  0.51518954956E+02  0.80206444053E+02  0.00000000000E+00 0. -1.
         -5    1    5    5    0  502 -0.37061417686E+02 -0.24274978214E+02 -0.52161530360E+02  0.68598385533E+02  0.47000000000E+01 0.  1.
         13    1    6    6    0    0  0.24903872957E+02 -0.47091772738E+01  0.77159554184E+01  0.26493682395E+02  0.00000000000E+00 0. -1.
        -14    1    6    6    0    0  0.86861038781E+02  0.43296594351E+02 -0.12589737264E+03  0.15896409525E+03  0.00000000000E+00 0.  1.
</event>
<event>
12    1  0.8053217E-002  0.2377629E+03  0.7818608E-02  0.1121324E+00
         21   -1    0    0  501  502  0.00000000000E+00  0.00000000000E+00  0.85299125215E+02  0.85299125215E+02  0.00000000000E+00 0. -1.
         21   -1    0    0  502  503 -0.00000000000E+00 -0.00000000000E+00 -0.69554568706E+03  0.69554568706E+03  0.00000000000E+00 0. -1.
         -6    2    1    2    0  503  0.14649493173E+03  0.73415961968E+02 -0.39069633716E+03  0.45735633118E+03  0.17228034508E+03 0.  0.
        -24    2    3    3    0    0  0.98584462155E+02  0.65275249550E+02 -0.13667621767E+03  0.19868666655E+03  0.82560575363E+02 0.  0.
          6    2    1    2  501    0 -0.14649493173E+03 -0.73415961968E+02 -0.21955022468E+03  0.32348848110E+03  0.17202275359E+03 0.  0.
         24    2    5    5    0    0 -0.89230351217E+02  0.68649107816E+01 -0.55308735816E+02  0.13185965400E+03  0.79490436640E+02 0.  0.
          5    1    5    5  501    0 -0.57264580510E+02 -0.80280872750E+02 -0.16424148887E+03  0.19162882710E+03  0.47000000000E+01 0. -1.
        -11    1    6    6    0    0 -0.19989064272E+02 -0.21966526974E+02 -0.48072776596E+02  0.56507369850E+02  0.00000000000E+00 0.  1.
         12    1    6    6    0    0 -0.69241286945E+02  0.28831437755E+02 -0.72359592202E+01  0.75352284150E+02  0.00000000000E+00 0. -1.
         -5    1    3    3    0  503  0.47910469572E+02  0.81407124186E+01 -0.25402011949E+03  0.25866966463E+03  0.47000000000E+01 0.  1.
         13    1    4    4    0    0  0.46015344214E+02 -0.13742994420E+02 -0.33842030301E+02  0.58750019690E+02  0.00000000000E+00 0. -1.
        -14    1    4    4    0    0  0.52569117941E+02  0.79018243969E+02 -0.10283418737E+03  0.13993664686E+03  0.00000000000E+00 0.  1.
</event>
<event>
12    1  0.8053217E-002  0.2736945E+03  0.7818608E-02  0.1100085E+00
         21   -1    0    0  503  502  0.00000000000E+00  0.00000000000E+00  0.53306913021E+03  0.53306913021E+03  0.00000000000E+00 0. -1.
         21   -1    0    0  501  503 -0.00000000000E+00 -0.00000000000E+00 -0.32418868348E+03  0.32418868348E+03  0.00000000000E+00 0.  1.
          6    2    1    2  501    0 -0.20433251271E+03  0.19063135966E+02 -0.22048343999E+03  0.35145643738E+03  0.18108975995E+03 0.  0.
         24    2    3    3    0    0 -0.20216472863E+03  0.57627436198E+02 -0.14840979273E+03  0.26955036209E+03  0.80252303498E+02 0.  0.
         -6    2    1    2    0  502  0.20433251271E+03 -0.19063135966E+02  0.42936388672E+03  0.50580137631E+03  0.17136658414E+03 0.  0.
        -24    2    5    5    0    0  0.13758203993E+03 -0.77235198730E+02  0.31191441255E+03  0.35864131555E+03  0.80242749375E+02 0.  0.
          5    1    3    3  501    0 -0.21677840797E+01 -0.38564300232E+02 -0.72073647258E+02  0.81906075289E+02  0.47000000000E+01 0. -1.
        -13    1    4    4    0    0 -0.18200930083E+03  0.22031385490E+02 -0.12964622636E+03  0.22454601209E+03  0.00000000000E+00 0.  1.
         14    1    4    4    0    0 -0.20155427805E+02  0.35596050708E+02 -0.18763566369E+02  0.45004350000E+02  0.00000000000E+00 0. -1.
         -5    1    5    5    0  502  0.66750472787E+02  0.58172062763E+02  0.11744947417E+03  0.14716006077E+03  0.47000000000E+01 0.  1.
         11    1    6    6    0    0  0.12470888863E+03 -0.42725341237E+02  0.18976560665E+03  0.23106005097E+03  0.00000000000E+00 0. -1.
        -12    1    6    6    0    0  0.12873151302E+02 -0.34509857492E+02  0.12214880590E+03  0.12758126458E+03  0.00000000000E+00 0.  1.
</event>
<event>
12    1  0.8053217E-002  0.2429033E+03  0.7818608E-02  0.1117908E+00
         21   -1    0    0  503  502  0.00000000000E+00  0.00000000000E+00  0.14628125702E+03  0.14628125702E+03  0.00000000000E+00 0.  1.
         21   -1    0    0  501  503 -0.00000000000E+00 -0.00000000000E+00 -0.15367308661E+04  0.15367308661E+04  0.00000000000E+00 0. -1.
          6    2    1    2  501    0 -0.15071589914E+03 -0.81737544451E+02 -0.14180948503E+04  0.14387477257E+04  0.17206308527E+03 0.  0.
         24    2    3    3    0    0 -0.44021146409E+02 -0.44459107123E+02 -0.33773009489E+03  0.35247724976E+03  0.79146200584E+02 0.  0.
         -6    2    1    2    0  502  0.15071589914E+03  0.81737544451E+02  0.27645241219E+02  0.24426439744E+03  0.17176882158E+03 0.  0.
        -24    2    5    5    0    0  0.16585757771E+03  0.89520362802E+02 -0.97503585910E+01  0.20290785531E+03  0.74524471246E+02 0.  0.
          5    1    3    3  501    0 -0.10669475273E+03 -0.37278437328E+02 -0.10803647554E+04  0.10862704759E+04  0.47000000000E+01 0. -1.
        -13    1    4    4    0    0 -0.18087067961E+02 -0.57612435173E+02 -0.29277329851E+03  0.29893567709E+03  0.00000000000E+00 0.  1.
         14    1    4    4    0    0 -0.25934078448E+02  0.13153328050E+02 -0.44956796378E+02  0.53541572673E+02  0.00000000000E+00 0. -1.
         -5    1    5    5    0  502 -0.15141678571E+02 -0.77828183505E+01  0.37395599811E+02  0.41356542126E+02  0.47000000000E+01 0.  1.
         11    1    6    6    0    0  0.10485471295E+03  0.20407355886E+02 -0.24382360056E+02  0.10956947788E+03  0.00000000000E+00 0. -1.
        -12    1    6    6    0    0  0.61002864761E+02  0.69113006915E+02  0.14632001465E+02  0.93338377427E+02  0.00000000000E+00 0.  1.
</event>
<event>
12    1  0.8053217E-002  0.2673435E+03  0.7818608E-02  0.1103591E+00
         21   -1    0    0  503  502  0.00000000000E+00  0.00000000000E+00  0.89523504196E+03  0.89523504196E+03  0.00000000000E+00 0. -1.
         21   -1    0    0  501  503 -0.00000000000E+00 -0.00000000000E+00 -0.80038418118E+02  0.80038418118E+02  0.00000000000E+00 0. -1.
          6    2    1    2  501    0 -0.18322781036E+03 -0.74219270605E+02  0.47642234471E+03  0.54371750933E+03  0.17195798556E+03 0.  0.
         24    2    3    3    0    0 -0.58945376594E+02 -0.83352817373E+02  0.30422278169E+03  0.33110442290E+03  0.81586692398E+02 0.  0.
         -6    2    1    2    0  502  0.18322781036E+03  0.74219270605E+02  0.33877427914E+03  0.43155595075E+03  0.17997665351E+03 0.  0.
        -24    2    5    5    0    0  0.20938355349E+03  0.60800232372E+02  0.32230809401E+03  0.39753509335E+03  0.81323442207E+02 0.  0.
          5    1    3    3  501    0 -0.12428243376E+03  0.91335467687E+01  0.17219956301E+03  0.21261308643E+03  0.47000000000E+01 0. -1.
        -13    1    4    4    0    0 -0.25560521199E+02 -0.28296183348E+00  0.15493668541E+03  0.15703119689E+03  0.00000000000E+00 0.  1.
         14    1    4    4    0    0 -0.33384855396E+02 -0.83069855540E+02  0.14928609628E+03  0.17407322601E+03  0.00000000000E+00 0. -1.
         -5    1    5    5    0  502 -0.26155743130E+02  0.13419038233E+02  0.16466185126E+02  0.34020857402E+02  0.47000000000E+01 0.  1.
         11    1    6    6    0    0  0.84519775877E+02  0.41380235778E+02  0.20297490345E+03  0.22372913950E+03  0.00000000000E+00 0. -1.
        -12    1    6    6    0    0  0.12486377761E+03  0.19419996594E+02  0.11933319056E+03  0.17380595386E+03  0.00000000000E+00 0.  1.
</event>
<event>
12    1  0.8053217E-002  0.2083725E+03  0.7818608E-02  0.1142938E+00
         21   -1    0    0  503  502  0.00000000000E+00  0.00000000000E+00  0.69170744226E+02  0.69170744226E+02  0.00000000000E+00 0. -1.
         21   -1    0    0  501  503 -0.00000000000E+00 -0.00000000000E+00 -0.10986349736E+04  0.10986349736E+04  0.00000000000E+00 0. -1.
          6    2    1    2  501    0  0.97189744632E+02  0.67508641816E+02 -0.89721729914E+03  0.92100958604E+03  0.17104535223E+03 0.  0.
         24    2    3    3    0    0 -0.12490319414E+02  0.32444074861E+02 -0.29029334874E+03  0.30324101135E+03  0.80475192261E+02 0.  0.
         -6    2    1    2    0  502 -0.97189744632E+02 -0.67508641816E+02 -0.13224693029E+03  0.24679613184E+03  0.17151039892E+03 0.  0.
        -24    2    5    5    0    0 -0.29386368369E+01  0.66126318335E+01 -0.85984782832E+02  0.11819010237E+03  0.80766050627E+02 0.  0.
          5    1    3    3  501    0  0.10968006405E+03  0.35064566956E+02 -0.60692395039E+03  0.61776857468E+03  0.47000000000E+01 0. -1.
        -11    1    4    4    0    0  0.12068338784E+02  0.31105062133E+02 -0.41563788651E+02  0.53298388515E+02  0.00000000000E+00 0.  1.
         12    1    4    4    0    0 -0.24558658199E+02  0.13390127280E+01 -0.24872956009E+03  0.24994262284E+03  0.00000000000E+00 0. -1.
         -5    1    5    5    0  502 -0.94251107795E+02 -0.74121273650E+02 -0.46262147455E+02  0.12860602947E+03  0.47000000000E+01 0.  1.
         13    1    6    6    0    0 -0.34832943045E+02  0.12886012852E+02 -0.14884271673E+02  0.40011558225E+02  0.00000000000E+00 0. -1.
        -14    1    6    6    0    0  0.31894306208E+02 -0.62733810187E+01 -0.71100511159E+02  0.78178544147E+02  0.00000000000E+00 0.  1.
</event>
<event>
12    1  0.8053217E-002  0.2069067E+03  0.7818608E-02  0.1144393E+00
         21   -1    0    0  501  502  0.00000000000E+00  0.00000000000E+00  0.12834396746E+04  0.12834396746E+04  0.00000000000E+00 0.  1.
         21   -1    0    0  502  503 -0.00000000000E+00 -0.00000000000E+00 -0.50928801339E+02  0.50928801339E+02  0.00000000000E+00 0. -1.
         -6    2    1    2    0  503  0.65939920261E+02  0.90021188971E+02  0.22292411392E+03  0.30414726848E+03  0.17423694446E+03 0.  0.
        -24    2    3    3    0    0  0.91864377496E+02  0.24943774011E+02  0.89278741671E+02  0.15318262712E+03  0.80205784213E+02 0.  0.
          6    2    1    2  501    0 -0.65939920261E+02 -0.90021188971E+02  0.10095867594E+04  0.10302212075E+04  0.17215813690E+03 0.  0.
         24    2    5    5    0    0 -0.10731667288E+03 -0.25025859705E+02  0.65830669273E+03  0.67055997285E+03  0.64341382896E+02 0.  0.
          5    1    5    5  501    0  0.41376752617E+02 -0.64995329265E+02  0.35128006662E+03  0.35966123462E+03  0.47000000000E+01 0. -1.
        -11    1    6    6    0    0 -0.15256699097E+01  0.14261336837E+02  0.92979069210E+02  0.94078800525E+02  0.00000000000E+00 0.  1.
         12    1    6    6    0    0 -0.10579100297E+03 -0.39287196542E+02  0.56532762353E+03  0.57648117232E+03  0.00000000000E+00 0. -1.
         -5    1    3    3    0  503 -0.25924457235E+02  0.65077414960E+02  0.13364537224E+03  0.15096464137E+03  0.47000000000E+01 0.  1.
         11    1    4    4    0    0  0.38783571437E+02  0.39516131448E+02  0.93790256332E+01  0.56157423195E+02  0.00000000000E+00 0. -1.
        -12    1    4    4    0    0  0.53080806059E+02 -0.14572357437E+02  0.79899716038E+02  0.97025203922E+02  0.00000000000E+00 0.  1.
</event>
<event>
12    1  0.8053217E-002  0.1746689E+03  0.7818608E-02  0.1173243E+00
         21   -1    0    0  503  502  0.00000000000E+00  0.00000000000E+00  0.11344978579E+03  0.11344978579E+03  0.00000000000E+00 0.  1.
         21   -1    0    0  501  503 -0.00000000000E+00 -0.00000000000E+00 -0.46721554278E+03  0.46721554278E+03  0.00000000000E+00 0.  1.
          6    2    1    2  501    0 -0.16410051195E+02 -0.26889098861E+02 -0.36633771273E+03  0.40554462274E+03  0.17108713523E+03 0.  0.
         24    2    3    3    0    0 -0.28050078216E+01  0.48028582674E+02 -0.24862402272E+03  0.26527217702E+03  0.78998800009E+02 0.  0.
         -6    2    1    2    0  502  0.16410051195E+02  0.26889098861E+02  0.12571955748E+02  0.17512070583E+03  0.17180481403E+03 0.  0.
        -24    2    5    5    0    0  0.24876328562E+02  0.51495177348E+02  0.64140825684E+02  0.11716748938E+03  0.79646657402E+02 0.  0.
          5    1    3    3  501    0 -0.13605043373E+02 -0.74917681535E+02 -0.11771369001E+03  0.14027244572E+03  0.47000000000E+01 0. -1.
        -11    1    4    4    0    0  0.22368065156E+02  0.54099608432E+02 -0.11370106270E+03  0.12788678442E+03  0.00000000000E+00 0.  1.
         12    1    4    4    0    0 -0.25173072978E+02 -0.60710257579E+01 -0.13492296003E+03  0.13738539260E+03  0.00000000000E+00 0. -1.
         -5    1    5    5    0  502 -0.84662773671E+01 -0.24606078487E+02 -0.51568869936E+02  0.57953216454E+02  0.47000000000E+01 0.  1.
         13    1    6    6    0    0  0.49363663183E+02  0.31980616324E+02  0.18197315197E+02  0.61568444382E+02  0.00000000000E+00 0. -1.
        -14    1    6    6    0    0 -0.24487334621E+02  0.19514561024E+02  0.45943510486E+02  0.55599044997E+02  0.00000000000E+00 0.  1.
</event>
<event>
12    1  0.8053217E-002  0.2853922E+03  0.7818608E-02  0.1092872E+00
         21   -1    0    0  501  502  0.00000000000E+00  0.00000000000E+00  0.74772740425E+03  0.74772740425E+03  0.00000000000E+00 0. -1.
         21   -1    0    0  502  503 -0.00000000000E+00 -0.00000000000E+00 -0.50446289229E+03  0.50446289229E+03  0.00000000000E+00 0. -1.
         -6    2    1    2    0  503 -0.22415211730E+03  0.33319775163E+02 -0.43297779792E+03  0.51819277619E+03  0.17233572089E+03 0.  0.
        -24    2    3    3    0    0 -0.11006783362E+03  0.82108398158E+02 -0.27220078573E+03  0.31505023715E+03  0.79414527212E+02 0.  0.
          6    2    1    2  501    0  0.22415211730E+03 -0.33319775163E+02  0.67624230987E+03  0.73399752035E+03  0.17347714293E+03 0.  0.
         24    2    5    5    0    0  0.15296788686E+03  0.23196212302E+02  0.29874541906E+03  0.34568418801E+03  0.79444910193E+02 0.  0.
          5    1    5    5  501    0  0.71184230439E+02 -0.56515987466E+02  0.37749689081E+03  0.38831333234E+03  0.47000000000E+01 0. -1.
        -11    1    6    6    0    0  0.46311013397E+02 -0.92721187007E+01  0.33337851062E+02  0.57810850716E+02  0.00000000000E+00 0.  1.
         12    1    6    6    0    0  0.10665687347E+03  0.32468331003E+02  0.26540756800E+03  0.28787333729E+03  0.00000000000E+00 0. -1.
         -5    1    3    3    0  503 -0.11408428369E+03 -0.48788622995E+02 -0.16077701219E+03  0.20314253904E+03  0.47000000000E+01 0.  1.
         11    1    4    4    0    0 -0.19169519364E+02  0.84978754493E+01 -0.25487569999E+01  0.21122985633E+02  0.00000000000E+00 0. -1.
        -12    1    4    4    0    0 -0.90898314252E+02  0.73610522709E+02 -0.26965202873E+03  0.29392725152E+03  0.00000000000E+00 0.  1.
</event>
<event>
12    1  0.8053217E-002  0.1968227E+03  0.7818608E-02  0.1152479E+00
         21   -1    0    0  503  502  0.00000000000E+00  0.00000000000E+00  0.25463191831E+02  0.25463191831E+02  0.00000000000E+00 0. -1.
         21   -1    0    0  501  503 -0.00000000000E+00 -0.00000000000E+00 -0.31145904560E+04  0.31145904560E+04  0.00000000000E+00 0. -1.
          6    2    1    2  501    0 -0.64893278904E+02  0.70373292680E+02 -0.26681493453E+04  0.26753990588E+04  0.17197574468E+03 0.  0.
         24    2    3    3    0    0 -0.63511168767E+02  0.95444219607E+02 -0.25769832866E+04  0.25807217021E+04  0.78347792547E+02 0.  0.
         -6    2    1    2    0  502  0.64893278904E+02 -0.70373292680E+02 -0.42097791878E+03  0.46465458899E+03  0.17180786071E+03 0.  0.
        -24    2    5    5    0    0  0.14184442385E+02  0.22779665720E+02 -0.24692241674E+03  0.26077651869E+03  0.79458172871E+02 0.  0.
          5    1    3    3  501    0 -0.13821101367E+01 -0.25070926927E+02 -0.91166058704E+02  0.94677356665E+02  0.47000000000E+01 0. -1.
        -13    1    4    4    0    0 -0.74475197077E+01 -0.93866133022E+01 -0.78253521676E+02  0.79165571518E+02  0.00000000000E+00 0.  1.
         14    1    4    4    0    0 -0.56063649059E+02  0.10483083291E+03 -0.24987297650E+04  0.25015561306E+04  0.00000000000E+00 0. -1.
         -5    1    5    5    0  502  0.50708836519E+02 -0.93152958400E+02 -0.17405550204E+03  0.20387807030E+03  0.47000000000E+01 0.  1.
         13    1    6    6    0    0 -0.52887437675E+01 -0.28162932295E+02 -0.10136248284E+03  0.10533505824E+03  0.00000000000E+00 0. -1.
        -14    1    6    6    0    0  0.19473186152E+02  0.50942598015E+02 -0.14555993390E+03  0.15544146045E+03  0.00000000000E+00 0.  1.
</event>
<event>
12    1  0.8053217E-002  0.1755712E+03  0.7818608E-02  0.1172482E+00
         21   -1    0    0  503  502  0.00000000000E+00  0.00000000000E+00  0.66685006441E+03  0.66685006441E+03  0.00000000000E+00 0.  1.
         21   -1    0    0  501  503 -0.00000000000E+00 -0.00000000000E+00 -0.95194594892E+02  0.95194594892E+02  0.00000000000E+00 0.  1.
          6    2    1    2  501    0 -0.30668316250E+01  0.27399662415E+02  0.12114629379E+02  0.17598865057E+03  0.17339288892E+03 0.  0.
         24    2    3    3    0    0 -0.16793549412E+02 -0.36148570644E+02 -0.35027527302E+02  0.95544423667E+02  0.79454809568E+02 0.  0.
         -6    2    1    2    0  502  0.30668316250E+01 -0.27399662415E+02  0.55954084014E+03  0.58605600873E+03  0.17209168088E+03 0.  0.
        -24    2    5    5    0    0  0.36136961361E+02 -0.74582299752E+02  0.42221859859E+03  0.43706163712E+03  0.76719816447E+02 0.  0.
          5    1    3    3  501    0  0.13726717787E+02  0.63548233059E+02  0.47142156681E+02  0.80444226907E+02  0.47000000000E+01 0. -1.
        -13    1    4    4    0    0  0.20900898939E+02 -0.15199228132E+01 -0.38927675922E+02  0.44209972795E+02  0.00000000000E+00 0.  1.
         14    1    4    4    0    0 -0.37694448351E+02 -0.34628647830E+02  0.39001486209E+01  0.51334450872E+02  0.00000000000E+00 0. -1.
         -5    1    5    5    0  502 -0.33070129736E+02  0.47182637337E+02  0.13732224155E+03  0.14899437161E+03  0.47000000000E+01 0.  1.
         13    1    6    6    0    0  0.46576190981E+02 -0.60287237349E+02  0.19808210893E+03  0.21222727071E+03  0.00000000000E+00 0. -1.
        -14    1    6    6    0    0 -0.10439229621E+02 -0.14295062403E+02  0.22413648966E+03  0.22483436641E+03  0.00000000000E+00 0.  1.
</event>
<event>
12    1  0.8053217E-002  0.2325098E+03  0.7818608E-02  0.1124933E+00
         21   -1    0    0  503  502  0.00000000000E+00  0.00000000000E+00  0.55895494441E+03  0.55895494441E+03  0.00000000000E+00 0.  1.
         21   -1    0    0  501  503 -0.00000000000E+00 -0.00000000000E+00 -0.15506669579E+03  0.15506669579E+03  0.00000000000E+00 0.  1.
          6    2    1    2  501    0  0.63354692878E+02 -0.14256650329E+03 -0.17192518901E+02  0.23314459318E+03  0.17240009760E+03 0.  0.
         24    2    3    3    0    0 -0.36746600019E+01 -0.11421639371E+03  0.37296718673E+02  0.14210707415E+03  0.75792397903E+02 0.  0.
         -6    2    1    2    0  502 -0.63354692878E+02  0.14256650329E+03  0.42108076752E+03  0.48087704703E+03  0.17203109199E+03 0.  0.
        -24    2    5    5    0    0 -0.60854799359E+02  0.13400045051E+03  0.43275088077E+03  0.46545277164E+03  0.87826707088E+02 0.  0.
          5    1    3    3  501    0  0.67029352880E+02 -0.28350109573E+02 -0.54489237574E+02  0.91037519033E+02  0.47000000000E+01 0. -1.
        -13    1    4    4    0    0 -0.34204076460E+02 -0.31064172000E+02  0.55109201372E+00  0.46208282060E+02  0.00000000000E+00 0.  1.
         14    1    4    4    0    0  0.30529416458E+02 -0.83152221715E+02  0.36745626659E+02  0.95898792088E+02  0.00000000000E+00 0. -1.
         -5    1    5    5    0  502 -0.24998935194E+01  0.85660527765E+01 -0.11670113253E+02  0.15424275384E+02  0.47000000000E+01 0.  1.
         13    1    6    6    0    0  0.14696758949E+02  0.18043211355E+01  0.78205576335E+02  0.79594990221E+02  0.00000000000E+00 0. -1.
        -14    1    6    6    0    0 -0.75551558308E+02  0.13219612938E+03  0.35454530444E+03  0.38585778142E+03  0.00000000000E+00 0.  1.
</event>
<event>
12    1  0.8053217E-002  0.2875595E+03  0.7818608E-02  0.1092091E+00
         21   -1    0    0  501  502  0.00000000000E+00  0.00000000000E+00  0.12140057978E+04  0.12140057978E+04  0.00000000000E+00 0. -1.
         21   -1    0    0  502  503 -0.00000000000E+00 -0.00000000000E+00 -0.13152718463E+03  0.13152718463E+03  0.00000000000E+00 0. -1.
         -6    2    1    2    0  503 -0.47270581143E+01 -0.22740208152E+03  0.69411396698E+02  0.29244436986E+03  0.17021079788E+03 0.  0.
        -24    2    3    3    0    0 -0.37657419649E+02 -0.22907047508E+03  0.40824090643E+02  0.24855227131E+03  0.78868633728E+02 0.  0.
          6    2    1    2  501    0  0.47270581143E+01  0.22740208152E+03  0.10130672165E+04  0.10530886126E+04  0.17594427832E+03 0.  0.
         24    2    5    5    0    0 -0.34786880491E+02  0.44109727211E+02  0.41597667936E+03  0.42723188935E+03  0.79590793535E+02 0.  0.
          5    1    5    5  501    0  0.39513938605E+02  0.18329235430E+03  0.59709053710E+03  0.62585672321E+03  0.47000000000E+01 0. -1.
        -11    1    6    6    0    0 -0.20084274548E+02  0.20127930853E+02  0.34447050993E+02  0.44666665498E+02  0.00000000000E+00 0.  1.
         12    1    6    6    0    0 -0.14702605943E+02  0.23981796357E+02  0.38152962836E+03  0.38256522385E+03  0.00000000000E+00 0. -1.
         -5    1    3    3    0  503  0.32930361535E+02  0.16683935663E+01  0.28587306055E+02  0.43892098553E+02  0.47000000000E+01 0.  1.
         13    1    4    4    0    0 -0.10300967177E+02 -0.69915088789E+02  0.50366210369E+02  0.86781246316E+02  0.00000000000E+00 0. -1.
        -14    1    4    4    0    0 -0.27356452472E+02 -0.15915538629E+03 -0.95421197257E+01  0.16177102499E+03  0.00000000000E+00 0.  1.
</event>
<event>
12    1  0.8053217E-002  0.1735388E+03  0.7818608E-02  0.1175150E+00
         21   -1    0    0  501  502  0.00000000000E+00  0.00000000000E+00  0.66245624739E+03  0.66245624739E+03  0.00000000000E+00 0.  1.
         21   -1    0    0  502  503 -0.00000000000E+00 -0.00000000000E+00 -0.27872656799E+03  0.27872656799E+03  0.00000000000E+00 0.  1.
         -6    2    1    2    0  503  0.56054631938E+01 -0.11207959261E+02 -0.23919318695E+03  0.29551493941E+03  0.17308569890E+03 0.  0.
        -24    2    3    3    0    0  0.52355134642E+01  0.58385718803E+02 -0.10620009283E+03  0.14533947546E+03  0.80054985160E+02 0.  0.
          6    2    1    2  501    0 -0.56054631938E+01  0.11207959261E+02  0.62292286635E+03  0.64566787597E+03  0.16940209287E+03 0.  0.
         24    2    5    5    0    0  0.26338408338E+02 -0.33450417482E+02  0.53172205950E+03  0.53911057349E+03  0.78097501283E+02 0.  0.
          5    1    5    5  501    0 -0.31943871532E+02  0.44658376743E+02  0.91200806850E+02  0.10655730248E+03  0.47000000000E+01 0. -1.
        -11    1    6    6    0    0 -0.21548239113E+02 -0.34922054017E+02  0.24796688334E+03  0.25133931587E+03  0.00000000000E+00 0.  1.
         12    1    6    6    0    0  0.47886647451E+02  0.14716365349E+01  0.28375517615E+03  0.28777125762E+03  0.00000000000E+00 0. -1.
         -5    1    3    3    0  503  0.36994972958E+00 -0.69593678064E+02 -0.13299309413E+03  0.15017546396E+03  0.47000000000E+01 0.  1.
         11    1    4    4    0    0  0.96950377290E+01 -0.18904575578E+01  0.10189968249E+02  0.14191653859E+02  0.00000000000E+00 0. -1.
        -12    1    4    4    0    0 -0.44595242648E+01  0.60276176361E+02 -0.11639006108E+03  0.13114782160E+03  0.00000000000E+00 0.  1.
</event>
<event>
12    1  0.8053217E-002  0.1954745E+03  0.7818608E-02  0.1154177E+00
         21   -1    0    0  501  502  0.00000000000E+00  0.00000000000E+00  0.50808297324E+03  0.50808297324E+03  0.00000000000E+00 0.  1.
         21   -1    0    0  502  503 -0.00000000000E+00 -0.00000000000E+00 -0.11639918255E+03  0.11639918255E+03  0.00000000000E+00 0.  1.
         -6    2    1    2    0  503 -0.47775584488E+02  0.79368540794E+02  0.70543847779E+01  0.19303103173E+03  0.16920207778E+03 0.  0.
        -24    2    3    3    0    0  0.32944913594E+02  0.30054716053E+02  0.28838362232E+02  0.95849326691E+02  0.79792161282E+02 0.  0.
          6    2    1    2  501    0  0.47775584488E+02 -0.79368540794E+02  0.38462940591E+03  0.43145112405E+03  0.17212908185E+03 0.  0.
         24    2    5    5    0    0  0.42748807951E+02 -0.12167280729E+03  0.31743338518E+03  0.35174971473E+03  0.79574965738E+02 0.  0.
          5    1    5    5  501    0  0.50267765370E+01  0.42304266498E+02  0.67196020726E+02  0.79701409320E+02  0.47000000000E+01 0. -1.
        -11    1    6    6    0    0  0.34525908163E+02 -0.33519662711E+02  0.19379814183E+03  0.19968306362E+03  0.00000000000E+00 0.  1.
         12    1    6    6    0    0  0.82228997878E+01 -0.88153144581E+02  0.12363524335E+03  0.15206665111E+03  0.00000000000E+00 0. -1.
         -5    1    3    3    0  503 -0.80720498082E+02  0.49313824741E+02 -0.21783977454E+02  0.97181705043E+02  0.47000000000E+01 0.  1.
         13    1    4    4    0    0  0.41455683673E+02  0.21654786375E+02 -0.16009315382E+02  0.49434822350E+02  0.00000000000E+00 0. -1.
        -14    1    4    4    0    0 -0.85107700784E+01  0.83999296774E+01  0.44847677613E+02  0.46414504341E+02  0.00000000000E+00 0.  1.
</event>
<event>
12    1  0.8053217E-002  0.2619133E+03  0.7818608E-02  0.1106017E+00
         21   -1    0    0  501  502  0.00000000000E+00  0.00000000000E+00  0.73924031587E+02  0.73924031587E+02  0.00000000000E+00 0. -1.
         21   -1    0    0  502  503 -0.00000000000E+00 -0.00000000000E+00 -0.95048052518E+03  0.95048052518E+03  0.00000000000E+00 0. -1.
         -6    2    1    2    0  503  0.11700000722E+03  0.15931447913E+03 -0.51778066758E+03  0.58019887626E+03  0.17165025881E+03 0.  0.
        -24    2    3    3    0    0  0.90848096401E+02  0.65354495335E+02 -0.42041584989E+03  0.44230616900E+03  0.79753831326E+02 0.  0.
          6    2    1    2  501    0 -0.11700000722E+03 -0.15931447913E+03 -0.35877582602E+03  0.44420568051E+03  0.17183855304E+03 0.  0.
         24    2    5    5    0    0 -0.96828397822E+02 -0.18092291472E+03 -0.25787394214E+03  0.33895788488E+03  0.79275708709E+02 0.  0.
          5    1    5    5  501    0 -0.20171609395E+02  0.21608435595E+02 -0.10090188388E+03  0.10524779563E+03  0.47000000000E+01 0. -1.
        -13    1    6    6    0    0 -0.57180129923E+02 -0.15659531738E+03 -0.23213695475E+03  0.28579577752E+03  0.00000000000E+00 0.  1.
         14    1    6    6    0    0 -0.39648267898E+02 -0.24327597341E+02 -0.25736987389E+02  0.53162107366E+02  0.00000000000E+00 0. -1.
         -5    1    3    3    0  503  0.26151910815E+02  0.93959983794E+02 -0.97364817683E+02  0.13789270726E+03  0.47000000000E+01 0.  1.
         13    1    4    4    0    0  0.99563005455E+02  0.62709324561E+02 -0.31105075854E+03  0.33256251416E+03  0.00000000000E+00 0. -1.
        -14    1    4    4    0    0 -0.87149090536E+01  0.26451707742E+01 -0.10936509136E+03  0.10974365483E+03  0.00000000000E+00 0.  1.
</event>
<event>
12    1  0.8053217E-002  0.1792778E+03  0.7818608E-02  0.1168721E+00
         21   -1    0    0  501  502  0.00000000000E+00  0.00000000000E+00  0.90567375984E+03  0.90567375984E+03  0.00000000000E+00 0.  1.
         21   -1    0    0  502  503 -0.00000000000E+00 -0.00000000000E+00 -0.42777635821E+02  0.42777635821E+02  0.00000000000E+00 0.  1.
         -6    2    1    2    0  503  0.45022997933E+02  0.17927342307E+02  0.23421989159E+03  0.29495673624E+03  0.17260376211E+03 0.  0.
        -24    2    3    3    0    0  0.38322993129E+02 -0.29758949448E+02  0.22847614407E+03  0.24623350645E+03  0.77944495748E+02 0.  0.
          6    2    1    2  501    0 -0.45022997933E+02 -0.17927342307E+02  0.62867623243E+03  0.65349465942E+03  0.17167703608E+03 0.  0.
         24    2    5    5    0    0 -0.65481422351E+02 -0.32360494849E+02  0.26120924900E+03  0.28514572575E+03  0.87993152290E+02 0.  0.
          5    1    5    5  501    0  0.20458424418E+02  0.14433152541E+02  0.36746698343E+03  0.36834893367E+03  0.47000000000E+01 0. -1.
        -13    1    6    6    0    0 -0.65129364533E+02 -0.20243367947E+02  0.26403248300E+03  0.27269906518E+03  0.00000000000E+00 0.  1.
         14    1    6    6    0    0 -0.35205781798E+00 -0.12117126902E+02 -0.28232340023E+01  0.12446660568E+02  0.00000000000E+00 0. -1.
         -5    1    3    3    0  503  0.67000048036E+01  0.47686291755E+02  0.57437475201E+01  0.48723229792E+02  0.47000000000E+01 0.  1.
         11    1    4    4    0    0 -0.12364148370E+02  0.13058569334E+02  0.17590633800E+02  0.25156088635E+02  0.00000000000E+00 0. -1.
        -12    1    4    4    0    0  0.50687141499E+02 -0.42817518782E+02  0.21088551027E+03  0.22107741782E+03  0.00000000000E+00 0.  1.
</event>
<event>
12    1  0.8053217E-002  0.1958907E+03  0.7818608E-02  0.1153493E+00
         21   -1    0    0  503  502  0.00000000000E+00  0.00000000000E+00  0.40630383156E+03  0.40630383156E+03  0.00000000000E+00 0. -1.
         21   -1    0    0  501  503 -0.00000000000E+00 -0.00000000000E+00 -0.10397440033E+03  0.10397440033E+03  0.00000000000E+00 0.  1.
          6    2    1    2  501    0  0.74733638770E+02 -0.53240761149E+02  0.23091641518E+03  0.30281273121E+03  0.17307069068E+03 0.  0.
         24    2    3    3    0    0  0.33586946157E+01  0.25171281040E+02  0.13382757034E+03  0.15896849321E+03  0.81952968416E+02 0.  0.
         -6    2    1    2    0  502 -0.74733638770E+02  0.53240761149E+02  0.71413016044E+02  0.20746550068E+03  0.17182089424E+03 0.  0.
        -24    2    5    5    0    0 -0.32470746849E+02 -0.31716367012E+02  0.69441263855E+02  0.11244001217E+03  0.75897232323E+02 0.  0.
          5    1    3    3  501    0  0.71374944154E+02 -0.78412042189E+02  0.97088844837E+02  0.14384423800E+03  0.47000000000E+01 0. -1.
        -11    1    4    4    0    0 -0.32353692178E+02 -0.34053851246E+01  0.25351094792E+02  0.41243618325E+02  0.00000000000E+00 0.  1.
         12    1    4    4    0    0  0.35712386794E+02  0.28576666165E+02  0.10847647555E+03  0.11772487489E+03  0.00000000000E+00 0. -1.
         -5    1    5    5    0  502 -0.42262891921E+02  0.84957128160E+02  0.19717521894E+01  0.95025488504E+02  0.47000000000E+01 0.  1.
         13    1    6    6    0    0 -0.57504818936E+02 -0.21669553241E+02  0.47583044947E+02  0.77720781680E+02  0.00000000000E+00 0. -1.
        -14    1    6    6    0    0  0.25034072087E+02 -0.10046813770E+02  0.21858218908E+02  0.34719230493E+02  0.00000000000E+00 0.  1.
</event>
<event>
12    1  0.8053217E-002  0.1890044E+03  0.7818608E-02  0.1160433E+00
         21   -1    0    0  501  502  0.00000000000E+00  0.00000000000E+00  0.55654504739E+02  0.55654504739E+02  0.00000000000E+00 0.  1.
         21   -1    0    0  502  503 -0.00000000000E+00 -0.00000000000E+00 -0.62711056645E+03  0.62711056645E+03  0.00000000000E+00 0.  1.
         -6    2    1    2    0  503 -0.43006582186E+01  0.71579121760E+02 -0.26888320825E+03  0.32601166293E+03  0.16983332523E+03 0.  0.
        -24    2    3    3    0    0  0.45876631726E+02  0.84823955279E+02 -0.22601882191E+03  0.25853847079E+03  0.80360838074E+02 0.  0.
          6    2    1    2  501    0  0.43006582186E+01 -0.71579121760E+02 -0.30257285346E+03  0.35675340825E+03  0.17487308631E+03 0.  0.
         24    2    5    5    0    0  0.67125127142E+02 -0.19887022441E+02 -0.16344328133E+03  0.19551409894E+03  0.81306705235E+02 0.  0.
          5    1    5    5  501    0 -0.62824468923E+02 -0.51692099320E+02 -0.13912957213E+03  0.16123930932E+03  0.47000000000E+01 0. -1.
        -11    1    6    6    0    0  0.47569832480E+02  0.24078374567E+02 -0.53638882138E+02  0.75629271853E+02  0.00000000000E+00 0.  1.
         12    1    6    6    0    0  0.19555294662E+02 -0.43965397007E+02 -0.10980439919E+03  0.11988482708E+03  0.00000000000E+00 0. -1.
         -5    1    3    3    0  503 -0.50177289945E+02 -0.13244833518E+02 -0.42864386342E+02  0.67473192140E+02  0.47000000000E+01 0.  1.
         13    1    4    4    0    0  0.51574101023E+02  0.30554191215E+02 -0.17033194817E+03  0.18057247593E+03  0.00000000000E+00 0. -1.
        -14    1    4    4    0    0 -0.56974692974E+01  0.54269764064E+02 -0.55686873739E+02  0.77965994862E+02  0.00000000000E+00 0.  1.
</event>
<event>
12    1  0.8053217E-002  0.2132936E+03  0.7818608E-02  0.1139489E+00
         21   -1    0    0  501  502  0.00000000000E+00  0.00000000000E+00  0.28552384545E+02  0.28552384545E+02  0.00000000000E+00 0. -1.
         21   -1    0    0  502  503 -0.00000000000E+00 -0.00000000000E+00 -0.19973584940E+04  0.19973584940E+04  0.00000000000E+00 0. -1.
         -6    2    1    2    0  503  0.54136117453E+02  0.11480860871E+03 -0.14554189016E+04  0.14709650985E+04  0.17141296979E+03 0.  0.
        -24    2    3    3    0    0  0.47200168463E+02  0.12553659535E+03 -0.78763339764E+03  0.80304087652E+03  0.80752632274E+02 0.  0.
          6    2    1    2  501    0 -0.54136117453E+02 -0.11480860871E+03 -0.51338720791E+03  0.55494578004E+03  0.16818637783E+03 0.  0.
         24    2    5    5    0    0 -0.26964352865E+02 -0.79738636340E+02 -0.49194946051E+03  0.50544957042E+03  0.79872836975E+02 0.  0.
          5    1    5    5  501    0 -0.27171764588E+02 -0.35069972375E+02 -0.21437747400E+02  0.49496209621E+02  0.47000000000E+01 0. -1.
        -13    1    6    6    0    0  0.13277482102E+02 -0.77761248933E+01 -0.15219759877E+02  0.21642567778E+02  0.00000000000E+00 0.  1.
         14    1    6    6    0    0 -0.40241834967E+02 -0.71962511446E+02 -0.47672970064E+03  0.48380700264E+03  0.00000000000E+00 0. -1.
         -5    1    3    3    0  503  0.69359489895E+01 -0.10727986635E+02 -0.66778550394E+03  0.66792422202E+03  0.47000000000E+01 0.  1.
         13    1    4    4    0    0  0.51425090946E+02  0.97908306727E+02 -0.73659425263E+03  0.74485009869E+03  0.00000000000E+00 0. -1.
        -14    1    4    4    0    0 -0.42249224823E+01  0.27628288623E+02 -0.51039145002E+02  0.58190777832E+02  0.00000000000E+00 0.  1.
</event>
<event>
12    1  0.8053217E-002  0.2267493E+03  0.7818608E-02  0.1129182E+00
         21   -1    0    0  501  502  0.00000000000E+00  0.00000000000E+00  0.17891278134E+03  0.17891278134E+03  0.00000000000E+00 0. -1.
         21   -1    0    0  502  503 -0.00000000000E+00 -0.00000000000E+00 -0.30133175014E+03  0.30133175014E+03  0.00000000000E+00 0. -1.
         -6    2    1    2    0  503  0.28130019132E+02  0.14265873913E+03 -0.11566652583E+03  0.25339470380E+03  0.17230007804E+03 0.  0.
        -24    2    3    3    0    0 -0.39573702320E+02  0.40660187645E+02 -0.77023922314E+02  0.12493132688E+03  0.80348136588E+02 0.  0.
          6    2    1    2  501    0 -0.28130019132E+02 -0.14265873913E+03 -0.67524429735E+01  0.22684982767E+03  0.17398975545E+03 0.  0.
         24    2    5    5    0    0 -0.50633007293E+02 -0.15739611152E+03 -0.35977272453E+02  0.18685288680E+03  0.79261591097E+02 0.  0.
          5    1    5    5  501    0  0.22502988161E+02  0.14737372387E+02  0.29224829479E+02  0.39996940872E+02  0.47000000000E+01 0. -1.
        -11    1    6    6    0    0 -0.52318658634E+02 -0.85602461716E+02 -0.52401202491E+02  0.11318528842E+03  0.00000000000E+00 0.  1.
         12    1    6    6    0    0  0.16856513404E+01 -0.71793649805E+02  0.16423930038E+02  0.73667598377E+02  0.00000000000E+00 0. -1.
         -5    1    3    3    0  503  0.67703721452E+02  0.10199855149E+03 -0.38642603512E+02  0.12846337692E+03  0.47000000000E+01 0.  1.
         13    1    4    4    0    0 -0.85632739558E+01 -0.55206449743E+01 -0.67780514375E+02  0.68541996694E+02  0.00000000000E+00 0. -1.
        -14    1    4    4    0    0 -0.31010428364E+02  0.46180832619E+02 -0.92434079384E+01  0.56389330188E+02  0.00000000000E+00 0.  1.
</event>
<event>
12    1  0.8053217E-002  0.1945062E+03  0.7818608E-02  0.1154509E+00
         21   -1    0    0  501  502  0.00000000000E+00  0.00000000000E+00  0.13377981860E+04  0.13377981860E+04  0.00000000000E+00 0.  1.
         21   -1    0    0  502  503 -0.00000000000E+00 -0.00000000000E+00 -0.37048089193E+02  0.37048089193E+02  0.00000000000E+00 0.  1.
         -6    2    1    2    0  503  0.75960776374E+02 -0.48847658170E+02  0.31502492512E+03  0.37011408697E+03  0.17201046675E+03 0.  0.
        -24    2    3    3    0    0 -0.37023463802E+01  0.28700830880E+02  0.14437994141E+03  0.16639422602E+03  0.77485649696E+02 0.  0.
          6    2    1    2  501    0 -0.75960776374E+02  0.48847658170E+02  0.98572517165E+03  0.10047321882E+04  0.17226875136E+03 0.  0.
         24    2    5    5    0    0 -0.10379144479E+01  0.34935977404E+02  0.25042816752E+03  0.26548206517E+03  0.80900309356E+02 0.  0.
          5    1    5    5  501    0 -0.74922861926E+02  0.13911680766E+02  0.73529700413E+03  0.73925012302E+03  0.47000000000E+01 0. -1.
        -13    1    6    6    0    0  0.35633588432E+02  0.21928557897E+02  0.18216434568E+03  0.18690763257E+03  0.00000000000E+00 0.  1.
         14    1    6    6    0    0 -0.36671502880E+02  0.13007419507E+02  0.68263821846E+02  0.78574432601E+02  0.00000000000E+00 0. -1.
         -5    1    3    3    0  503  0.79663122754E+02 -0.77548489050E+02  0.17064498370E+03  0.20371986095E+03  0.47000000000E+01 0.  1.
         11    1    4    4    0    0  0.35935504978E+02  0.18794582363E+02  0.86636155974E+02  0.95657829613E+02  0.00000000000E+00 0. -1.
        -12    1    4    4    0    0 -0.39637851359E+02  0.99062485174E+01  0.57743785439E+02  0.70736396409E+02  0.00000000000E+00 0.  1.
</event>
<event>
12    1  0.8053217E-002  0.2340302E+03  0.7818608E-02  0.1124545E+00
         21   -1    0    0  501  502  0.00000000000E+00  0.00000000000E+00  0.70086362551E+02  0.70086362551E+02  0.00000000000E+00 0. -1.
         21   -1    0    0  502  503 -0.00000000000E+00 -0.00000000000E+00 -0.84871023061E+03  0.84871023061E+03  0.00000000000E+00 0. -1.
         -6    2    1    2    0  503 -0.57617093889E+02  0.14850977927E+03 -0.53420100685E+03  0.58321595781E+03  0.17145044087E+03 0.  0.
        -24    2    3    3    0    0  0.10048116791E+02  0.10510717059E+03 -0.19859723107E+03  0.23808648718E+03  0.78075817190E+02 0.  0.
          6    2    1    2  501    0  0.57617093889E+02 -0.14850977927E+03 -0.24442286121E+03  0.33558063535E+03  0.16582202416E+03 0.  0.
         24    2    5    5    0    0 -0.30476879042E+02 -0.77527114367E+02 -0.13786242660E+03  0.18009332716E+03  0.80549762277E+02 0.  0.
          5    1    5    5  501    0  0.88093972931E+02 -0.70982664904E+02 -0.10656043461E+03  0.15548730819E+03  0.47000000000E+01 0. -1.
        -11    1    6    6    0    0  0.14547632156E+02  0.24453877784E+01 -0.53283610626E+02  0.55287943388E+02  0.00000000000E+00 0.  1.
         12    1    6    6    0    0 -0.45024511198E+02 -0.79972502146E+02 -0.84578815974E+02  0.12480538378E+03  0.00000000000E+00 0. -1.
         -5    1    3    3    0  503 -0.67665210680E+02  0.43402608685E+02 -0.33560377578E+03  0.34512947063E+03  0.47000000000E+01 0.  1.
         11    1    4    4    0    0 -0.27948743283E+02  0.20088057832E+02 -0.81533008756E+02  0.88500247657E+02  0.00000000000E+00 0. -1.
        -12    1    4    4    0    0  0.37996860074E+02  0.85019112755E+02 -0.11706422232E+03  0.14958623953E+03  0.00000000000E+00 0.  1.
</event>
<event>
12    1  0.8053217E-002  0.1735805E+03  0.7818608E-02  0.1174491E+00
         21   -1    0    0  503  502  0.00000000000E+00  0.00000000000E+00  0.16880215353E+03  0.16880215353E+03  0.00000000000E+00 0. -1.
         21   -1    0    0  501  503 -0.00000000000E+00 -0.00000000000E+00 -0.27455211246E+03  0.27455211246E+03  0.00000000000E+00 0. -1.
          6    2    1    2  501    0 -0.19349025579E+02  0.13715084780E+02 -0.18501722832E+03  0.25369581817E+03  0.17195262440E+03 0.  0.
         24    2    3    3    0    0 -0.12854249715E+02 -0.51156489382E+02 -0.58651563412E+02  0.11142539076E+03  0.78698117343E+02 0.  0.
         -6    2    1    2    0  502  0.19349025579E+02 -0.13715084780E+02  0.79267269396E+02  0.18965844782E+03  0.17065912953E+03 0.  0.
        -24    2    5    5    0    0 -0.13978586362E+02 -0.67132058026E+02  0.26280634344E+02  0.10723408102E+03  0.78143216595E+02 0.  0.
          5    1    3    3  501    0 -0.64947758645E+01  0.64871574162E+02 -0.12636566491E+03  0.14227042741E+03  0.47000000000E+01 0. -1.
        -13    1    4    4    0    0 -0.38639096685E+02 -0.54168900739E+02 -0.52476197623E+02  0.84740786619E+02  0.00000000000E+00 0.  1.
         14    1    4    4    0    0  0.25784846970E+02  0.30124113566E+01 -0.61753657892E+01  0.26684604139E+02  0.00000000000E+00 0. -1.
         -5    1    5    5    0  502  0.33327611941E+02  0.53416973246E+02  0.52986635052E+02  0.82424366801E+02  0.47000000000E+01 0.  1.
         11    1    6    6    0    0  0.16163385937E+01 -0.31718529851E+02  0.51885754595E+02  0.60834276656E+02  0.00000000000E+00 0. -1.
        -12    1    6    6    0    0 -0.15594924956E+02 -0.35413528174E+02 -0.25605120251E+02  0.46399804366E+02  0.00000000000E+00 0.  1.
</event>
<event>
12    1  0.8053217E-002  0.1760760E+03  0.7818608E-02  0.1172375E+00
         21   -1    0    0  501  502  0.00000000000E+00  0.00000000000E+00  0.37177761137E+03  0.37177761137E+03  0.00000000000E+00 0. -1.
         21   -1    0    0  502  503 -0.00000000000E+00 -0.00000000000E+00 -0.83430118858E+02  0.83430118858E+02  0.00000000000E+00 0. -1.
         -6    2    1    2    0  503 -0.68476528739E+01 -0.33240445559E+02  0.17239149386E+03  0.24437946113E+03  0.16985486834E+03 0.  0.
        -24    2    3    3    0    0  0.60861636825E+02 -0.28680589765E+02  0.95565360624E+02  0.14176520801E+03  0.80236656111E+02 0.  0.
          6    2    1    2  501    0  0.68476528739E+01  0.33240445559E+02  0.11595599865E+03  0.21082826910E+03  0.17277426850E+03 0.  0.
         24    2    5    5    0    0 -0.37781814019E+02  0.62783787678E+02  0.11279858290E+03  0.15700766289E+03  0.80985285303E+02 0.  0.
          5    1    5    5  501    0  0.44629466893E+02 -0.29543342120E+02  0.31574157575E+01  0.53820606211E+02  0.47000000000E+01 0. -1.
        -13    1    6    6    0    0  0.56212665661E+01 -0.17211971149E+02  0.21239304880E+02  0.27909830892E+02  0.00000000000E+00 0.  1.
         14    1    6    6    0    0 -0.43403080585E+02  0.79995758827E+02  0.91559278017E+02  0.12909783199E+03  0.00000000000E+00 0. -1.
         -5    1    3    3    0  503 -0.67709289699E+02 -0.45598557942E+01  0.76826133236E+02  0.10261425312E+03  0.47000000000E+01 0.  1.
         11    1    4    4    0    0  0.89101523454E+01  0.20960653906E+02  0.73699904927E+00  0.22787781695E+02  0.00000000000E+00 0. -1.
        -12    1    4    4    0    0  0.51951484480E+02 -0.49641243671E+02  0.94828361575E+02  0.11897742631E+03  0.00000000000E+00 0.  1.
</event>
<event>
12    1  0.8053217E-002  0.1888226E+03  0.7818608E-02  0.1159912E+00
         21   -1    0    0  501  502  0.00000000000E+00  0.00000000000E+00  0.10536246153E+03  0.10536246153E+03  0.00000000000E+00 0. -1.
         21   -1    0    0  502  503 -0.00000000000E+00 -0.00000000000E+00 -0.49027099283E+03  0.49027099283E+03  0.00000000000E+00 0. -1.
         -6    2    1    2    0  503 -0.67944670157E+02  0.35883651559E+02 -0.36043701430E+03  0.40690149083E+03  0.17248149845E+03 0.  0.
        -24    2    3    3    0    0 -0.49090268114E+02  0.89149097586E+02 -0.27994249620E+03  0.30844259757E+03  0.80072584539E+02 0.  0.
          6    2    1    2  501    0  0.67944670157E+02 -0.35883651559E+02 -0.24471516997E+02  0.18873196354E+03  0.17063640955E+03 0.  0.
         24    2    5    5    0    0  0.10381747406E+03  0.66065801110E+01 -0.24209974126E+02  0.13292482912E+03  0.79127571216E+02 0.  0.
          5    1    5    5  501    0 -0.35872803906E+02 -0.42490231670E+02 -0.26154287074E+00  0.55807134420E+02  0.47000000000E+01 0. -1.
        -11    1    6    6    0    0  0.19770546528E+02 -0.32126206731E+02 -0.21164157720E+01  0.37781568054E+02  0.00000000000E+00 0.  1.
         12    1    6    6    0    0  0.84046927535E+02  0.38732786842E+02 -0.22093558354E+02  0.95143261061E+02  0.00000000000E+00 0. -1.
         -5    1    3    3    0  503 -0.18854402043E+02 -0.53265446027E+02 -0.80494518109E+02  0.98458893262E+02  0.47000000000E+01 0.  1.
         13    1    4    4    0    0 -0.63954685859E+02  0.59588641396E+02 -0.24587818316E+03  0.26095418943E+03  0.00000000000E+00 0. -1.
        -14    1    4    4    0    0  0.14864417744E+02  0.29560456191E+02 -0.34064313037E+02  0.47488408141E+02  0.00000000000E+00 0.  1.
</event>
<event>
12    1  0.8053217E-002  0.2095096E+03  0.7818608E-02  0.1141999E+00
         21   -1    0    0  501  502  0.00000000000E+00  0.00000000000E+00  0.72701616514E+03  0.72701616514E+03  0.00000000000E+00 0. -1.
         21   -1    0    0  502  503 -0.00000000000E+00 -0.00000000000E+00 -0.67841644080E+02  0.67841644080E+02  0.00000000000E+00 0.  1.
         -6    2    1    2    0  503  0.10288494412E+03 -0.60654918378E+02  0.19703247788E+03  0.28744322909E+03  0.17186471937E+03 0.  0.
        -24    2    3    3    0    0  0.11961110294E+03 -0.47782792378E+01  0.17109513034E+03  0.22343698574E+03  0.79504056961E+02 0.  0.
          6    2    1    2  501    0 -0.10288494412E+03  0.60654918378E+02  0.46214204318E+03  0.50741458012E+03  0.17213354466E+03 0.  0.
         24    2    5    5    0    0 -0.10511148605E+03  0.45959182853E+01  0.20437421326E+03  0.24357009350E+03  0.80548273952E+02 0.  0.
          5    1    5    5  501    0  0.22265419306E+01  0.56059000092E+02  0.25776782992E+03  0.26384448662E+03  0.47000000000E+01 0. -1.
        -13    1    6    6    0    0  0.11293457728E+02  0.76820513825E+01  0.38917359371E+02  0.41244599178E+02  0.00000000000E+00 0.  1.
         14    1    6    6    0    0 -0.11640494378E+03 -0.30861330971E+01  0.16545685389E+03  0.20232549432E+03  0.00000000000E+00 0. -1.
         -5    1    3    3    0  503 -0.16726158824E+02 -0.55876639140E+02  0.25937347538E+02  0.64006243351E+02  0.47000000000E+01 0.  1.
         13    1    4    4    0    0 -0.23138316487E+01  0.14894637529E+02  0.38917359109E+01  0.15567583385E+02  0.00000000000E+00 0. -1.
        -14    1    4    4    0    0  0.12192493459E+03 -0.19672916767E+02  0.16720339443E+03  0.20786940236E+03  0.00000000000E+00 0.  1.
</event>
<event>
12    1  0.8053217E-002  0.2751770E+03  0.7818608E-02  0.1098429E+00
         21   -1    0    0  501  502  0.00000000000E+00  0.00000000000E+00  0.20212886405E+03  0.20212886405E+03  0.00000000000E+00 0. -1.
         21   -1    0    0  502  503 -0.00000000000E+00 -0.00000000000E+00 -0.39025945664E+03  0.39025945664E+03  0.00000000000E+00 0.  1.
         -6    2    1    2    0  503  0.73732800988E+02 -0.20203037626E+03 -0.15465829640E+03  0.31518301060E+03  0.17078741949E+03 0.  0.
        -24    2    3    3    0    0 -0.17943936512E+01 -0.17962015560E+03 -0.11056580392E+03  0.22477939888E+03  0.77681149679E+02 0.  0.
          6    2    1    2  501    0 -0.73732800988E+02  0.20203037626E+03 -0.33472296185E+02  0.27720531009E+03  0.17166709195E+03 0.  0.
         24    2    5    5    0    0 -0.84924997308E+02  0.12322498286E+03 -0.76743105620E+02  0.18648591725E+03  0.80565758896E+02 0.  0.
          5    1    5    5  501    0  0.11192196319E+02  0.78805393401E+02  0.43270809435E+02  0.90719392837E+02  0.47000000000E+01 0. -1.
        -13    1    6    6    0    0  0.77314998662E+00 -0.95213938958E+01 -0.12941157921E+02  0.16085032513E+02  0.00000000000E+00 0.  1.
         14    1    6    6    0    0 -0.85698147294E+02  0.13274637675E+03 -0.63801947699E+02  0.17040088474E+03  0.00000000000E+00 0. -1.
         -5    1    3    3    0  503  0.75527194640E+02 -0.22410220653E+02 -0.44092492485E+02  0.90403611727E+02  0.47000000000E+01 0.  1.
         11    1    4    4    0    0 -0.17773034473E+02 -0.53771030910E+02 -0.20256668136E+00  0.56632548528E+02  0.00000000000E+00 0. -1.
        -12    1    4    4    0    0  0.15978640822E+02 -0.12584912469E+03 -0.11036323724E+03  0.16814685035E+03  0.00000000000E+00 0.  1.
</event>
<event>
12    1  0.8053217E-002  0.1898469E+03  0.7818608E-02  0.1158942E+00
         21   -1    0    0  503  502  0.00000000000E+00  0.00000000000E+00  0.60420166486E+02  0.60420166486E+02  0.00000000000E+00 0. -1.
         21   -1    0    0  501  503 -0.00000000000E+00 -0.00000000000E+00 -0.66566719825E+03  0.66566719825E+03  0.00000000000E+00 0. -1.
          6    2    1    2  501    0  0.58295743287E+02 -0.52762891962E+02 -0.42250229100E+03  0.46257745899E+03  0.17113562810E+03 0.  0.
         24    2    3    3    0    0 -0.30066274238E+02  0.72819792508E+00 -0.16334350352E+03  0.18355324862E+03  0.78142074576E+02 0.  0.
         -6    2    1    2    0  502 -0.58295743287E+02  0.52762891962E+02 -0.18274474076E+03  0.26350990575E+03  0.17279905584E+03 0.  0.
        -24    2    5    5    0    0  0.23942837811E+02 -0.93398809414E+01 -0.61158293879E+02  0.10405680077E+03  0.80168497662E+02 0.  0.
          5    1    3    3  501    0  0.88362017525E+02 -0.53491089887E+02 -0.25915878748E+03  0.27902421036E+03  0.47000000000E+01 0. -1.
        -13    1    4    4    0    0  0.74861473923E+01  0.71067763935E+01  0.46314892541E+01  0.11313680489E+02  0.00000000000E+00 0.  1.
         14    1    4    4    0    0 -0.37552421631E+02 -0.63785784684E+01 -0.16797499278E+03  0.17223956814E+03  0.00000000000E+00 0. -1.
         -5    1    5    5    0  502 -0.82238581098E+02  0.62102772904E+02 -0.12158644688E+03  0.15945310498E+03  0.47000000000E+01 0.  1.
         13    1    6    6    0    0 -0.21613438459E+02  0.46249979910E+01  0.48683460099E+01  0.22632545621E+02  0.00000000000E+00 0. -1.
        -14    1    6    6    0    0  0.45556276270E+02 -0.13964878932E+02 -0.66026639889E+02  0.81424255146E+02  0.00000000000E+00 0.  1.
</event>
<event>
12    1  0.8053217E-002  0.2372851E+03  0.7818608E-02  0.1121696E+00
         21   -1    0    0  501  502  0.00000000000E+00  0.00000000000E+00  0.48895453874E+03  0.48895453874E+03  0.00000000000E+00 0. -1.
         21   -1    0    0  502  503 -0.00000000000E+00 -0.00000000000E+00 -0.13601544603E+03  0.13601544603E+03  0.00000000000E+00 0.  1.
         -6    2    1    2    0  503  0.14318114179E+03 -0.78460439784E+02  0.53557003524E+02  0.24325415942E+03  0.17218406859E+03 0.  0.
        -24    2    3    3    0    0  0.13440949144E+03 -0.53609984606E+02  0.95652750663E+02  0.19336800002E+03  0.85450528874E+02 0.  0.
          6    2    1    2  501    0 -0.14318114179E+03  0.78460439784E+02  0.29938208919E+03  0.38171582535E+03  0.17152392259E+03 0.  0.
         24    2    5    5    0    0 -0.42851123857E+02  0.32823631690E+02  0.23592002687E+03  0.25444307059E+03  0.78545575807E+02 0.  0.
          5    1    5    5  501    0 -0.10033001793E+03  0.45636808094E+02  0.63462062322E+02  0.12727275476E+03  0.47000000000E+01 0. -1.
        -11    1    6    6    0    0 -0.13310022095E+02  0.54023232456E+02  0.17352157997E+03  0.18222350301E+03  0.00000000000E+00 0.  1.
         12    1    6    6    0    0 -0.29541101763E+02 -0.21199600766E+02  0.62398446902E+02  0.72219567582E+02  0.00000000000E+00 0. -1.
         -5    1    3    3    0  503  0.87716503447E+01 -0.24850455178E+02 -0.42095747138E+02  0.49886159398E+02  0.47000000000E+01 0.  1.
         13    1    4    4    0    0  0.46212579190E+02  0.16152571364E+02  0.55441206777E+01  0.49267081415E+02  0.00000000000E+00 0. -1.
        -14    1    4    4    0    0  0.88196912250E+02 -0.69762555970E+02  0.90108629985E+02  0.14410091861E+03  0.00000000000E+00 0.  1.
</event>
<event>
12    1  0.8053217E-002  0.1886523E+03  0.7818608E-02  0.1160089E+00
         21   -1    0    0  501  502  0.00000000000E+00  0.00000000000E+00  0.33088776222E+03  0.33088776222E+03  0.00000000000E+00 0.  1.
         21   -1    0    0  502  503 -0.00000000000E+00 -0.00000000000E+00 -0.11436334974E+03  0.11436334974E+03  0.00000000000E+00 0.  1.
         -6    2    1    2    0  503  0.68712506740E+02 -0.36619620429E+02  0.50536600933E+02  0.19530396028E+03  0.17183504789E+03 0.  0.
        -24    2    3    3    0    0 -0.11239410825E+02 -0.59757205262E+02  0.51025335106E+01  0.10036186510E+03  0.79681994084E+02 0.  0.
          6    2    1    2  501    0 -0.68712506740E+02  0.36619620429E+02  0.16598781155E+03  0.24994715169E+03  0.16988001610E+03 0.  0.
         24    2    5    5    0    0 -0.59609213876E+02  0.74527200624E+02  0.16986776795E+03  0.21048832962E+03  0.79641172182E+02 0.  0.
          5    1    5    5  501    0 -0.91032928630E+01 -0.37907580194E+02 -0.38799563986E+01  0.39458822065E+02  0.47000000000E+01 0. -1.
        -11    1    6    6    0    0 -0.14133907718E+02  0.55366153734E+00 -0.51987538939E+01  0.15069868299E+02  0.00000000000E+00 0.  1.
         12    1    6    6    0    0 -0.45475306158E+02  0.73973539086E+02  0.17506652184E+03  0.19541846132E+03  0.00000000000E+00 0. -1.
         -5    1    3    3    0  503  0.79951917564E+02  0.23137584833E+02  0.45434067423E+02  0.94942095178E+02  0.47000000000E+01 0.  1.
         11    1    4    4    0    0 -0.26718655740E+02 -0.26068636937E+02 -0.31067647809E+02  0.48566028628E+02  0.00000000000E+00 0. -1.
        -12    1    4    4    0    0  0.15479244915E+02 -0.33688568325E+02  0.36170181319E+02  0.51795836470E+02  0.00000000000E+00 0.  1.
</event>
<event>
12    1  0.8053217E-002  0.2748392E+03  0.7818608E-02  0.1098599E+00
         21   -1    0    0  503  502  0.00000000000E+00  0.00000000000E+00  0.56346104942E+03  0.56346104942E+03  0.00000000000E+00 0.  1.
         21   -1    0    0  501  503 -0.00000000000E+00 -0.00000000000E+00 -0.13435499727E+03  0.13435499727E+03  0.00000000000E+00 0. -1.
          6    2    1    2  501    0 -0.17485242602E+03  0.12385661441E+03  0.19315601640E+03  0.33558824167E+03  0.17145375312E+03 0.  0.
         24    2    3    3    0    0 -0.11725360080E+03  0.80287710384E+02  0.20536933519E+03  0.26219117620E+03  0.79831858935E+02 0.  0.
         -6    2    1    2    0  502  0.17485242602E+03 -0.12385661441E+03  0.23595003574E+03  0.36222780502E+03  0.17211255487E+03 0.  0.
        -24    2    5    5    0    0  0.19724628908E+03 -0.87183173266E+02  0.21306092712E+03  0.31331535587E+03  0.79148905878E+02 0.  0.
          5    1    3    3  501    0 -0.57598825213E+02  0.43568904028E+02 -0.12213318787E+02  0.73397065472E+02  0.47000000000E+01 0. -1.
        -13    1    4    4    0    0 -0.91765748084E+02  0.88325368491E+02  0.19624006142E+03  0.23394974877E+03  0.00000000000E+00 0.  1.
         14    1    4    4    0    0 -0.25487852720E+02 -0.80376581061E+01  0.91292737688E+01  0.28241427436E+02  0.00000000000E+00 0. -1.
         -5    1    5    5    0  502 -0.22393863059E+02 -0.36673441146E+02  0.22889108618E+02  0.48912449146E+02  0.47000000000E+01 0.  1.
         11    1    6    6    0    0  0.16071137284E+02  0.12198351538E+02  0.66537611046E+01  0.21245088154E+02  0.00000000000E+00 0. -1.
        -12    1    6    6    0    0  0.18117515179E+03 -0.99381524804E+02  0.20640716602E+03  0.29207026772E+03  0.00000000000E+00 0.  1.
</event>
<event>
12    1  0.8053217E-002  0.1739911E+03  0.7818608E-02  0.1174000E+00
         21   -1    0    0  503  502  0.00000000000E+00  0.00000000000E+00  0.31307492523E+03  0.31307492523E+03  0.00000000000E+00 0.  1.
         21   -1    0    0  501  503 -0.00000000000E+00 -0.00000000000E+00 -0.12025017681E+03  0.12025017681E+03  0.00000000000E+00 0.  1.
          6    2    1    2  501    0 -0.10726695965E+02  0.44922129550E+02  0.19319622450E+03  0.25933355652E+03  0.16672148227E+03 0.  0.
         24    2    3    3    0    0 -0.19931713511E+02  0.12484459882E+01  0.19868369722E+03  0.21411934039E+03  0.77285500366E+02 0.  0.
         -6    2    1    2    0  502  0.10726695965E+02 -0.44922129550E+02 -0.37147607681E+00  0.17399154551E+03  0.16774939697E+03 0.  0.
        -24    2    5    5    0    0  0.35393894727E+02 -0.27255715350E+02  0.58405315187E+02  0.10767884630E+03  0.78663532179E+02 0.  0.
          5    1    3    3  501    0  0.92050175462E+01  0.43673683562E+02 -0.54874727223E+01  0.45214216136E+02  0.47000000000E+01 0. -1.
        -11    1    4    4    0    0  0.19109226459E+02  0.26519325833E+02  0.69047366681E+02  0.76393560096E+02  0.00000000000E+00 0.  1.
         12    1    4    4    0    0 -0.39040939970E+02 -0.25270879844E+02  0.12963633054E+03  0.13772578029E+03  0.00000000000E+00 0. -1.
         -5    1    5    5    0  502 -0.24667198762E+02 -0.17666414200E+02 -0.58776791264E+02  0.66312699212E+02  0.47000000000E+01 0.  1.
         11    1    6    6    0    0  0.42416933844E+02  0.85718246490E+01  0.58228430271E+01  0.43664378564E+02  0.00000000000E+00 0. -1.
        -12    1    6    6    0    0 -0.70230391168E+01 -0.35827539999E+02  0.52582472160E+02  0.64014467734E+02  0.00000000000E+00 0.  1.
</event>
<event>
12    1  0.8053217E-002  0.1954883E+03  0.7818608E-02  0.1153764E+00
         21   -1    0    0  501  502  0.00000000000E+00  0.00000000000E+00  0.88079281182E+03  0.88079281182E+03  0.00000000000E+00 0. -1.
         21   -1    0    0  502  503 -0.00000000000E+00 -0.00000000000E+00 -0.26489107503E+03  0.26489107503E+03  0.00000000000E+00 0. -1.
         -6    2    1    2    0  503  0.85626219574E+02 -0.32408002193E+02 -0.21597928798E+03  0.29131208942E+03  0.17272391994E+03 0.  0.
        -24    2    3    3    0    0  0.64286389928E+01 -0.56892102791E+02 -0.64484408855E+02  0.11855643437E+03  0.81359390269E+02 0.  0.
          6    2    1    2  501    0 -0.85626219574E+02  0.32408002193E+02  0.83188102477E+03  0.85437179743E+03  0.17188077492E+03 0.  0.
         24    2    5    5    0    0 -0.10602747577E+03  0.65225204250E+02  0.57326500817E+03  0.59284261350E+03  0.85635517764E+02 0.  0.
          5    1    5    5  501    0  0.20401256194E+02 -0.32817202057E+02  0.25861601660E+03  0.26152918393E+03  0.47000000000E+01 0. -1.
        -13    1    6    6    0    0  0.11491894981E+02  0.99214916555E+01  0.23758074762E+02  0.28194782555E+02  0.00000000000E+00 0.  1.
         14    1    6    6    0    0 -0.11751937075E+03  0.55303712594E+02  0.54950693341E+03  0.56464783095E+03  0.00000000000E+00 0. -1.
         -5    1    3    3    0  503  0.79197580581E+02  0.24484100598E+02 -0.15149487912E+03  0.17275565505E+03  0.47000000000E+01 0.  1.
         13    1    4    4    0    0 -0.29048054855E+02  0.21016019939E+00 -0.34064802121E+02  0.44768788254E+02  0.00000000000E+00 0. -1.
        -14    1    4    4    0    0  0.35476693847E+02 -0.57102262991E+02 -0.30419606733E+02  0.73787646113E+02  0.00000000000E+00 0.  1.
</event>
<event>
12    1  0.8053217E-002  0.1804836E+03  0.7818608E-02  0.1167794E+00
         21   -1    0    0  503  502  0.00000000000E+00  0.00000000000E+00  0.40632113847E+03  0.40632113847E+03  0.00000000000E+00 0.  1.
         21   -1    0    0  501  503 -0.00000000000E+00 -0.00000000000E+00 -0.88278873091E+02  0.88278873091E+02  0.00000000000E+00 0.  1.
          6    2    1    2  501    0 -0.47708599372E+02  0.68539020133E+01  0.23850458309E+03  0.29909659352E+03  0.17392886383E+03 0.  0.
         24    2    3    3    0    0 -0.91802110148E+02  0.35236796830E+02  0.15711075012E+03  0.20215912678E+03  0.80717194335E+02 0.  0.
         -6    2    1    2    0  502  0.47708599372E+02 -0.68539020133E+01  0.79537682287E+02  0.19550341804E+03  0.17196586038E+03 0.  0.
        -24    2    5    5    0    0  0.59626145387E+02  0.40011114643E+02  0.96104413578E+02  0.14417209939E+03  0.79958548159E+02 0.  0.
          5    1    3    3  501    0  0.44093510776E+02 -0.28382894816E+02  0.81393832976E+02  0.96937466736E+02  0.47000000000E+01 0. -1.
        -11    1    4    4    0    0 -0.11613786330E+02  0.38660621663E+02  0.85687566799E+02  0.94720023249E+02  0.00000000000E+00 0.  1.
         12    1    4    4    0    0 -0.80188323817E+02 -0.34238248336E+01  0.71423183317E+02  0.10743910353E+03  0.00000000000E+00 0. -1.
         -5    1    5    5    0  502 -0.11917546015E+02 -0.46865016656E+02 -0.16566731291E+02  0.51331318655E+02  0.47000000000E+01 0.  1.
         13    1    6    6    0    0  0.29284064522E+01 -0.22606998620E+02  0.24126313552E+02  0.33192332797E+02  0.00000000000E+00 0. -1.
        -14    1    6    6    0    0  0.56697738935E+02  0.62618113262E+02  0.71978100027E+02  0.11097976659E+03  0.00000000000E+00 0.  1.
</event>
<event>
12    1  0.8053217E-002  0.2762320E+03  0.7818608E-02  0.1097816E+00
         21   -1    0    0  503  502  0.00000000000E+00  0.00000000000E+00  0.48666581213E+03  0.48666581213E+03  0.00000000000E+00 0.  1.
         21   -1    0    0  501  503 -0.00000000000E+00 -0.00000000000E+00 -0.31249840028E+03  0.31249840028E+03  0.00000000000E+00 0. -1.
          6    2    1    2  501    0  0.19838715575E+03 -0.83922862968E+02 -0.19513427450E+03  0.33820330912E+03  0.17292652405E+03 0.  0.
         24    2    3    3    0    0  0.92245082235E+02 -0.33102520841E+02 -0.17912619601E+03  0.21934542962E+03  0.80132960223E+02 0.  0.
         -6    2    1    2    0  502 -0.19838715575E+03  0.83922862968E+02  0.36930168636E+03  0.46096090329E+03  0.17233893442E+03 0.  0.
        -24    2    5    5    0    0 -0.19723506512E+03  0.27226654575E+02  0.32388737569E+03  0.38815749010E+03  0.78231984218E+02 0.  0.
          5    1    3    3  501    0  0.10614207351E+03 -0.50820342127E+02 -0.16008078495E+02  0.11885787950E+03  0.47000000000E+01 0. -1.
        -11    1    4    4    0    0  0.66010916246E+02 -0.45846859072E+02 -0.70622714296E+02  0.10699038894E+03  0.00000000000E+00 0.  1.
         12    1    4    4    0    0  0.26234165989E+02  0.12744338231E+02 -0.10850348171E+03  0.11235504068E+03  0.00000000000E+00 0. -1.
         -5    1    5    5    0  502 -0.11520906303E+01  0.56696208393E+02  0.45414310669E+02  0.72803413193E+02  0.47000000000E+01 0.  1.
         13    1    6    6    0    0 -0.11043217640E+03  0.21025665481E+02  0.11016339527E+03  0.15739541877E+03  0.00000000000E+00 0. -1.
        -14    1    6    6    0    0 -0.86802888720E+02  0.62009890939E+01  0.21372398042E+03  0.23076207132E+03  0.00000000000E+00 0.  1.
</event>
<event>
12    1  0.8053217E-002  0.2040112E+03  0.7818608E-02  0.1147027E+00
         21   -1    0    0  503  502  0.00000000000E+00  0.00000000000E+00  0.10381121218E+03  0.10381121218E+03  0.00000000000E+00 0.  1.
         21   -1    0    0  501  503 -0.00000000000E+00 -0.00000000000E+00 -0.58940381138E+03  0.58940381138E+03  0.00000000000E+00 0.  1.
          6    2    1    2  501    0  0.91173033507E+02 -0.49019971903E+02 -0.44064179672E+03  0.48431041224E+03  0.17226695186E+03 0.  0.
         24    2    3    3    0    0  0.52772074308E+02 -0.88062174641E+02 -0.40014776112E+03  0.41604047609E+03  0.49311343435E+02 0.  0.
         -6    2    1    2    0  502 -0.91173033507E+02  0.49019971903E+02 -0.44950802485E+02  0.20890461132E+03  0.17579841382E+03 0.  0.
        -24    2    5    5    0    0 -0.25594583742E+02 -0.37068443687E+02 -0.39967541904E+02  0.10046720422E+03  0.80418296940E+02 0.  0.
          5    1    3    3  501    0  0.38400959199E+02  0.39042202738E+02 -0.40494035603E+02  0.68269936147E+02  0.47000000000E+01 0. -1.
        -13    1    4    4    0    0  0.54752762579E+02 -0.49325672571E+02 -0.29170352152E+03  0.30086846205E+03  0.00000000000E+00 0.  1.
         14    1    4    4    0    0 -0.19806882706E+01 -0.38736502070E+02 -0.10844423959E+03  0.11517201405E+03  0.00000000000E+00 0. -1.
         -5    1    5    5    0  502 -0.65578449765E+02  0.86088415591E+02 -0.49832605811E+01  0.10843740710E+03  0.47000000000E+01 0.  1.
         13    1    6    6    0    0 -0.12688922125E+02 -0.40717443622E+02 -0.61654682363E+02  0.74968118672E+02  0.00000000000E+00 0. -1.
        -14    1    6    6    0    0 -0.12905661617E+02  0.36489999349E+01  0.21687140459E+02  0.25499085544E+02  0.00000000000E+00 0.  1.
</event>
<event>
12    1  0.8053217E-002  0.1864840E+03  0.7818608E-02  0.1162045E+00
         21   -1    0    0  503  502  0.00000000000E+00  0.00000000000E+00  0.10150399169E+03  0.10150399169E+03  0.00000000000E+00 0.  1.
         21   -1    0    0  501  503 -0.00000000000E+00 -0.00000000000E+00 -0.35486516672E+03  0.35486516672E+03  0.00000000000E+00 0.  1.
          6    2    1    2  501    0 -0.36694262172E+02 -0.61529395955E+02 -0.79965688122E+02  0.20290585329E+03  0.17217415189E+03 0.  0.
         24    2    3    3    0    0 -0.81748243564E+01 -0.81185089898E+02 -0.11063581116E+03  0.15640369113E+03  0.74592126343E+02 0.  0.
         -6    2    1    2    0  502  0.36694262172E+02  0.61529395955E+02 -0.17339548691E+03  0.25346330512E+03  0.17042686619E+03 0.  0.
        -24    2    5    5    0    0  0.15332631609E+02  0.91182466845E+02 -0.70879944483E+02  0.14452685432E+03  0.85526096826E+02 0.  0.
          5    1    3    3  501    0 -0.28519437816E+02  0.19655693943E+02  0.30670123042E+02  0.46502162156E+02  0.47000000000E+01 0. -1.
        -13    1    4    4    0    0 -0.14942979130E+02  0.15197064172E+01  0.33722955247E+01  0.15393976418E+02  0.00000000000E+00 0.  1.
         14    1    4    4    0    0  0.67681547732E+01 -0.82704796315E+02 -0.11400810669E+03  0.14100971471E+03  0.00000000000E+00 0. -1.
         -5    1    5    5    0  502  0.21361630563E+02 -0.29653070890E+02 -0.10251554243E+03  0.10893645080E+03  0.47000000000E+01 0.  1.
         13    1    6    6    0    0  0.45134891325E+02  0.39998018040E+02 -0.12958336354E+02  0.61684020160E+02  0.00000000000E+00 0. -1.
        -14    1    6    6    0    0 -0.29802259716E+02  0.51184448804E+02 -0.57921608129E+02  0.82842834161E+02  0.00000000000E+00 0.  1.
</event>
<event>
12    1  0.8053217E-002  0.2050847E+03  0.7818608E-02  0.1145623E+00
         21   -1    0    0  503  502  0.00000000000E+00  0.00000000000E+00  0.99293402137E+02  0.99293402137E+02  0.00000000000E+00 0.  1.
         21   -1    0    0  501  503 -0.00000000000E+00 -0.00000000000E+00 -0.53413639707E+03  0.53413639707E+03  0.00000000000E+00 0. -1.
          6    2    1    2  501    0  0.10058279477E+01  0.11122027890E+03 -0.36240306929E+03  0.41640812113E+03  0.17230431389E+03 0.  0.
         24    2    3    3    0    0  0.75512321027E+01  0.45272966844E+02 -0.70081052497E+02  0.11663130117E+03  0.81147050843E+02 0.  0.
         -6    2    1    2    0  502 -0.10058279477E+01 -0.11122027890E+03 -0.72439925650E+02  0.21702167808E+03  0.17169712811E+03 0.  0.
        -24    2    5    5    0    0 -0.27256384788E+02 -0.67566184598E+02  0.21385802413E+02  0.11015667478E+03  0.79806269438E+02 0.  0.
          5    1    3    3  501    0 -0.65454041550E+01  0.65947312056E+02 -0.29232201679E+03  0.29977681996E+03  0.47000000000E+01 0. -1.
        -11    1    4    4    0    0 -0.23200810501E+01  0.67195930202E+02 -0.40422483873E+02  0.78451596633E+02  0.00000000000E+00 0.  1.
         12    1    4    4    0    0  0.98713131528E+01 -0.21922963358E+02 -0.29658568623E+02  0.38179704537E+02  0.00000000000E+00 0. -1.
         -5    1    5    5    0  502  0.26250556840E+02 -0.43654094302E+02 -0.93825728064E+02  0.10686500330E+03  0.47000000000E+01 0.  1.
         11    1    6    6    0    0  0.22287029313E+02 -0.23723392636E+01 -0.70202397965E+01  0.23486665067E+02  0.00000000000E+00 0. -1.
        -12    1    6    6    0    0 -0.49543414100E+02 -0.65193845334E+02  0.28406042210E+02  0.86670009716E+02  0.00000000000E+00 0.  1.
</event>
<event>
12    1  0.8053217E-002  0.2626852E+03  0.7818608E-02  0.1105675E+00
         21   -1    0    0  503  502  0.00000000000E+00  0.00000000000E+00  0.58167071257E+03  0.58167071257E+03  0.00000000000E+00 0. -1.
         21   -1    0    0  501  503 -0.00000000000E+00 -0.00000000000E+00 -0.12306700140E+03  0.12306700140E+03  0.00000000000E+00 0.  1.
          6    2    1    2  501    0 -0.16752432753E+03  0.10431093869E+03  0.15900007179E+03  0.30628335326E+03  0.17199795757E+03 0.  0.
         24    2    3    3    0    0 -0.82261605718E+02  0.84520835859E+02  0.24700385357E+02  0.14590917928E+03  0.82271721102E+02 0.  0.
         -6    2    1    2    0  502  0.16752432753E+03 -0.10431093869E+03  0.29960363938E+03  0.39845436071E+03  0.17337348297E+03 0.  0.
        -24    2    5    5    0    0  0.11335957368E+03 -0.49846806837E+02  0.82965977279E+02  0.16855410221E+03  0.78689483983E+02 0.  0.
          5    1    3    3  501    0 -0.85262721817E+02  0.19790102833E+02  0.13429968644E+03  0.16037417398E+03  0.47000000000E+01 0. -1.
        -11    1    4    4    0    0 -0.41212449258E+02  0.63498880500E+02  0.52440734510E+02  0.92090197277E+02  0.00000000000E+00 0.  1.
         12    1    4    4    0    0 -0.41049156460E+02  0.21021955359E+02 -0.27740349153E+02  0.53818982007E+02  0.00000000000E+00 0. -1.
         -5    1    5    5    0  502  0.54164753852E+02 -0.54464131855E+02  0.21663766210E+03  0.22990025850E+03  0.47000000000E+01 0.  1.
         11    1    6    6    0    0  0.12363573194E+03 -0.51786536256E+02  0.68023761477E+02  0.15031590626E+03  0.00000000000E+00 0. -1.
        -12    1    6    6    0    0 -0.10276158252E+02  0.19397294196E+01  0.14942215802E+02  0.18238195955E+02  0.00000000000E+00 0.  1.
</event>
<event>
12    1  0.8053217E-002  0.2064604E+03  0.7818608E-02  0.1145171E+00
         21   -1    0    0  503  502  0.00000000000E+00  0.00000000000E+00  0.65018665201E+02  0.65018665201E+02  0.00000000000E+00 0.  1.
         21   -1    0    0  501  503 -0.00000000000E+00 -0.00000000000E+00 -0.82973648582E+03  0.82973648582E+03  0.00000000000E+00 0. -1.
          6    2    1    2  501    0 -0.67665404902E+02  0.87175888160E+02 -0.59147202763E+03  0.62523706488E+03  0.17001172116E+03 0.  0.
         24    2    3    3    0    0 -0.44489922540E+02  0.70566254558E+02 -0.19203269413E+03  0.22475378925E+03  0.81723684926E+02 0.  0.
         -6    2    1    2    0  502  0.67665404902E+02 -0.87175888160E+02 -0.17324579299E+03  0.26951808614E+03  0.17449255420E+03 0.  0.
        -24    2    5    5    0    0  0.84041754011E+01 -0.43388978037E+02 -0.89041970245E+01  0.89353059058E+02  0.77145647052E+02 0.  0.
          5    1    3    3  501    0 -0.23175482361E+02  0.16609633602E+02 -0.39943933349E+03  0.40048327562E+03  0.47000000000E+01 0. -1.
        -13    1    4    4    0    0 -0.73017199292E+01 -0.85964281008E+01  0.24209465531E+01  0.11535799592E+02  0.00000000000E+00 0.  1.
         14    1    4    4    0    0 -0.37188202611E+02  0.79162682659E+02 -0.19445364068E+03  0.21321798966E+03  0.00000000000E+00 0. -1.
         -5    1    5    5    0  502  0.59261229500E+02 -0.43786910123E+02 -0.16434159596E+03  0.18016502708E+03  0.47000000000E+01 0.  1.
         11    1    6    6    0    0  0.10439019172E+02 -0.34565641066E+02 -0.41798805702E+02  0.55234923931E+02  0.00000000000E+00 0. -1.
        -12    1    6    6    0    0 -0.20348437705E+01 -0.88233369713E+01  0.32894608678E+02  0.34118135127E+02  0.00000000000E+00 0.  1.
</event>
<event>
12    1  0.8053217E-002  0.2208147E+03  0.7818608E-02  0.1133303E+00
         21   -1    0    0  503  502  0.00000000000E+00  0.00000000000E+00  0.43193330687E+02  0.43193330687E+02  0.00000000000E+00 0. -1.
         21   -1    0    0  501  503 -0.00000000000E+00 -0.00000000000E+00 -0.15992486138E+04  0.15992486138E+04  0.00000000000E+00 0. -1.
          6    2    1    2  501    0  0.13573192117E+03  0.25329591291E+02 -0.12235701713E+04  0.12433110507E+04  0.17214430656E+03 0.  0.
         24    2    3    3    0    0  0.28881094543E+02 -0.15600505376E+02 -0.28480098606E+03  0.29758273614E+03  0.79789659709E+02 0.  0.
         -6    2    1    2    0  502 -0.13573192117E+03 -0.25329591291E+02 -0.33248511182E+03  0.39913089371E+03  0.17232056788E+03 0.  0.
        -24    2    5    5    0    0 -0.34859763232E+02  0.24531890887E+02 -0.72611285291E+02  0.11590332555E+03  0.79650269045E+02 0.  0.
          5    1    3    3  501    0  0.10685082663E+03  0.40930096667E+02 -0.93876918519E+03  0.94572831460E+03  0.47000000000E+01 0. -1.
        -13    1    4    4    0    0  0.16492059303E+02 -0.47414424430E+02 -0.13751554201E+03  0.14639207615E+03  0.00000000000E+00 0.  1.
         14    1    4    4    0    0  0.12389035240E+02  0.31813919054E+02 -0.14728544405E+03  0.15119065999E+03  0.00000000000E+00 0. -1.
         -5    1    5    5    0  502 -0.10087215794E+03 -0.49861482178E+02 -0.25987382653E+03  0.28322756816E+03  0.47000000000E+01 0.  1.
         11    1    6    6    0    0 -0.25029385074E+02 -0.27331069593E+02 -0.35971891821E+02  0.51647211769E+02  0.00000000000E+00 0. -1.
        -12    1    6    6    0    0 -0.98303781578E+01  0.51862960480E+02 -0.36639393470E+02  0.64256113782E+02  0.00000000000E+00 0.  1.
</event>
<event>
12    1  0.8053217E-002  0.1925564E+03  0.7818608E-02  0.1157888E+00
         21   -1    0    0  503  502  0.00000000000E+00  0.00000000000E+00  0.16518712757E+03  0.16518712757E+03  0.00000000000E+00 0. -1.
         21   -1    0    0  501  503 -0.00000000000E+00 -0.00000000000E+00 -0.26432170488E+03  0.26432170488E+03  0.00000000000E+00 0. -1.
          6    2    1    2  501    0 -0.51580873840E+02 -0.43390681722E+02 -0.14244064539E+03  0.23951475930E+03  0.18037362517E+03 0.  0.
         24    2    3    3    0    0 -0.38809276145E+02 -0.71183715472E+02 -0.16566488752E+03  0.20082339263E+03  0.79447459406E+02 0.  0.
         -6    2    1    2    0  502  0.51580873840E+02  0.43390681722E+02  0.43306068084E+02  0.18999407315E+03  0.17227592546E+03 0.  0.
        -24    2    5    5    0    0  0.81846262758E+02  0.22594547017E+01  0.67913528755E+02  0.13311359562E+03  0.80019160763E+02 0.  0.
          5    1    3    3  501    0 -0.12771597695E+02  0.27793033750E+02  0.23224242127E+02  0.38691366674E+02  0.47000000000E+01 0. -1.
        -11    1    4    4    0    0  0.18737942145E+02 -0.11314877434E+02 -0.73848762489E+02  0.77024519787E+02  0.00000000000E+00 0.  1.
         12    1    4    4    0    0 -0.57547218290E+02 -0.59868838038E+02 -0.91816125031E+02  0.12379887284E+03  0.00000000000E+00 0. -1.
         -5    1    5    5    0  502 -0.30265388918E+02  0.41131227020E+02 -0.24607460671E+02  0.56880477523E+02  0.47000000000E+01 0.  1.
         13    1    6    6    0    0 -0.46430029504E+01  0.46809943999E+01  0.42396647107E+02  0.42906233474E+02  0.00000000000E+00 0. -1.
        -14    1    6    6    0    0  0.86489265708E+02 -0.24215396982E+01  0.25516881648E+02  0.90207362151E+02  0.00000000000E+00 0.  1.
</event>
<event>
12    1  0.8053217E-002  0.1979800E+03  0.7818608E-02  0.1151560E+00
         21   -1    0    0  503  502  0.00000000000E+00  0.00000000000E+00  0.53912799300E+03  0.53912799300E+03  0.00000000000E+00 0. -1.
         21   -1    0    0  501  503 -0.00000000000E+00 -0.00000000000E+00 -0.16648563242E+03  0.16648563242E+03  0.00000000000E+00 0. -1.
          6    2    1    2  501    0 -0.35960954885E+02  0.91154892788E+02 -0.78829158587E+02  0.21264036906E+03  0.17146278183E+03 0.  0.
         24    2    3    3    0    0 -0.24798614811E+02  0.13060498658E+03 -0.70319083291E+02  0.17050464647E+03  0.80339449706E+02 0.  0.
         -6    2    1    2    0  502  0.35960954885E+02 -0.91154892788E+02  0.45147151917E+03  0.49297325636E+03  0.17202817825E+03 0.  0.
        -24    2    5    5    0    0  0.44276082772E+02 -0.50375443136E+02  0.43608236183E+03  0.44835239768E+03  0.79711915227E+02 0.  0.
          5    1    3    3  501    0 -0.11162340074E+02 -0.39450093789E+02 -0.85100752960E+01  0.42135722581E+02  0.47000000000E+01 0. -1.
        -13    1    4    4    0    0 -0.27549949699E+02  0.63007663236E+02  0.53825192334E+01  0.68977799822E+02  0.00000000000E+00 0.  1.
         14    1    4    4    0    0  0.27513348886E+01  0.67597323341E+02 -0.75701602524E+02  0.10152684665E+03  0.00000000000E+00 0. -1.
         -5    1    5    5    0  502 -0.83151278875E+01 -0.40779449652E+02  0.15389157337E+02  0.44620858679E+02  0.47000000000E+01 0.  1.
         13    1    6    6    0    0 -0.24939916510E+01 -0.48822610939E+02  0.31069070074E+03  0.31451324115E+03  0.00000000000E+00 0. -1.
        -14    1    6    6    0    0  0.46770074423E+02 -0.15528321971E+01  0.12539166110E+03  0.13383915654E+03  0.00000000000E+00 0.  1.
</event>
<event>
12    1  0.8053217E-002  0.2525166E+03  0.7818608E-02  0.1111920E+00
         21   -1    0    0  503  502  0.00000000000E+00  0.00000000000E+00  0.94451902249E+03  0.94451902249E+03  0.00000000000E+00 0. -1.
         21   -1    0    0  501  503 -0.00000000000E+00 -0.00000000000E+00 -0.73849799620E+02  0.73849799620E+02  0.00000000000E+00 0. -1.
          6    2    1    2  501    0 -0.75710961345E+01  0.18289886287E+03  0.28325593555E+03  0.37947144294E+03  0.17394060897E+03 0.  0.
         24    2    3    3    0    0 -0.13988523353E+02  0.18927384159E+02  0.67748178192E+02  0.10855907208E+03  0.81494366841E+02 0.  0.
         -6    2    1    2    0  502  0.75710961345E+01 -0.18289886287E+03  0.58741328732E+03  0.63889737917E+03  0.17212255938E+03 0.  0.
        -24    2    5    5    0    0 -0.14212707051E+02 -0.15913023013E+03  0.57791708622E+03  0.60495993938E+03  0.80398622716E+02 0.  0.
          5    1    3    3  501    0  0.64174272184E+01  0.16397147871E+03  0.21550775736E+03  0.27091237086E+03  0.47000000000E+01 0. -1.
        -11    1    4    4    0    0 -0.16321050559E+02 -0.29851053532E+02  0.39545237634E+02  0.52165965033E+02  0.00000000000E+00 0.  1.
         12    1    4    4    0    0  0.23325272064E+01  0.48778437691E+02  0.28202940558E+02  0.56393107051E+02  0.00000000000E+00 0. -1.
         -5    1    5    5    0  502  0.21783803185E+02 -0.23768632740E+02  0.94962011045E+01  0.33937439782E+02  0.47000000000E+01 0.  1.
         13    1    6    6    0    0  0.22186574741E+02 -0.71490999498E+02  0.35288374975E+03  0.36073556513E+03  0.00000000000E+00 0. -1.
        -14    1    6    6    0    0 -0.36399281791E+02 -0.87639230634E+02  0.22503333646E+03  0.24422437426E+03  0.00000000000E+00 0.  1.
</event>
<event>
12    1  0.8053217E-002  0.2696784E+03  0.7818608E-02  0.1101970E+00
         21   -1    0    0  503  502  0.00000000000E+00  0.00000000000E+00  0.25807480269E+03  0.25807480269E+03  0.00000000000E+00 0.  1.
         21   -1    0    0  501  503 -0.00000000000E+00 -0.00000000000E+00 -0.36474453313E+03  0.36474453313E+03  0.00000000000E+00 0. -1.
          6    2    1    2  501    0 -0.94743709430E+02  0.17899327228E+03 -0.20533579351E+03  0.33895317211E+03  0.17807723826E+03 0.  0.
         24    2    3    3    0    0 -0.87752210822E+02  0.16017333517E+03 -0.85647765078E+02  0.21750200811E+03  0.81336560458E+02 0.  0.
         -6    2    1    2    0  502  0.94743709430E+02 -0.17899327228E+03  0.98666063078E+02  0.28386616371E+03  0.17271376580E+03 0.  0.
        -24    2    5    5    0    0  0.10475194303E+03 -0.17343272347E+03  0.36770346502E+02  0.22074521494E+03  0.79526803024E+02 0.  0.
          5    1    3    3  501    0 -0.69914986076E+01  0.18819937118E+02 -0.11968802843E+03  0.12145116400E+03  0.47000000000E+01 0. -1.
        -11    1    4    4    0    0 -0.74701554990E+02  0.13176576388E+03 -0.31095218127E+02  0.15462681346E+03  0.00000000000E+00 0.  1.
         12    1    4    4    0    0 -0.13050655832E+02  0.28407571283E+02 -0.54552546951E+02  0.62875194653E+02  0.00000000000E+00 0. -1.
         -5    1    5    5    0  502 -0.10008233602E+02 -0.55605488141E+01  0.61895716576E+02  0.63120948768E+02  0.47000000000E+01 0.  1.
         13    1    6    6    0    0  0.79733674312E+02 -0.93340199700E+02 -0.12575576796E+02  0.12340176997E+03  0.00000000000E+00 0. -1.
        -14    1    6    6    0    0  0.25018268720E+02 -0.80092523771E+02  0.49345923299E+02  0.97343444977E+02  0.00000000000E+00 0.  1.
</event>
<event>
12    1  0.8053217E-002  0.1850798E+03  0.7818608E-02  0.1163614E+00
         21   -1    0    0  503  502  0.00000000000E+00  0.00000000000E+00  0.71194299491E+03  0.71194299491E+03  0.00000000000E+00 0. -1.
         21   -1    0    0  501  503 -0.00000000000E+00 -0.00000000000E+00 -0.10381365353E+03  0.10381365353E+03  0.00000000000E+00 0. -1.
          6    2    1    2  501    0  0.16674805637E+02  0.65794847061E+02  0.23972471595E+01  0.18238007437E+03  0.16926232213E+03 0.  0.
         24    2    3    3    0    0  0.14070781321E+02 -0.26138074197E+02 -0.17638714592E+02  0.88135855894E+02  0.81090190726E+02 0.  0.
         -6    2    1    2    0  502 -0.16674805637E+02 -0.65794847061E+02  0.60573209422E+03  0.63337657407E+03  0.17218450444E+03 0.  0.
        -24    2    5    5    0    0  0.17751704337E+02 -0.74406382956E+02  0.57939254735E+03  0.58893329709E+03  0.72768617292E+02 0.  0.
          5    1    3    3  501    0  0.26040243154E+01  0.91932921258E+02  0.20035961751E+02  0.94244218480E+02  0.47000000000E+01 0. -1.
        -13    1    4    4    0    0 -0.15637481536E+02 -0.16900951214E+02  0.25879971827E+02  0.34640235601E+02  0.00000000000E+00 0.  1.
         14    1    4    4    0    0  0.29708262857E+02 -0.92371229831E+01 -0.43518686418E+02  0.53495620293E+02  0.00000000000E+00 0. -1.
         -5    1    5    5    0  502 -0.34426509974E+02  0.86115358950E+01  0.26339546868E+02  0.44443276979E+02  0.47000000000E+01 0.  1.
         11    1    6    6    0    0  0.51703006074E+01 -0.11954247153E+02  0.11192217828E+02  0.17172704309E+02  0.00000000000E+00 0. -1.
        -12    1    6    6    0    0  0.12581403730E+02 -0.62452135803E+02  0.56820032953E+03  0.57176059278E+03  0.00000000000E+00 0.  1.
</event>
<event>
12    1  0.8053217E-002  0.1819799E+03  0.7818608E-02  0.1166122E+00
         21   -1    0    0  501  502  0.00000000000E+00  0.00000000000E+00  0.12157697547E+03  0.12157697547E+03  0.00000000000E+00 0. -1.
         21   -1    0    0  502  503 -0.00000000000E+00 -0.00000000000E+00 -0.27789823012E+03  0.27789823012E+03  0.00000000000E+00 0.  1.
         -6    2    1    2    0  503 -0.54359320947E+02  0.18831107859E+02 -0.46902433990E+02  0.18792690684E+03  0.17264743729E+03 0.  0.
        -24    2    3    3    0    0 -0.16780537187E+02  0.72886735498E+02 -0.27380926960E+02  0.11909845992E+03  0.88547531612E+02 0.  0.
          6    2    1    2  501    0  0.54359320947E+02 -0.18831107859E+02 -0.10941882066E+03  0.21154829874E+03  0.17167020123E+03 0.  0.
         24    2    5    5    0    0  0.73107897914E+02 -0.46745157583E+02 -0.12673834775E+03  0.17343321867E+03  0.80539419257E+02 0.  0.
          5    1    5    5  501    0 -0.18748576967E+02  0.27914049724E+02  0.17319527087E+02  0.38115080070E+02  0.47000000000E+01 0. -1.
        -11    1    6    6    0    0  0.15339697088E+02 -0.24039333276E+02 -0.10317085983E+03  0.10703934869E+03  0.00000000000E+00 0.  1.
         12    1    6    6    0    0  0.57768200826E+02 -0.22705824307E+02 -0.23567487923E+02  0.66393869981E+02  0.00000000000E+00 0. -1.
         -5    1    3    3    0  503 -0.37578783760E+02 -0.54055627639E+02 -0.19521507030E+02  0.68828446917E+02  0.47000000000E+01 0.  1.
         13    1    4    4    0    0  0.39897390475E+01  0.13154695589E+02  0.30446075134E+02  0.33405501414E+02  0.00000000000E+00 0. -1.
        -14    1    4    4    0    0 -0.20770276235E+02  0.59732039910E+02 -0.57827002093E+02  0.85692958507E+02  0.00000000000E+00 0.  1.
</event>
<event>
12    1  0.8053217E-002  0.1836394E+03  0.7818608E-02  0.1164511E+00
         21   -1    0    0  503  502  0.00000000000E+00  0.00000000000E+00  0.81264613207E+03  0.81264613207E+03  0.00000000000E+00 0.  1.
         21   -1    0    0  501  503 -0.00000000000E+00 -0.00000000000E+00 -0.16228572851E+03  0.16228572851E+03  0.00000000000E+00 0.  1.
          6    2    1    2  501    0 -0.58274807659E+02 -0.24580440374E+02 -0.95497573389E+02  0.20698605539E+03  0.17240443540E+03 0.  0.
         24    2    3    3    0    0 -0.82235634811E+02  0.27129957302E+02 -0.96891516007E+02  0.14978361189E+03  0.74487786262E+02 0.  0.
         -6    2    1    2    0  502  0.58274807659E+02  0.24580440374E+02  0.74585797695E+03  0.76794580519E+03  0.17157064632E+03 0.  0.
        -24    2    5    5    0    0  0.92897698782E+02  0.32444025714E+02  0.69089435184E+03  0.70234343748E+03  0.79175131984E+02 0.  0.
          5    1    3    3  501    0  0.23960827152E+02 -0.51710397677E+02  0.13939426174E+01  0.57202443494E+02  0.47000000000E+01 0. -1.
        -13    1    4    4    0    0 -0.17417956239E+02  0.29978805487E+02 -0.72692017909E+02  0.80537217767E+02  0.00000000000E+00 0.  1.
         14    1    4    4    0    0 -0.64817678573E+02 -0.28488481850E+01 -0.24199498098E+02  0.69246394128E+02  0.00000000000E+00 0. -1.
         -5    1    5    5    0  502 -0.34622891123E+02 -0.78635853396E+01  0.54963625104E+02  0.65602367706E+02  0.47000000000E+01 0.  1.
         13    1    6    6    0    0  0.14043947972E+02 -0.68510604449E+01  0.18563319076E+02  0.24264507393E+02  0.00000000000E+00 0. -1.
        -14    1    6    6    0    0  0.78853750810E+02  0.39295086159E+02  0.67233103277E+03  0.67807893009E+03  0.00000000000E+00 0.  1.
</event>
<event>
12    1  0.8053217E-002  0.2042041E+03  0.7818608E-02  0.1146390E+00
         21   -1    0    0  503  502  0.00000000000E+00  0.00000000000E+00  0.52137242304E+02  0.52137242304E+02  0.00000000000E+00 0. -1.
         21   -1    0    0  501  503 -0.00000000000E+00 -0.00000000000E+00 -0.11984964408E+04  0.11984964408E+04  0.00000000000E+00 0. -1.
          6    2    1    2  501    0  0.83697839681E+02 -0.70625799390E+02 -0.93581255771E+03  0.95783321591E+03  0.17235427012E+03 0.  0.
         24    2    3    3    0    0  0.60742135853E+02 -0.87869004519E+02 -0.41043906417E+03  0.43165483344E+03  0.80343642034E+02 0.  0.
         -6    2    1    2    0  502 -0.83697839681E+02  0.70625799390E+02 -0.21054664079E+03  0.29280046720E+03  0.17149021470E+03 0.  0.
        -24    2    5    5    0    0 -0.65823017830E+02  0.11535003300E+03 -0.15755506959E+03  0.22103722489E+03  0.79972214204E+02 0.  0.
          5    1    3    3  501    0  0.22955703828E+02  0.17243205128E+02 -0.52537349354E+03  0.52617838247E+03  0.47000000000E+01 0. -1.
        -13    1    4    4    0    0 -0.67853344185E+01 -0.22521174915E+02 -0.22689597629E+02  0.32681216674E+02  0.00000000000E+00 0.  1.
         14    1    4    4    0    0  0.67527470272E+02 -0.65347829603E+02 -0.38774946654E+03  0.39897361677E+03  0.00000000000E+00 0. -1.
         -5    1    5    5    0  502 -0.17874821851E+02 -0.44724233610E+02 -0.52991571198E+02  0.71763242306E+02  0.47000000000E+01 0.  1.
         13    1    6    6    0    0 -0.30803492544E+02  0.61131311445E+01 -0.77327532679E+01  0.32342247887E+02  0.00000000000E+00 0. -1.
        -14    1    6    6    0    0 -0.35019525286E+02  0.10923690186E+03 -0.14982231633E+03  0.18869497701E+03  0.00000000000E+00 0.  1.
</event>
<event>
12    1  0.8053217E-002  0.1798582E+03  0.7818608E-02  0.1168220E+00
         21   -1    0    0  501  502  0.00000000000E+00  0.00000000000E+00  0.37016799197E+02  0.37016799197E+02  0.00000000000E+00 0. -1.
         21   -1    0    0  502  503 -0.00000000000E+00 -0.00000000000E+00 -0.89306962526E+03  0.89306962526E+03  0.00000000000E+00 0. -1.
         -6    2    1    2    0  503  0.47179331284E+02 -0.99546001504E+01 -0.50411554091E+03  0.53485379880E+03  0.17207883117E+03 0.  0.
        -24    2    3    3    0    0  0.80741510997E+02 -0.49483072454E+02 -0.33726960158E+03  0.36007228518E+03  0.83267642877E+02 0.  0.
          6    2    1    2  501    0 -0.47179331284E+02  0.99546001504E+01 -0.35193728515E+03  0.39523262566E+03  0.17327432684E+03 0.  0.
         24    2    5    5    0    0  0.14781244211E+02 -0.43431404522E+02 -0.13911734636E+03  0.16718965874E+03  0.80585196250E+02 0.  0.
          5    1    5    5  501    0 -0.61960575495E+02  0.53386004672E+02 -0.21281993880E+03  0.22804296692E+03  0.47000000000E+01 0. -1.
        -13    1    6    6    0    0 -0.25009071988E+02 -0.36360808474E+02 -0.37790131504E+02  0.58100396846E+02  0.00000000000E+00 0.  1.
         14    1    6    6    0    0  0.39790316200E+02 -0.70705960478E+01 -0.10132721485E+03  0.10908926190E+03  0.00000000000E+00 0. -1.
         -5    1    3    3    0  503 -0.33562179713E+02  0.39528472303E+02 -0.16684593933E+03  0.17478151362E+03  0.47000000000E+01 0.  1.
         11    1    4    4    0    0  0.78156041762E+02 -0.10595601748E+02 -0.15771610965E+03  0.17633775797E+03  0.00000000000E+00 0. -1.
        -12    1    4    4    0    0  0.25854692352E+01 -0.38887470706E+02 -0.17955349192E+03  0.18373452721E+03  0.00000000000E+00 0.  1.
</event>
<event>
12    1  0.8053217E-002  0.1974731E+03  0.7818608E-02  0.1152053E+00
         21   -1    0    0  501  502  0.00000000000E+00  0.00000000000E+00  0.16885345614E+03  0.16885345614E+03  0.00000000000E+00 0.  1.
         21   -1    0    0  502  503 -0.00000000000E+00 -0.00000000000E+00 -0.44567791617E+03  0.44567791617E+03  0.00000000000E+00 0.  1.
         -6    2    1    2    0  503 -0.86797910865E+02  0.38764722355E+02 -0.35199958240E+03  0.40323316591E+03  0.17221120477E+03 0.  0.
        -24    2    3    3    0    0 -0.56954227298E+01  0.31542238996E+02 -0.78657234695E+02  0.11798256223E+03  0.81887567678E+02 0.  0.
          6    2    1    2  501    0  0.86797910865E+02 -0.38764722355E+02  0.75175122375E+02  0.21129820640E+03  0.17308683362E+03 0.  0.
         24    2    5    5    0    0  0.11820728706E+03 -0.59251537894E+02  0.40303248118E+02  0.15987451402E+03  0.80323103583E+02 0.  0.
          5    1    5    5  501    0 -0.31409376190E+02  0.20486815539E+02  0.34871874257E+02  0.51423692378E+02  0.47000000000E+01 0. -1.
        -11    1    6    6    0    0  0.69708605326E+02 -0.72236603708E+02  0.43843368226E+02  0.10954294824E+03  0.00000000000E+00 0.  1.
         12    1    6    6    0    0  0.48498681729E+02  0.12985065814E+02 -0.35401201079E+01  0.50331565782E+02  0.00000000000E+00 0. -1.
         -5    1    3    3    0  503 -0.81102488135E+02  0.72224833584E+01 -0.27334234771E+03  0.28525060368E+03  0.47000000000E+01 0.  1.
         13    1    4    4    0    0 -0.25902056316E+02 -0.10103573834E+02 -0.12994636409E+01  0.27833205554E+02  0.00000000000E+00 0. -1.
        -14    1    4    4    0    0  0.20206633586E+02  0.41645812831E+02 -0.77357771055E+02  0.90149356680E+02  0.00000000000E+00 0.  1.
</event>
<event>
12    1  0.8053217E-002  0.2181801E+03  0.7818608E-02  0.1135497E+00
         21   -1    0    0  503  502  0.00000000000E+00  0.00000000000E+00  0.58617910986E+02  0.58617910986E+02  0.00000000000E+00 0. -1.
         21   -1    0    0  501  503 -0.00000000000E+00 -0.00000000000E+00 -0.82477678137E+03  0.82477678137E+03  0.00000000000E+00 0. -1.
          6    2    1    2  501    0  0.65035908234E+02  0.11593221004E+03 -0.44648326960E+03  0.49636106746E+03  0.17133899897E+03 0.  0.
         24    2    3    3    0    0  0.11065714861E+03  0.78099048609E+02 -0.33981837083E+03  0.37424580917E+03  0.78986926718E+02 0.  0.
         -6    2    1    2    0  502 -0.65035908234E+02 -0.11593221004E+03 -0.31967560078E+03  0.38703362490E+03  0.17301037652E+03 0.  0.
        -24    2    5    5    0    0 -0.42898913167E+02 -0.15056348811E+03 -0.28079247134E+03  0.33025898508E+03  0.75610214644E+02 0.  0.
          5    1    3    3  501    0 -0.45621240378E+02  0.37833161429E+02 -0.10666489877E+03  0.12211525829E+03  0.47000000000E+01 0. -1.
        -11    1    4    4    0    0  0.41382265837E+02 -0.63168038822E+00 -0.16739657316E+03  0.17243695558E+03  0.00000000000E+00 0.  1.
         12    1    4    4    0    0  0.69274882775E+02  0.78730728998E+02 -0.17242179767E+03  0.20180885358E+03  0.00000000000E+00 0. -1.
         -5    1    5    5    0  502 -0.22136995067E+02  0.34631278074E+02 -0.38883129440E+02  0.56774639820E+02  0.47000000000E+01 0.  1.
         13    1    6    6    0    0 -0.16510160881E+02 -0.26250767055E+02 -0.12585169272E+02  0.33467516623E+02  0.00000000000E+00 0. -1.
        -14    1    6    6    0    0 -0.26388752286E+02 -0.12431272106E+03 -0.26820730207E+03  0.29679146845E+03  0.00000000000E+00 0.  1.
</event>
<event>
12    1  0.8053217E-002  0.2931752E+03  0.7818608E-02  0.1088808E+00
         21   -1    0    0  501  502  0.00000000000E+00  0.00000000000E+00  0.47213045161E+03  0.47213045161E+03  0.00000000000E+00 0.  1.
         21   -1    0    0  502  503 -0.00000000000E+00 -0.00000000000E+00 -0.25150367990E+03  0.25150367990E+03  0.00000000000E+00 0.  1.
         -6    2    1    2    0  503  0.16598536418E+03  0.16991400088E+03 -0.80619823442E+02  0.30327573545E+03  0.17045441316E+03 0.  0.
        -24    2    3    3    0    0  0.17194056216E+02  0.42820052669E+02 -0.50835797620E+02  0.10528355583E+03  0.79819523482E+02 0.  0.
          6    2    1    2  501    0 -0.16598536418E+03 -0.16991400088E+03  0.30124659515E+03  0.42035839606E+03  0.17184225682E+03 0.  0.
         24    2    5    5    0    0 -0.21534791538E+02 -0.93810634404E+02  0.92650289133E+02  0.15542029157E+03  0.79417936145E+02 0.  0.
          5    1    5    5  501    0 -0.14445057264E+03 -0.76103366475E+02  0.20859630602E+03  0.26493810449E+03  0.47000000000E+01 0. -1.
        -13    1    6    6    0    0 -0.45236470760E+02 -0.36101047175E+02  0.65428308426E+02  0.87352661307E+02  0.00000000000E+00 0.  1.
         14    1    6    6    0    0  0.23701679222E+02 -0.57709587229E+02  0.27221980708E+02  0.68067630264E+02  0.00000000000E+00 0. -1.
         -5    1    3    3    0  503  0.14879130796E+03  0.12709394821E+03 -0.29784025822E+02  0.19799217962E+03  0.47000000000E+01 0.  1.
         11    1    4    4    0    0  0.49014214171E+02  0.21130031317E+02 -0.25224614598E+02  0.59035181002E+02  0.00000000000E+00 0. -1.
        -12    1    4    4    0    0 -0.31820157955E+02  0.21690021352E+02 -0.25611183022E+02  0.46248374829E+02  0.00000000000E+00 0.  1.
</event>
<event>
12    1  0.8053217E-002  0.4284973E+03  0.7818608E-02  0.1034383E+00
         21   -1    0    0  501  502  0.00000000000E+00  0.00000000000E+00  0.46843140735E+03  0.46843140735E+03  0.00000000000E+00 0. -1.
         21   -1    0    0  502  503 -0.00000000000E+00 -0.00000000000E+00 -0.40070208774E+03  0.40070208774E+03  0.00000000000E+00 0. -1.
         -6    2    1    2    0  503 -0.37107336769E+03 -0.12645508253E+03 -0.32277507300E+02  0.42912062699E+03  0.17151193231E+03 0.  0.
        -24    2    3    3    0    0 -0.92739491362E+02 -0.14511731464E+02 -0.40050559414E+02  0.12898137448E+03  0.78872961430E+02 0.  0.
          6    2    1    2  501    0  0.37107336769E+03  0.12645508253E+03  0.10000682691E+03  0.44001286810E+03  0.17298446912E+03 0.  0.
         24    2    5    5    0    0  0.98362352291E+02  0.59916520959E+02 -0.91361192594E+01  0.13879376048E+03  0.76909670660E+02 0.  0.
          5    1    5    5  501    0  0.27271101540E+03  0.66538561571E+02  0.10914294617E+03  0.30121910762E+03  0.47000000000E+01 0. -1.
        -11    1    6    6    0    0  0.81189217194E+02  0.85487598197E+01 -0.18803099384E+02  0.83775454815E+02  0.00000000000E+00 0.  1.
         12    1    6    6    0    0  0.17173135097E+02  0.51367761139E+02  0.96669801248E+01  0.55018305665E+02  0.00000000000E+00 0. -1.
         -5    1    3    3    0  503 -0.27833387633E+03 -0.11194335107E+03  0.77730521136E+01  0.30013925251E+03  0.47000000000E+01 0.  1.
         11    1    4    4    0    0 -0.10549707235E+03 -0.40652827112E+01 -0.30352333304E+02  0.10985182263E+03  0.00000000000E+00 0. -1.
        -12    1    4    4    0    0  0.12757580989E+02 -0.10446448753E+02 -0.96982261097E+01  0.19129551848E+02  0.00000000000E+00 0.  1.
</event>
<event>
12    1  0.8053217E-002  0.1927916E+03  0.7818608E-02  0.1155972E+00
         21   -1    0    0  503  502  0.00000000000E+00  0.00000000000E+00  0.13540190113E+03  0.13540190113E+03  0.00000000000E+00 0. -1.
         21   -1    0    0  501  503 -0.00000000000E+00 -0.00000000000E+00 -0.65962027155E+03  0.65962027155E+03  0.00000000000E+00 0. -1.
          6    2    1    2  501    0  0.41281223897E+02  0.74461607837E+02 -0.56585225962E+03  0.59778629904E+03  0.17294799541E+03 0.  0.
         24    2    3    3    0    0  0.74015865718E+02  0.10195695745E+03 -0.43793100275E+03  0.46282893916E+03  0.80953654691E+02 0.  0.
         -6    2    1    2    0  502 -0.41281223897E+02 -0.74461607837E+02  0.41633889200E+02  0.19723587364E+03  0.17297380909E+03 0.  0.
        -24    2    5    5    0    0 -0.68117814781E+02 -0.21797801719E+02 -0.22326523849E+02  0.11001945590E+03  0.80564422422E+02 0.  0.
          5    1    3    3  501    0 -0.32734641821E+02 -0.27495349613E+02 -0.12792125687E+03  0.13495735987E+03  0.47000000000E+01 0. -1.
        -11    1    4    4    0    0  0.38372485358E+02  0.46602596234E+02 -0.87731254021E+02  0.10649423712E+03  0.00000000000E+00 0.  1.
         12    1    4    4    0    0  0.35643380360E+02  0.55354361216E+02 -0.35019974873E+03  0.35633470204E+03  0.00000000000E+00 0. -1.
         -5    1    5    5    0  502  0.26836590884E+02 -0.52663806118E+02  0.63960413049E+02  0.87216417735E+02  0.47000000000E+01 0.  1.
         13    1    6    6    0    0 -0.19280938336E+02 -0.92177224650E+01  0.30333591907E+02  0.37105899646E+02  0.00000000000E+00 0. -1.
        -14    1    6    6    0    0 -0.48836876445E+02 -0.12580079254E+02 -0.52660115756E+02  0.72913556259E+02  0.00000000000E+00 0.  1.
</event>
<event>
12    1  0.8053217E-002  0.2182666E+03  0.7818608E-02  0.1135490E+00
         21   -1    0    0  501  502  0.00000000000E+00  0.00000000000E+00  0.22695531150E+03  0.22695531150E+03  0.00000000000E+00 0. -1.
         21   -1    0    0  502  503 -0.00000000000E+00 -0.00000000000E+00 -0.32488065834E+03  0.32488065834E+03  0.00000000000E+00 0.  1.
         -6    2    1    2    0  503 -0.92991671267E+02  0.95624641582E+02 -0.21433241509E+03  0.30590633209E+03  0.17276798562E+03 0.  0.
        -24    2    3    3    0    0 -0.49803092560E+02  0.13283164242E+03 -0.14124037252E+03  0.21309388180E+03  0.73044961329E+02 0.  0.
          6    2    1    2  501    0  0.92991671267E+02 -0.95624641582E+02  0.11640706825E+03  0.24592963774E+03  0.17070225007E+03 0.  0.
         24    2    5    5    0    0  0.43779692415E+02 -0.12509969177E+03  0.10495245697E+03  0.18724492452E+03  0.80492541178E+02 0.  0.
          5    1    5    5  501    0  0.49211978852E+02  0.29475050191E+02  0.11454611282E+02  0.58684713221E+02  0.47000000000E+01 0. -1.
        -11    1    6    6    0    0  0.56863341732E+02 -0.10721329805E+03  0.56299256549E+02  0.13378242485E+03  0.00000000000E+00 0.  1.
         12    1    6    6    0    0 -0.13083649317E+02 -0.17886393726E+02  0.48653200416E+02  0.53462499668E+02  0.00000000000E+00 0. -1.
         -5    1    3    3    0  503 -0.43188578707E+02 -0.37207000841E+02 -0.73092042566E+02  0.92812450289E+02  0.47000000000E+01 0.  1.
         13    1    4    4    0    0 -0.27376162281E+02  0.19075820815E+02 -0.42706070840E+01  0.33638954887E+02  0.00000000000E+00 0. -1.
        -14    1    4    4    0    0 -0.22426930279E+02  0.11375582161E+03 -0.13696976544E+03  0.17945492692E+03  0.00000000000E+00 0.  1.
</event>
<event>
12    1  0.8053217E-002  0.1838333E+03  0.7818608E-02  0.1168863E+00
         21   -1    0    0  501  502  0.00000000000E+00  0.00000000000E+00  0.44028231943E+03  0.44028231943E+03  0.00000000000E+00 0. -1.
         21   -1    0    0  502  503 -0.00000000000E+00 -0.00000000000E+00 -0.17461155597E+03  0.17461155597E+03  0.00000000000E+00 0. -1.
         -6    2    1    2    0  503 -0.41196755759E+02  0.49971921404E+02 -0.10891144721E+03  0.19763312633E+03  0.15166668610E+03 0.  0.
        -24    2    3    3    0    0 -0.69702491420E+01  0.74002069432E+02 -0.46115138010E+02  0.12203968601E+03  0.85101047904E+02 0.  0.
          6    2    1    2  501    0  0.41196755759E+02 -0.49971921404E+02  0.37458221067E+03  0.41726074907E+03  0.17204747761E+03 0.  0.
         24    2    5    5    0    0  0.33780297874E+02  0.34512852040E+02  0.24807174650E+03  0.26488073616E+03  0.79309315306E+02 0.  0.
          5    1    5    5  501    0  0.74164578850E+01 -0.84484773444E+02  0.12651046417E+03  0.15238001291E+03  0.47000000000E+01 0. -1.
        -11    1    6    6    0    0  0.48452379376E+02  0.35545497924E+01  0.20021709787E+03  0.20602707145E+03  0.00000000000E+00 0.  1.
         12    1    6    6    0    0 -0.14672081502E+02  0.30958302248E+02  0.47854648634E+02  0.58853664708E+02  0.00000000000E+00 0. -1.
         -5    1    3    3    0  503 -0.34226506617E+02 -0.24030148028E+02 -0.62796309202E+02  0.75593440316E+02  0.47000000000E+01 0.  1.
         11    1    4    4    0    0  0.55540917038E+01  0.42940597203E+02 -0.69011476159E+02  0.81469789888E+02  0.00000000000E+00 0. -1.
        -12    1    4    4    0    0 -0.12524340846E+02  0.31061472230E+02  0.22896338149E+02  0.40569896122E+02  0.00000000000E+00 0.  1.
</event>
<event>
12    1  0.8053217E-002  0.2394642E+03  0.7818608E-02  0.1120361E+00
         21   -1    0    0  501  502  0.00000000000E+00  0.00000000000E+00  0.22744906135E+03  0.22744906135E+03  0.00000000000E+00 0.  1.
         21   -1    0    0  502  503 -0.00000000000E+00 -0.00000000000E+00 -0.30165209577E+03  0.30165209577E+03  0.00000000000E+00 0.  1.
         -6    2    1    2    0  503 -0.10788678274E+03 -0.12501675693E+03 -0.14565028472E+03  0.27920558349E+03  0.17167703693E+03 0.  0.
        -24    2    3    3    0    0 -0.79835608976E+02 -0.57631142989E+02 -0.98883204197E+01  0.12499439626E+03  0.76359328914E+02 0.  0.
          6    2    1    2  501    0  0.10788678274E+03  0.12501675693E+03  0.71447250302E+02  0.24989557363E+03  0.17341955120E+03 0.  0.
         24    2    5    5    0    0  0.14324963019E+03  0.10701099894E+03  0.41180806870E+02  0.19976688025E+03  0.78988208914E+02 0.  0.
          5    1    5    5  501    0 -0.35362847457E+02  0.18005757994E+02  0.30266443432E+02  0.50128693373E+02  0.47000000000E+01 0. -1.
        -11    1    6    6    0    0  0.56660834004E+02  0.19119655283E+02  0.47286102666E+02  0.76236387857E+02  0.00000000000E+00 0.  1.
         12    1    6    6    0    0  0.86588796190E+02  0.87891343654E+02 -0.61052957952E+01  0.12353049240E+03  0.00000000000E+00 0. -1.
         -5    1    3    3    0  503 -0.28051173761E+02 -0.67385613942E+02 -0.13576196431E+03  0.15421118723E+03  0.47000000000E+01 0.  1.
         13    1    4    4    0    0 -0.87031923004E+02 -0.34370241388E+02  0.92439354059E+01  0.94028290725E+02  0.00000000000E+00 0. -1.
        -14    1    4    4    0    0  0.71963140276E+01 -0.23260901601E+02 -0.19132255826E+02  0.30966105533E+02  0.00000000000E+00 0.  1.
</event>
<event>
12    1  0.8053217E-002  0.2081073E+03  0.7818608E-02  0.1143307E+00
         21   -1    0    0  501  502  0.00000000000E+00  0.00000000000E+00  0.37902778408E+03  0.37902778408E+03  0.00000000000E+00 0. -1.
         21   -1    0    0  502  503 -0.00000000000E+00 -0.00000000000E+00 -0.28634384440E+03  0.28634384440E+03  0.00000000000E+00 0.  1.
         -6    2    1    2    0  503  0.11568761171E+03 -0.66898569166E+01 -0.21208964800E+03  0.29632475547E+03  0.17145834546E+03 0.  0.
        -24    2    3    3    0    0  0.11776860726E+03 -0.33542573631E+02 -0.91409958192E+02  0.17258682083E+03  0.80223943844E+02 0.  0.
          6    2    1    2  501    0 -0.11568761171E+03  0.66898569166E+01  0.30477358768E+03  0.36904687301E+03  0.17285912483E+03 0.  0.
         24    2    5    5    0    0 -0.75409876694E+02  0.52271297314E+02  0.11080366266E+03  0.16570876674E+03  0.82237495641E+02 0.  0.
          5    1    5    5  501    0 -0.40277735019E+02 -0.45581440397E+02  0.19396992503E+03  0.20333810627E+03  0.47000000000E+01 0. -1.
        -11    1    6    6    0    0  0.26523114492E+01  0.12672838451E+02 -0.10117463218E+02  0.16431635719E+02  0.00000000000E+00 0.  1.
         12    1    6    6    0    0 -0.78062188143E+02  0.39598458863E+02  0.12092112588E+03  0.14927713102E+03  0.00000000000E+00 0. -1.
         -5    1    3    3    0  503 -0.20809955439E+01  0.26852716714E+02 -0.12067968981E+03  0.12373793464E+03  0.47000000000E+01 0.  1.
         11    1    4    4    0    0  0.43609294348E+02 -0.53963580854E+02 -0.40332438992E+02  0.80253001484E+02  0.00000000000E+00 0. -1.
        -12    1    4    4    0    0  0.74159312909E+02  0.20421007223E+02 -0.51077519200E+02  0.92333819344E+02  0.00000000000E+00 0.  1.
</event>
<event>
12    1  0.8053217E-002  0.2009421E+03  0.7818608E-02  0.1149316E+00
         21   -1    0    0  503  502  0.00000000000E+00  0.00000000000E+00  0.73419867483E+03  0.73419867483E+03  0.00000000000E+00 0.  1.
         21   -1    0    0  501  503 -0.00000000000E+00 -0.00000000000E+00 -0.10146662423E+03  0.10146662423E+03  0.00000000000E+00 0.  1.
          6    2    1    2  501    0  0.69027125206E+02 -0.71032103133E+02  0.31398177019E+02  0.20164625124E+03  0.17281510764E+03 0.  0.
         24    2    3    3    0    0  0.51210607864E+02 -0.96676341105E+02 -0.25055296365E+02  0.13696132341E+03  0.78497101520E+02 0.  0.
         -6    2    1    2    0  502 -0.69027125206E+02  0.71032103133E+02  0.60133387359E+03  0.63401904782E+03  0.17483541342E+03 0.  0.
        -24    2    5    5    0    0  0.18077039972E+02  0.43301491500E+02  0.15445056570E+03  0.17785799810E+03  0.74677250236E+02 0.  0.
          5    1    3    3  501    0  0.17816517342E+02  0.25644237973E+02  0.56453473384E+02  0.64684927831E+02  0.47000000000E+01 0. -1.
        -11    1    4    4    0    0  0.55359896301E+02 -0.26054395667E+02 -0.25321009645E+02  0.66217091310E+02  0.00000000000E+00 0.  1.
         12    1    4    4    0    0 -0.41492884368E+01 -0.70621945438E+02  0.26571328009E+00  0.70744232101E+02  0.00000000000E+00 0. -1.
         -5    1    5    5    0  502 -0.87104165179E+02  0.27730611633E+02  0.44688330789E+03  0.45616104972E+03  0.47000000000E+01 0.  1.
         13    1    6    6    0    0 -0.33584309934E+01  0.58723623957E+02  0.83370887527E+02  0.10203160273E+03  0.00000000000E+00 0. -1.
        -14    1    6    6    0    0  0.21435470966E+02 -0.15422132457E+02  0.71079678172E+02  0.75826395365E+02  0.00000000000E+00 0.  1.
</event>
<event>
12    1  0.8053217E-002  0.2215922E+03  0.7818608E-02  0.1133153E+00
         21   -1    0    0  503  502  0.00000000000E+00  0.00000000000E+00  0.48084844414E+03  0.48084844414E+03  0.00000000000E+00 0.  1.
         21   -1    0    0  501  503 -0.00000000000E+00 -0.00000000000E+00 -0.11823460638E+03  0.11823460638E+03  0.00000000000E+00 0. -1.
          6    2    1    2  501    0  0.87282157163E+02  0.10587240447E+03  0.67802294529E+02  0.23173315756E+03  0.17399989707E+03 0.  0.
         24    2    3    3    0    0  0.22953283897E+02 -0.14591163387E+02  0.41454578568E+02  0.92571498854E+02  0.78174452509E+02 0.  0.
         -6    2    1    2    0  502 -0.87282157163E+02 -0.10587240447E+03  0.29481154323E+03  0.36734989296E+03  0.17089457816E+03 0.  0.
        -24    2    5    5    0    0 -0.68688233699E+02 -0.13135730508E+03  0.29014788332E+03  0.33511553439E+03  0.78382473453E+02 0.  0.
          5    1    3    3  501    0  0.64328873266E+02  0.12046356786E+03  0.26347715961E+02  0.13916165871E+03  0.47000000000E+01 0. -1.
        -13    1    4    4    0    0 -0.17640671651E+02  0.21372563347E+02  0.20327057569E+02  0.34368139748E+02  0.00000000000E+00 0.  1.
         14    1    4    4    0    0  0.40593955548E+02 -0.35963726734E+02  0.21127520998E+02  0.58203359106E+02  0.00000000000E+00 0. -1.
         -5    1    5    5    0  502 -0.18593923464E+02  0.25484900606E+02  0.46636599080E+01  0.32234358570E+02  0.47000000000E+01 0.  1.
         11    1    6    6    0    0 -0.68558442730E+01 -0.96206441583E+02  0.16113023221E+03  0.18779146342E+03  0.00000000000E+00 0. -1.
        -12    1    6    6    0    0 -0.61832389426E+02 -0.35150863497E+02  0.12901765111E+03  0.14732407096E+03  0.00000000000E+00 0.  1.
</event>
<event>
12    1  0.8053217E-002  0.2160623E+03  0.7818608E-02  0.1137122E+00
         21   -1    0    0  503  502  0.00000000000E+00  0.00000000000E+00  0.20596982046E+04  0.20596982046E+04  0.00000000000E+00 0.  1.
         21   -1    0    0  501  503 -0.00000000000E+00 -0.00000000000E+00 -0.22517925484E+02  0.22517925484E+02  0.00000000000E+00 0.  1.
          6    2    1    2  501    0  0.12948841223E+03  0.75741755072E+01  0.10196521197E+04  0.10422923617E+04  0.17279555851E+03 0.  0.
         24    2    3    3    0    0  0.13103587831E+03 -0.20876190117E+02  0.98537380154E+03  0.99747148431E+03  0.79885020656E+02 0.  0.
         -6    2    1    2    0  502 -0.12948841223E+03 -0.75741755072E+01  0.10175281595E+04  0.10399237684E+04  0.17103587863E+03 0.  0.
        -24    2    5    5    0    0 -0.53378609592E+02 -0.23846194147E+02  0.26066773688E+03  0.27905763701E+03  0.80669565423E+02 0.  0.
          5    1    3    3  501    0 -0.15474660711E+01  0.28450365624E+02  0.34278318140E+02  0.44820877389E+02  0.47000000000E+01 0. -1.
        -13    1    4    4    0    0  0.13938540816E+03 -0.10609702013E+02  0.84603700502E+03  0.85750770938E+03  0.00000000000E+00 0.  1.
         14    1    4    4    0    0 -0.83495298541E+01 -0.10266488104E+02  0.13933679653E+03  0.13996377493E+03  0.00000000000E+00 0. -1.
         -5    1    5    5    0  502 -0.76109802643E+02  0.16272018640E+02  0.75686042259E+03  0.76086613141E+03  0.47000000000E+01 0.  1.
         13    1    6    6    0    0 -0.50142161971E+02  0.46847676986E+01  0.69962744838E+02  0.86203069091E+02  0.00000000000E+00 0. -1.
        -14    1    6    6    0    0 -0.32364476214E+01 -0.28530961846E+02  0.19070499204E+03  0.19285456791E+03  0.00000000000E+00 0.  1.
</event>
<event>
12    1  0.8053217E-002  0.2673701E+03  0.7818608E-02  0.1103237E+00
         21   -1    0    0  501  502  0.00000000000E+00  0.00000000000E+00  0.91728974824E+02  0.91728974824E+02  0.00000000000E+00 0.  1.
         21   -1    0    0  502  503 -0.00000000000E+00 -0.00000000000E+00 -0.17130084452E+04  0.17130084452E+04  0.00000000000E+00 0. -1.
         -6    2    1    2    0  503  0.19258539819E+03 -0.68477798959E+02 -0.14778932551E+04  0.15013459652E+04  0.16760933509E+03 0.  0.
        -24    2    3    3    0    0  0.85876153930E+02 -0.79870534770E+02 -0.10773302181E+04  0.10866298046E+04  0.79811761730E+02 0.  0.
          6    2    1    2  501    0 -0.19258539819E+03  0.68477798959E+02 -0.14338621531E+03  0.30339145486E+03  0.17236131699E+03 0.  0.
         24    2    5    5    0    0 -0.98744955499E+02  0.10396596536E+03 -0.11724325949E+03  0.19960810948E+03  0.74417251258E+02 0.  0.
          5    1    5    5  501    0 -0.93840442689E+02 -0.35488166402E+02 -0.26142955821E+02  0.10378334538E+03  0.47000000000E+01 0. -1.
        -13    1    6    6    0    0 -0.99768348133E+02  0.62995361454E+02 -0.70529910577E+02  0.13746493058E+03  0.00000000000E+00 0.  1.
         14    1    6    6    0    0  0.10233926337E+01  0.40970603907E+02 -0.46713348915E+02  0.62143178901E+02  0.00000000000E+00 0. -1.
         -5    1    3    3    0  503  0.10670924426E+03  0.11392735811E+02 -0.40056303700E+03  0.41471616059E+03  0.47000000000E+01 0.  1.
         11    1    4    4    0    0 -0.62647642859E+01 -0.41431132308E+02 -0.33918446770E+03  0.34176291362E+03  0.00000000000E+00 0. -1.
        -12    1    4    4    0    0  0.92140918216E+02 -0.38439402461E+02 -0.73814575037E+03  0.74486689097E+03  0.00000000000E+00 0.  1.
</event>
<event>
12    1  0.8053217E-002  0.2278061E+03  0.7818608E-02  0.1128407E+00
         21   -1    0    0  503  502  0.00000000000E+00  0.00000000000E+00  0.14246729137E+03  0.14246729137E+03  0.00000000000E+00 0. -1.
         21   -1    0    0  501  503 -0.00000000000E+00 -0.00000000000E+00 -0.93127027886E+03  0.93127027886E+03  0.00000000000E+00 0. -1.
          6    2    1    2  501    0  0.56537842427E+02  0.13774629228E+03 -0.81361534377E+03  0.84458420757E+03  0.17082736137E+03 0.  0.
         24    2    3    3    0    0  0.66001385257E+02  0.61976623003E+02 -0.27726035277E+03  0.30280070118E+03  0.81349104243E+02 0.  0.
         -6    2    1    2    0  502 -0.56537842427E+02 -0.13774629228E+03  0.24812356282E+02  0.22915336266E+03  0.17240951810E+03 0.  0.
        -24    2    5    5    0    0 -0.97372484204E+02 -0.79994550962E+02  0.44044271916E+02  0.15570482167E+03  0.80147144305E+02 0.  0.
          5    1    3    3  501    0 -0.94635428301E+01  0.75769669278E+02 -0.53635499100E+03  0.54178350639E+03  0.47000000000E+01 0. -1.
        -13    1    4    4    0    0  0.45043056052E+02 -0.51640428149E+01 -0.65464944083E+02  0.79631671717E+02  0.00000000000E+00 0.  1.
         14    1    4    4    0    0  0.20958329205E+02  0.67140665818E+02 -0.21179540869E+03  0.22316902946E+03  0.00000000000E+00 0. -1.
         -5    1    5    5    0  502  0.40834641777E+02 -0.57751741319E+02 -0.19231915634E+02  0.73448540988E+02  0.47000000000E+01 0.  1.
         13    1    6    6    0    0 -0.73817675574E+01  0.97278574241E+01  0.24175232385E+02  0.27084378582E+02  0.00000000000E+00 0. -1.
        -14    1    6    6    0    0 -0.89990716646E+02 -0.89722408386E+02  0.19869039532E+02  0.12862044309E+03  0.00000000000E+00 0.  1.
</event>
<event>
12    1  0.8053217E-002  0.1784246E+03  0.7818608E-02  0.1170091E+00
         21   -1    0    0  503  502  0.00000000000E+00  0.00000000000E+00  0.24541237358E+03  0.24541237358E+03  0.00000000000E+00 0.  1.
         21   -1    0    0  501  503 -0.00000000000E+00 -0.00000000000E+00 -0.20142346154E+03  0.20142346154E+03  0.00000000000E+00 0.  1.
          6    2    1    2  501    0  0.78463676328E+01  0.38628892681E+02 -0.11322197093E+03  0.21131624752E+03  0.17401604792E+03 0.  0.
         24    2    3    3    0    0 -0.59198300811E+02 -0.13792809130E+02 -0.52652139157E+02  0.10675135424E+03  0.70206292247E+02 0.  0.
         -6    2    1    2    0  502 -0.78463676328E+01 -0.38628892681E+02  0.15721088298E+03  0.23551958759E+03  0.17088141379E+03 0.  0.
        -24    2    5    5    0    0 -0.60658776970E+02  0.12510931773E+02  0.78175474708E+02  0.12747738295E+03  0.79391861545E+02 0.  0.
          5    1    3    3  501    0  0.67044668444E+02  0.52421701811E+02 -0.60569831771E+02  0.10456489329E+03  0.47000000000E+01 0. -1.
        -13    1    4    4    0    0 -0.10452266859E+02 -0.35387425263E+02 -0.93454552239E+01  0.38063857957E+02  0.00000000000E+00 0.  1.
         14    1    4    4    0    0 -0.48746033952E+02  0.21594616133E+02 -0.43306683933E+02  0.68687496280E+02  0.00000000000E+00 0. -1.
         -5    1    5    5    0  502  0.52812409337E+02 -0.51139824454E+02  0.79035408269E+02  0.10804220465E+03  0.47000000000E+01 0.  1.
         11    1    6    6    0    0 -0.61726001485E+02 -0.13561104000E+02  0.79247409840E+02  0.10136150535E+03  0.00000000000E+00 0. -1.
        -12    1    6    6    0    0  0.10672245148E+01  0.26072035773E+02 -0.10719351320E+01  0.26115877593E+02  0.00000000000E+00 0.  1.
</event>
<event>
12    1  0.8053217E-002  0.1869016E+03  0.7818608E-02  0.1164007E+00
         21   -1    0    0  503  502  0.00000000000E+00  0.00000000000E+00  0.25087878263E+03  0.25087878263E+03  0.00000000000E+00 0.  1.
         21   -1    0    0  501  503 -0.00000000000E+00 -0.00000000000E+00 -0.22662821942E+03  0.22662821942E+03  0.00000000000E+00 0.  1.
          6    2    1    2  501    0 -0.30004848166E+02 -0.94850101747E+01 -0.14281290930E+03  0.23521850473E+03  0.18423344315E+03 0.  0.
         24    2    3    3    0    0  0.31211996208E+02  0.34520688138E+02 -0.12951437783E+03  0.15851814972E+03  0.78664878503E+02 0.  0.
         -6    2    1    2    0  502  0.30004848166E+02  0.94850101747E+01  0.16706347252E+03  0.24228849732E+03  0.17263619479E+03 0.  0.
        -24    2    5    5    0    0 -0.49754020646E+02  0.47434491866E+01  0.83102480919E+02  0.12629066258E+03  0.80903314137E+02 0.  0.
          5    1    3    3  501    0 -0.61216844374E+02 -0.44005698312E+02 -0.13298531471E+02  0.76700355008E+02  0.47000000000E+01 0. -1.
        -11    1    4    4    0    0 -0.21061738404E+01 -0.20413129170E+02 -0.62050532852E+02  0.65355951817E+02  0.00000000000E+00 0.  1.
         12    1    4    4    0    0  0.33318170048E+02  0.54933817307E+02 -0.67463844981E+02  0.93162197907E+02  0.00000000000E+00 0. -1.
         -5    1    5    5    0  502  0.79758868813E+02  0.47415609881E+01  0.83960991600E+02  0.11599783474E+03  0.47000000000E+01 0.  1.
         13    1    6    6    0    0 -0.19218550907E+02  0.35785932919E+02  0.11038987453E+02  0.42093288513E+02  0.00000000000E+00 0. -1.
        -14    1    6    6    0    0 -0.30535469739E+02 -0.31042483733E+02  0.72063493466E+02  0.84197374062E+02  0.00000000000E+00 0.  1.
</event>
<event>
12    1  0.8053217E-002  0.2575458E+03  0.7818608E-02  0.1108933E+00
         21   -1    0    0  503  502  0.00000000000E+00  0.00000000000E+00  0.39423962461E+03  0.39423962461E+03  0.00000000000E+00 0. -1.
         21   -1    0    0  501  503 -0.00000000000E+00 -0.00000000000E+00 -0.17069389840E+03  0.17069389840E+03  0.00000000000E+00 0. -1.
          6    2    1    2  501    0 -0.17272539071E+03  0.81728619541E+02  0.69445388802E+02  0.26480564309E+03  0.16966360464E+03 0.  0.
         24    2    3    3    0    0 -0.13913441497E+03 -0.69285484721E+01  0.46365795076E+02  0.16711631544E+03  0.79822839588E+02 0.  0.
         -6    2    1    2    0  502  0.17272539071E+03 -0.81728619541E+02  0.15410033741E+03  0.30012787991E+03  0.17267368781E+03 0.  0.
        -24    2    5    5    0    0  0.10803286680E+03 -0.36557504251E+02  0.15467538571E+02  0.14054500107E+03  0.80660406322E+02 0.  0.
          5    1    3    3  501    0 -0.33590975745E+02  0.88657168013E+02  0.23079593726E+02  0.97689327657E+02  0.47000000000E+01 0. -1.
        -13    1    4    4    0    0 -0.55979173491E+02 -0.13591909900E+02 -0.19510672211E+02  0.60820014877E+02  0.00000000000E+00 0.  1.
         14    1    4    4    0    0 -0.83155241476E+02  0.66633614282E+01  0.65876467287E+02  0.10629630056E+03  0.00000000000E+00 0. -1.
         -5    1    5    5    0  502  0.64692523908E+02 -0.45171115290E+02  0.13863279884E+03  0.15958287885E+03  0.47000000000E+01 0.  1.
         13    1    6    6    0    0  0.11665356948E+03 -0.47331353755E+02  0.13668161891E+02  0.12662989761E+03  0.00000000000E+00 0. -1.
        -14    1    6    6    0    0 -0.86207026712E+01  0.10773849504E+02  0.17993766797E+01  0.13915103454E+02  0.00000000000E+00 0.  1.
</event>
<event>
12    1  0.8053217E-002  0.1790532E+03  0.7818608E-02  0.1169138E+00
         21   -1    0    0  503  502  0.00000000000E+00  0.00000000000E+00  0.25052171478E+03  0.25052171478E+03  0.00000000000E+00 0.  1.
         21   -1    0    0  501  503 -0.00000000000E+00 -0.00000000000E+00 -0.14941066878E+03  0.14941066878E+03  0.00000000000E+00 0.  1.
          6    2    1    2  501    0  0.24034287771E+02 -0.40837956758E+02  0.12861083375E+03  0.22045588845E+03  0.17266924014E+03 0.  0.
         24    2    3    3    0    0 -0.47955760412E+02  0.13910848008E+01  0.71277711824E+02  0.11909003691E+03  0.82463535056E+02 0.  0.
         -6    2    1    2    0  502 -0.24034287771E+02  0.40837956758E+02 -0.27499787744E+02  0.17947649511E+03  0.17090988348E+03 0.  0.
        -24    2    5    5    0    0 -0.77146085289E+02  0.12728872586E+02 -0.39472460839E+02  0.11802392357E+03  0.79107703142E+02 0.  0.
          5    1    3    3  501    0  0.71990048183E+02 -0.42229041559E+02  0.57333121925E+02  0.10136585154E+03  0.47000000000E+01 0. -1.
        -13    1    4    4    0    0 -0.52430909399E+02  0.26119970428E+02  0.73355471551E+02  0.93873736061E+02  0.00000000000E+00 0.  1.
         14    1    4    4    0    0  0.44751489872E+01 -0.24728885628E+02 -0.20777597273E+01  0.25216300845E+02  0.00000000000E+00 0. -1.
         -5    1    5    5    0  502  0.53111797518E+02  0.28109084172E+02  0.11972673095E+02  0.61452571546E+02  0.47000000000E+01 0.  1.
         13    1    6    6    0    0 -0.34209946032E+02  0.26675832692E+02  0.16236076378E+02  0.46319872987E+02  0.00000000000E+00 0. -1.
        -14    1    6    6    0    0 -0.42936139257E+02 -0.13946960107E+02 -0.55708537218E+02  0.71704050579E+02  0.00000000000E+00 0.  1.
</event>
<event>
12    1  0.8053217E-002  0.2089580E+03  0.7818608E-02  0.1143881E+00
         21   -1    0    0  501  502  0.00000000000E+00  0.00000000000E+00  0.10511177593E+04  0.10511177593E+04  0.00000000000E+00 0.  1.
         21   -1    0    0  502  503 -0.00000000000E+00 -0.00000000000E+00 -0.42644467586E+02  0.42644467586E+02  0.00000000000E+00 0.  1.
         -6    2    1    2    0  503 -0.32909694135E+02 -0.10079051099E+03  0.37904381699E+03  0.43282522898E+03  0.18006023595E+03 0.  0.
        -24    2    3    3    0    0 -0.11912394094E+01 -0.12940956753E+03  0.21747456377E+03  0.26563723792E+03  0.80744665855E+02 0.  0.
          6    2    1    2  501    0  0.32909694135E+02  0.10079051099E+03  0.62942947474E+03  0.66093699793E+03  0.17150649106E+03 0.  0.
         24    2    5    5    0    0  0.59545683079E+02  0.11484314858E+03  0.36442387360E+03  0.39418428254E+03  0.76432007684E+02 0.  0.
          5    1    5    5  501    0 -0.26635988944E+02 -0.14052637594E+02  0.26500560114E+03  0.26675271539E+03  0.47000000000E+01 0. -1.
        -13    1    6    6    0    0  0.40652037643E+01  0.54094645480E+02  0.23221981838E+03  0.23847180253E+03  0.00000000000E+00 0.  1.
         14    1    6    6    0    0  0.55480479315E+02  0.60748503103E+02  0.13220405522E+03  0.15571248001E+03  0.00000000000E+00 0. -1.
         -5    1    3    3    0  503 -0.31718454726E+02  0.28619056544E+02  0.16156925322E+03  0.16718799106E+03  0.47000000000E+01 0.  1.
         11    1    4    4    0    0 -0.30165918582E+02 -0.36341461534E+02  0.11443301513E+03  0.12379660505E+03  0.00000000000E+00 0. -1.
        -12    1    4    4    0    0  0.28974679172E+02 -0.93068105998E+02  0.10304154864E+03  0.14184063287E+03  0.00000000000E+00 0.  1.
</event>
<event>
12    1  0.8053217E-002  0.2058810E+03  0.7818608E-02  0.1145319E+00
         21   -1    0    0  501  502  0.00000000000E+00  0.00000000000E+00  0.68587490916E+02  0.68587490916E+02  0.00000000000E+00 0.  1.
         21   -1    0    0  502  503 -0.00000000000E+00 -0.00000000000E+00 -0.66858304905E+03  0.66858304905E+03  0.00000000000E+00 0.  1.
         -6    2    1    2    0  503 -0.75139940839E+02 -0.78979149163E+02 -0.40924588257E+03  0.45811479746E+03  0.17465182089E+03 0.  0.
        -24    2    3    3    0    0  0.87988418932E+01 -0.82657574455E+02 -0.16488498611E+03  0.19967024291E+03  0.75970079803E+02 0.  0.
          6    2    1    2  501    0  0.75139940839E+02  0.78979149163E+02 -0.19074967556E+03  0.27905574250E+03  0.17205508416E+03 0.  0.
         24    2    5    5    0    0  0.28850738357E+02  0.89573222194E+02 -0.57319883335E+02  0.13734997655E+03  0.81998291416E+02 0.  0.
          5    1    5    5  501    0  0.46289202482E+02 -0.10594073031E+02 -0.13342979223E+03  0.14170576595E+03  0.47000000000E+01 0. -1.
        -11    1    6    6    0    0 -0.72817410377E+01  0.49694292773E+02 -0.65899348229E+02  0.82856928400E+02  0.00000000000E+00 0.  1.
         12    1    6    6    0    0  0.36132479395E+02  0.39878929421E+02  0.85794648947E+01  0.54493048151E+02  0.00000000000E+00 0. -1.
         -5    1    3    3    0  503 -0.83938782732E+02  0.36784252918E+01 -0.24436089646E+03  0.25844455456E+03  0.47000000000E+01 0.  1.
         13    1    4    4    0    0  0.17089909553E+01 -0.29016330987E+02 -0.13451991524E+03  0.13762440086E+03  0.00000000000E+00 0. -1.
        -14    1    4    4    0    0  0.70898509378E+01 -0.53641243468E+02 -0.30365070863E+02  0.62045842050E+02  0.00000000000E+00 0.  1.
</event>
<event>
12    1  0.8053217E-002  0.1795794E+03  0.7818608E-02  0.1168573E+00
         21   -1    0    0  503  502  0.00000000000E+00  0.00000000000E+00  0.19299943559E+03  0.19299943559E+03  0.00000000000E+00 0. -1.
         21   -1    0    0  501  503 -0.00000000000E+00 -0.00000000000E+00 -0.23842004054E+03  0.23842004054E+03  0.00000000000E+00 0.  1.
          6    2    1    2  501    0 -0.14132772369E+02  0.51572389689E+02 -0.14189560359E+03  0.22887357438E+03  0.17143308928E+03 0.  0.
         24    2    3    3    0    0  0.49300114833E+02  0.22432106899E+02 -0.12236309360E+03  0.15623407958E+03  0.80639073673E+02 0.  0.
         -6    2    1    2    0  502  0.14132772369E+02 -0.51572389689E+02  0.96474998632E+02  0.20254590175E+03  0.16987633832E+03 0.  0.
        -24    2    5    5    0    0  0.50167968170E+02 -0.13162179873E+02  0.11318434713E+03  0.14709166943E+03  0.78327484133E+02 0.  0.
          5    1    3    3  501    0 -0.63432887201E+02  0.29140282790E+02 -0.19532509986E+02  0.72639494809E+02  0.47000000000E+01 0. -1.
        -13    1    4    4    0    0  0.39031959182E+02  0.10514504180E+02 -0.85228410629E+01  0.41312073968E+02  0.00000000000E+00 0.  1.
         14    1    4    4    0    0  0.10268155651E+02  0.11917602720E+02 -0.11384025254E+03  0.11492200561E+03  0.00000000000E+00 0. -1.
         -5    1    5    5    0  502 -0.36035195801E+02 -0.38410209816E+02 -0.16709348500E+02  0.55454232317E+02  0.47000000000E+01 0.  1.
         13    1    6    6    0    0  0.99698482276E+01  0.21224361676E+02  0.82866451770E+02  0.86120382206E+02  0.00000000000E+00 0. -1.
        -14    1    6    6    0    0  0.40198119942E+02 -0.34386541549E+02  0.30317895362E+02  0.60971287224E+02  0.00000000000E+00 0.  1.
</event>
<event>
12    1  0.8053217E-002  0.1750308E+03  0.7818608E-02  0.1172896E+00
         21   -1    0    0  503  502  0.00000000000E+00  0.00000000000E+00  0.28371228969E+02  0.28371228969E+02  0.00000000000E+00 0. -1.
         21   -1    0    0  501  503 -0.00000000000E+00 -0.00000000000E+00 -0.15948114533E+04  0.15948114533E+04  0.00000000000E+00 0. -1.
          6    2    1    2  501    0  0.25892158806E+02 -0.20351447160E+02 -0.12453746949E+04  0.12575068020E+04  0.17111587019E+03 0.  0.
         24    2    3    3    0    0  0.49847162114E+01 -0.71126193123E+02 -0.58124957610E+03  0.59109892432E+03  0.80393319811E+02 0.  0.
         -6    2    1    2    0  502 -0.25892158806E+02  0.20351447160E+02 -0.32106552944E+03  0.36567588031E+03  0.17190459549E+03 0.  0.
        -24    2    5    5    0    0  0.23589682046E+02  0.48378533754E+02 -0.10747875401E+03  0.14459813200E+03  0.80374010640E+02 0.  0.
          5    1    3    3  501    0  0.20907442594E+02  0.50774745963E+02 -0.66412511880E+03  0.66640787766E+03  0.47000000000E+01 0. -1.
        -13    1    4    4    0    0  0.97281357834E+01 -0.22532191492E+02 -0.45613877879E+03  0.45679855713E+03  0.00000000000E+00 0.  1.
         14    1    4    4    0    0 -0.47434195720E+01 -0.48594001631E+02 -0.12511079732E+03  0.13430036720E+03  0.00000000000E+00 0. -1.
         -5    1    5    5    0  502 -0.49481840851E+02 -0.28027086594E+02 -0.21358677543E+03  0.22107774831E+03  0.47000000000E+01 0.  1.
         13    1    6    6    0    0  0.14161760306E+02 -0.10642082415E+02  0.39518641255E+01  0.18150113034E+02  0.00000000000E+00 0. -1.
        -14    1    6    6    0    0  0.94279217397E+01  0.59020616169E+02 -0.11143061814E+03  0.12644801897E+03  0.00000000000E+00 0.  1.
</event>
<event>
12    1  0.8053217E-002  0.1771115E+03  0.7818608E-02  0.1170631E+00
         21   -1    0    0  503  502  0.00000000000E+00  0.00000000000E+00  0.12471935572E+03  0.12471935572E+03  0.00000000000E+00 0.  1.
         21   -1    0    0  501  503 -0.00000000000E+00 -0.00000000000E+00 -0.31200064286E+03  0.31200064286E+03  0.00000000000E+00 0.  1.
          6    2    1    2  501    0 -0.32194845147E+02  0.30237872550E+02 -0.18979541073E+03  0.25959061950E+03  0.17150555329E+03 0.  0.
         24    2    3    3    0    0 -0.73504801967E+02  0.38174650211E+02 -0.79375349322E+02  0.14133587358E+03  0.82553759758E+02 0.  0.
         -6    2    1    2    0  502  0.32194845147E+02 -0.30237872550E+02  0.25141235929E+01  0.17712937908E+03  0.17151576932E+03 0.  0.
        -24    2    5    5    0    0 -0.22542822846E+02 -0.51264680326E+02 -0.38424642473E+02  0.10546061664E+03  0.80679874828E+02 0.  0.
          5    1    3    3  501    0  0.41309956820E+02 -0.79367776609E+01 -0.11042006140E+03  0.11825474592E+03  0.47000000000E+01 0. -1.
        -13    1    4    4    0    0 -0.87950952572E+01 -0.20049580163E+02  0.22434256081E+01  0.22008460277E+02  0.00000000000E+00 0.  1.
         14    1    4    4    0    0 -0.64709706710E+02  0.58224230374E+02 -0.81618774930E+02  0.11932741331E+03  0.00000000000E+00 0. -1.
         -5    1    5    5    0  502  0.54737667993E+02  0.21026807776E+02  0.40938766066E+02  0.71668762439E+02  0.47000000000E+01 0.  1.
         13    1    6    6    0    0  0.89023721126E+01 -0.27522538920E+02  0.19873897980E+02  0.35095786054E+02  0.00000000000E+00 0. -1.
        -14    1    6    6    0    0 -0.31445194958E+02 -0.23742141407E+02 -0.58298540453E+02  0.70364830587E+02  0.00000000000E+00 0.  1.
</event>
<event>
12    1  0.8053217E-002  0.2299192E+03  0.7818608E-02  0.1126994E+00
         21   -1    0    0  503  502  0.00000000000E+00  0.00000000000E+00  0.34311500496E+02  0.34311500496E+02  0.00000000000E+00 0. -1.
         21   -1    0    0  501  503 -0.00000000000E+00 -0.00000000000E+00 -0.19196850824E+04  0.19196850824E+04  0.00000000000E+00 0.  1.
          6    2    1    2  501    0 -0.57251610179E+02 -0.14111063086E+03 -0.13859489235E+04  0.14048904827E+04  0.17225821577E+03 0.  0.
         24    2    3    3    0    0 -0.36094042134E+01 -0.25326259746E+02 -0.84162722911E+03  0.84579147197E+03  0.79827150983E+02 0.  0.
         -6    2    1    2    0  502  0.57251610179E+02  0.14111063086E+03 -0.49942465845E+03  0.54910610021E+03  0.17000753752E+03 0.  0.
        -24    2    5    5    0    0  0.46888389374E+02  0.21889601443E+02 -0.33791388332E+03  0.34803678211E+03  0.65315644756E+02 0.  0.
          5    1    3    3  501    0 -0.53642205965E+02 -0.11578437111E+03 -0.54432169439E+03  0.55909901077E+03  0.47000000000E+01 0. -1.
        -13    1    4    4    0    0  0.53792983327E+01 -0.53748034034E+02 -0.54339989351E+03  0.54607804596E+03  0.00000000000E+00 0.  1.
         14    1    4    4    0    0 -0.89887025461E+01  0.28421774288E+02 -0.29822733560E+03  0.29971342601E+03  0.00000000000E+00 0. -1.
         -5    1    5    5    0  502  0.10363220805E+02  0.11922102942E+03 -0.16151077513E+03  0.20106931811E+03  0.47000000000E+01 0.  1.
         11    1    6    6    0    0  0.72646866702E+01 -0.12290341508E+02 -0.14255394636E+02  0.20175342451E+02  0.00000000000E+00 0. -1.
        -12    1    6    6    0    0  0.39623702704E+02  0.34179942952E+02 -0.32365848868E+03  0.32786143966E+03  0.00000000000E+00 0.  1.
</event>
<event>
12    1  0.8053217E-002  0.3622854E+03  0.7818608E-02  0.1057814E+00
         21   -1    0    0  503  502  0.00000000000E+00  0.00000000000E+00  0.82860560494E+03  0.82860560494E+03  0.00000000000E+00 0. -1.
         21   -1    0    0  501  503 -0.00000000000E+00 -0.00000000000E+00 -0.17018970596E+03  0.17018970596E+03  0.00000000000E+00 0. -1.
          6    2    1    2  501    0  0.10185715024E+03  0.30206502426E+03  0.19511276985E+03  0.41148472656E+03  0.17214101573E+03 0.  0.
         24    2    3    3    0    0 -0.23475840468E+01  0.58060058856E+02  0.82687877856E+02  0.12328601711E+03  0.70609314429E+02 0.  0.
         -6    2    1    2    0  502 -0.10185715024E+03 -0.30206502426E+03  0.46330312914E+03  0.58731058434E+03  0.16930970165E+03 0.  0.
        -24    2    5    5    0    0 -0.44268695667E+02 -0.18283837038E+03  0.37706326278E+03  0.42922570320E+03  0.81660351765E+02 0.  0.
          5    1    3    3  501    0  0.10420473428E+03  0.24400496541E+03  0.11242489199E+03  0.28819870945E+03  0.47000000000E+01 0. -1.
        -13    1    4    4    0    0 -0.29308634220E+02  0.38837775341E+02  0.20430530815E+02  0.52770971401E+02  0.00000000000E+00 0.  1.
         14    1    4    4    0    0  0.26961050174E+02  0.19222283515E+02  0.62257347041E+02  0.70515045704E+02  0.00000000000E+00 0. -1.
         -5    1    5    5    0  502 -0.57588454569E+02 -0.11922665389E+03  0.86239866364E+02  0.15808488115E+03  0.47000000000E+01 0.  1.
         11    1    6    6    0    0  0.21012010341E+02 -0.84205457526E+02  0.15714181584E+03  0.17951494072E+03  0.00000000000E+00 0. -1.
        -12    1    6    6    0    0 -0.65280706008E+02 -0.98632912849E+02  0.21992144693E+03  0.24971076247E+03  0.00000000000E+00 0.  1.
</event>
<event>
12    1  0.8053217E-002  0.2674865E+03  0.7818608E-02  0.1102929E+00
         21   -1    0    0  501  502  0.00000000000E+00  0.00000000000E+00  0.12044004594E+04  0.12044004594E+04  0.00000000000E+00 0. -1.
         21   -1    0    0  502  503 -0.00000000000E+00 -0.00000000000E+00 -0.60337628274E+02  0.60337628274E+02  0.00000000000E+00 0.  1.
         -6    2    1    2    0  503  0.20124654334E+03 -0.34947711112E+02  0.48282039658E+03  0.55196427143E+03  0.17270642103E+03 0.  0.
        -24    2    3    3    0    0  0.73467179298E+02  0.38224190794E+02  0.28181741551E+03  0.30275355436E+03  0.73349463506E+02 0.  0.
          6    2    1    2  501    0 -0.20124654334E+03  0.34947711112E+02  0.66124243455E+03  0.71277381625E+03  0.17053868229E+03 0.  0.
         24    2    5    5    0    0 -0.15679057812E+03  0.49293649500E+02  0.63125758857E+03  0.65706636809E+03  0.78974170924E+02 0.  0.
          5    1    5    5  501    0 -0.44455965219E+02 -0.14345938388E+02  0.29984845975E+02  0.55707448155E+02  0.47000000000E+01 0. -1.
        -13    1    6    6    0    0 -0.51791964433E+02  0.53485394220E+02  0.20677185707E+03  0.21976736758E+03  0.00000000000E+00 0.  1.
         14    1    6    6    0    0 -0.10499861369E+03 -0.41917447197E+01  0.42448573151E+03  0.43729900052E+03  0.00000000000E+00 0. -1.
         -5    1    3    3    0  503  0.12777936405E+03 -0.73171901907E+02  0.20100298107E+03  0.24921071707E+03  0.47000000000E+01 0.  1.
         13    1    4    4    0    0 -0.11223874774E+02  0.20665748800E+02  0.74297848481E+02  0.77930859275E+02  0.00000000000E+00 0. -1.
        -14    1    4    4    0    0  0.84691054072E+02  0.17558441994E+02  0.20751956703E+03  0.22482269508E+03  0.00000000000E+00 0.  1.
</event>
<event>
12    1  0.8053217E-002  0.3474558E+03  0.7818608E-02  0.1063723E+00
         21   -1    0    0  503  502  0.00000000000E+00  0.00000000000E+00  0.11220106952E+03  0.11220106952E+03  0.00000000000E+00 0. -1.
         21   -1    0    0  501  503 -0.00000000000E+00 -0.00000000000E+00 -0.13359700745E+04  0.13359700745E+04  0.00000000000E+00 0.  1.
          6    2    1    2  501    0  0.10030369035E+03 -0.28459700233E+03 -0.93198594538E+03  0.99444997645E+03  0.17110426427E+03 0.  0.
         24    2    3    3    0    0 -0.32795419364E+01 -0.84041136583E+02 -0.40852209291E+03  0.42437223076E+03  0.78280405018E+02 0.  0.
         -6    2    1    2    0  502 -0.10030369035E+03  0.28459700233E+03 -0.29178305958E+03  0.45372116754E+03  0.17224767048E+03 0.  0.
        -24    2    5    5    0    0 -0.32356836149E+02  0.12668304773E+03 -0.21850587652E+03  0.26678474089E+03  0.79584674844E+02 0.  0.
          5    1    3    3  501    0  0.10358323228E+03 -0.20055586574E+03 -0.52346385247E+03  0.57007774569E+03  0.47000000000E+01 0. -1.
        -11    1    4    4    0    0 -0.39757890570E+02 -0.52598433448E+02 -0.21087454729E+03  0.22094198279E+03  0.00000000000E+00 0.  1.
         12    1    4    4    0    0  0.36478348633E+02 -0.31442703134E+02 -0.19764754562E+03  0.20343024797E+03  0.00000000000E+00 0. -1.
         -5    1    5    5    0  502 -0.67946854197E+02  0.15791395460E+03 -0.73277183059E+02  0.18693642665E+03  0.47000000000E+01 0.  1.
         13    1    6    6    0    0 -0.13796474913E+02  0.44652475040E+01  0.13440981154E+01  0.14563232987E+02  0.00000000000E+00 0. -1.
        -14    1    6    6    0    0 -0.18560361236E+02  0.12221780023E+03 -0.21984997464E+03  0.25222150791E+03  0.00000000000E+00 0.  1.
</event>
<event>
12    1  0.8053217E-002  0.1885794E+03  0.7818608E-02  0.1159849E+00
         21   -1    0    0  501  502  0.00000000000E+00  0.00000000000E+00  0.87588746179E+02  0.87588746179E+02  0.00000000000E+00 0. -1.
         21   -1    0    0  502  503 -0.00000000000E+00 -0.00000000000E+00 -0.51062645234E+03  0.51062645234E+03  0.00000000000E+00 0. -1.
         -6    2    1    2    0  503 -0.76010971473E+02  0.14438288343E+02 -0.34770905920E+03  0.39555504605E+03  0.17197695384E+03 0.  0.
        -24    2    3    3    0    0 -0.11033245694E+03  0.78024747784E+01 -0.18686826173E+03  0.23089220715E+03  0.78468684271E+02 0.  0.
          6    2    1    2  501    0  0.76010971473E+02 -0.14438288343E+02 -0.75328646960E+02  0.20266015247E+03  0.17149519058E+03 0.  0.
         24    2    5    5    0    0  0.90029690015E+02  0.12111471168E+02 -0.10423196598E+03  0.16072083858E+03  0.81944202987E+02 0.  0.
          5    1    5    5  501    0 -0.14018718542E+02 -0.26549759511E+02  0.28903319016E+02  0.41939313893E+02  0.47000000000E+01 0. -1.
        -11    1    6    6    0    0  0.49560386695E+02  0.46111403399E+02 -0.44752707271E+02  0.81149850652E+02  0.00000000000E+00 0.  1.
         12    1    6    6    0    0  0.40469303320E+02 -0.33999932232E+02 -0.59479258705E+02  0.79570987923E+02  0.00000000000E+00 0. -1.
         -5    1    3    3    0  503  0.34321485466E+02  0.66358135646E+01 -0.16084079746E+03  0.16466283890E+03  0.47000000000E+01 0.  1.
         13    1    4    4    0    0 -0.15050651286E+02 -0.15754030806E+02 -0.91432226988E+02  0.93992359916E+02  0.00000000000E+00 0. -1.
        -14    1    4    4    0    0 -0.95281805653E+02  0.23556505584E+02 -0.95436034747E+02  0.13689984723E+03  0.00000000000E+00 0.  1.
</event>
<event>
12    1  0.8053217E-002  0.2035949E+03  0.7818608E-02  0.1146831E+00
         21   -1    0    0  503  502  0.00000000000E+00  0.00000000000E+00  0.66172618438E+02  0.66172618438E+02  0.00000000000E+00 0.  1.
         21   -1    0    0  501  503 -0.00000000000E+00 -0.00000000000E+00 -0.75113401580E+03  0.75113401580E+03  0.00000000000E+00 0. -1.
          6    2    1    2  501    0  0.86444315054E+02 -0.64837306642E+02 -0.51020675149E+03  0.54932852673E+03  0.17255261537E+03 0.  0.
         24    2    3    3    0    0  0.66836768955E+02 -0.10846615652E+03 -0.32247366988E+03  0.35554067278E+03  0.78662833923E+02 0.  0.
         -6    2    1    2    0  502 -0.86444315054E+02  0.64837306642E+02 -0.17475464587E+03  0.26797810751E+03  0.17203657726E+03 0.  0.
        -24    2    5    5    0    0 -0.12720547978E+03  0.40082007850E+02 -0.13341989518E+03  0.20469344126E+03  0.79440134836E+02 0.  0.
          5    1    3    3  501    0  0.19607546099E+02  0.43628849880E+02 -0.18773308161E+03  0.19378785394E+03  0.47000000000E+01 0. -1.
        -11    1    4    4    0    0 -0.10678085952E+02 -0.77049157744E+01 -0.59655358246E+01  0.14455962934E+02  0.00000000000E+00 0.  1.
         12    1    4    4    0    0  0.77514854906E+02 -0.10076124075E+03 -0.31650813406E+03  0.34108470985E+03  0.00000000000E+00 0. -1.
         -5    1    5    5    0  502  0.40761164730E+02  0.24755298792E+02 -0.41334750691E+02  0.63284666256E+02  0.47000000000E+01 0.  1.
         11    1    6    6    0    0 -0.90123227909E+02  0.63503300282E+02 -0.83897236429E+02  0.13854101066E+03  0.00000000000E+00 0. -1.
        -12    1    6    6    0    0 -0.37082251875E+02 -0.23421292433E+02 -0.49522658753E+02  0.66152430592E+02  0.00000000000E+00 0.  1.
</event>
<event>
12    1  0.8053217E-002  0.1803570E+03  0.7818608E-02  0.1168020E+00
         21   -1    0    0  503  502  0.00000000000E+00  0.00000000000E+00  0.60148394699E+02  0.60148394699E+02  0.00000000000E+00 0.  1.
         21   -1    0    0  501  503 -0.00000000000E+00 -0.00000000000E+00 -0.56398879486E+03  0.56398879486E+03  0.00000000000E+00 0.  1.
          6    2    1    2  501    0  0.23527079859E+01  0.47465866014E+02 -0.32246669824E+03  0.36835397703E+03  0.17158478151E+03 0.  0.
         24    2    3    3    0    0 -0.57523157244E+02 -0.11533656988E+02 -0.16922338349E+03  0.19350642495E+03  0.73254652508E+02 0.  0.
         -6    2    1    2    0  502 -0.23527079859E+01 -0.47465866014E+02 -0.18137370192E+03  0.25578321253E+03  0.17398301180E+03 0.  0.
        -24    2    5    5    0    0 -0.67057564681E+02 -0.30070099063E+02 -0.13880099533E+03  0.17626053316E+03  0.80007070985E+02 0.  0.
          5    1    3    3  501    0  0.59875865230E+02  0.58999523003E+02 -0.15324331476E+03  0.17484755208E+03  0.47000000000E+01 0. -1.
        -13    1    4    4    0    0 -0.24862364913E+02  0.99048959772E+01 -0.14519370104E+03  0.14763961181E+03  0.00000000000E+00 0.  1.
         14    1    4    4    0    0 -0.32660792331E+02 -0.21438552965E+02 -0.24029682447E+02  0.45866813138E+02  0.00000000000E+00 0. -1.
         -5    1    5    5    0  502  0.64704856695E+02 -0.17395766951E+02 -0.42572706591E+02  0.79522679370E+02  0.47000000000E+01 0.  1.
         11    1    6    6    0    0 -0.18497218448E+02  0.27611395968E+02 -0.42962045187E+02  0.54316421129E+02  0.00000000000E+00 0. -1.
        -12    1    6    6    0    0 -0.48560346232E+02 -0.57681495031E+02 -0.95838950142E+02  0.12194411203E+03  0.00000000000E+00 0.  1.
</event>
<event>
12    1  0.8053217E-002  0.2390381E+03  0.7818608E-02  0.1120462E+00
         21   -1    0    0  503  502  0.00000000000E+00  0.00000000000E+00  0.24529193589E+03  0.24529193589E+03  0.00000000000E+00 0.  1.
         21   -1    0    0  501  503 -0.00000000000E+00 -0.00000000000E+00 -0.32778788574E+03  0.32778788574E+03  0.00000000000E+00 0.  1.
          6    2    1    2  501    0 -0.37354574088E+01 -0.16542554415E+03 -0.19549907910E+03  0.30867684632E+03  0.17228447760E+03 0.  0.
         24    2    3    3    0    0  0.33817722033E+02 -0.13416620055E+03 -0.70779274058E+02  0.17464510523E+03  0.79668057909E+02 0.  0.
         -6    2    1    2    0  502  0.37354574088E+01  0.16542554415E+03  0.11300312925E+03  0.26440297531E+03  0.17250988908E+03 0.  0.
        -24    2    5    5    0    0  0.55490816733E+02  0.15957718502E+03  0.94330948179E+02  0.20887315567E+03  0.78648322645E+02 0.  0.
          5    1    3    3  501    0 -0.37553179442E+02 -0.31259343600E+02 -0.12471980504E+03  0.13403174109E+03  0.47000000000E+01 0. -1.
        -11    1    4    4    0    0  0.35046832079E+02 -0.13780733243E+02 -0.27812534839E+02  0.46815874889E+02  0.00000000000E+00 0.  1.
         12    1    4    4    0    0 -0.12291100455E+01 -0.12038546731E+03 -0.42966739218E+02  0.12782923034E+03  0.00000000000E+00 0. -1.
         -5    1    5    5    0  502 -0.51755359324E+02  0.58483591383E+01  0.18672181075E+02  0.55529819642E+02  0.47000000000E+01 0.  1.
         11    1    6    6    0    0  0.28392384692E+02  0.10702855926E+03  0.17781166118E+02  0.11214905205E+03  0.00000000000E+00 0. -1.
        -12    1    6    6    0    0  0.27098432041E+02  0.52548625752E+02  0.76549782061E+02  0.96724103620E+02  0.00000000000E+00 0.  1.
</event>
<event>
12    1  0.8053217E-002  0.2020280E+03  0.7818608E-02  0.1149868E+00
         21   -1    0    0  501  502  0.00000000000E+00  0.00000000000E+00  0.21080901565E+03  0.21080901565E+03  0.00000000000E+00 0. -1.
         21   -1    0    0  502  503 -0.00000000000E+00 -0.00000000000E+00 -0.49707311584E+03  0.49707311584E+03  0.00000000000E+00 0.  1.
         -6    2    1    2    0  503 -0.87609015679E+02 -0.59657150048E+02 -0.42218065461E+03  0.46438955839E+03  0.16182348914E+03 0.  0.
        -24    2    3    3    0    0 -0.12132170877E+03 -0.40517638615E+02 -0.29926746000E+03  0.33542208194E+03  0.81156172794E+02 0.  0.
          6    2    1    2  501    0  0.87609015679E+02  0.59657150048E+02  0.13591655441E+03  0.24349257310E+03  0.17199130272E+03 0.  0.
         24    2    5    5    0    0  0.78340902604E+02  0.82101684244E+02  0.15786807235E+03  0.21042273525E+03  0.80482393530E+02 0.  0.
          5    1    5    5  501    0  0.92681130755E+01 -0.22444534197E+02 -0.21951517936E+02  0.33069837843E+02  0.47000000000E+01 0. -1.
        -13    1    6    6    0    0 -0.67312442658E+01  0.27532106554E+02  0.76299903910E+01  0.29352057748E+02  0.00000000000E+00 0.  1.
         14    1    6    6    0    0  0.85072146869E+02  0.54569577690E+02  0.15023808196E+03  0.18107067751E+03  0.00000000000E+00 0. -1.
         -5    1    3    3    0  503  0.33712693089E+02 -0.19139511433E+02 -0.12291319461E+03  0.12896747645E+03  0.47000000000E+01 0.  1.
         11    1    4    4    0    0 -0.28600695739E+02 -0.16782665626E+02 -0.16787861351E+02  0.37168399898E+02  0.00000000000E+00 0. -1.
        -12    1    4    4    0    0 -0.92721013029E+02 -0.23734972989E+02 -0.28247959865E+03  0.29825368204E+03  0.00000000000E+00 0.  1.
</event>
<event>
12    1  0.8053217E-002  0.1782365E+03  0.7818608E-02  0.1172010E+00
         21   -1    0    0  501  502  0.00000000000E+00  0.00000000000E+00  0.36647029750E+03  0.36647029750E+03  0.00000000000E+00 0.  1.
         21   -1    0    0  502  503 -0.00000000000E+00 -0.00000000000E+00 -0.12090783031E+03  0.12090783031E+03  0.00000000000E+00 0.  1.
         -6    2    1    2    0  503 -0.19594383022E+02  0.43551723513E+02 -0.13121788878E+02  0.17871886814E+03  0.17171942237E+03 0.  0.
        -24    2    3    3    0    0 -0.55771865389E+02 -0.19666858872E+02 -0.29506547086E+02  0.10391278756E+03  0.80186936538E+02 0.  0.
          6    2    1    2  501    0  0.19594383022E+02 -0.43551723513E+02  0.25868425607E+03  0.30865925968E+03  0.16146919761E+03 0.  0.
         24    2    5    5    0    0  0.62190617472E+02  0.74158733741E+01  0.13520843224E+03  0.16837203932E+03  0.78391041569E+02 0.  0.
          5    1    5    5  501    0 -0.42596234450E+02 -0.50967596888E+02  0.12347582384E+03  0.14028722035E+03  0.47000000000E+01 0. -1.
        -13    1    6    6    0    0 -0.12355956697E+02 -0.12081538339E+02  0.52779037280E+02  0.55536114473E+02  0.00000000000E+00 0.  1.
         14    1    6    6    0    0  0.74546574169E+02  0.19497411713E+02  0.82429394955E+02  0.11283592485E+03  0.00000000000E+00 0. -1.
         -5    1    3    3    0  503  0.36177482367E+02  0.63218582385E+02  0.16384758209E+02  0.74806080574E+02  0.47000000000E+01 0.  1.
         13    1    4    4    0    0  0.89715366439E+00  0.56186086759E+01 -0.40495298880E+02  0.40893066399E+02  0.00000000000E+00 0. -1.
        -14    1    4    4    0    0 -0.56669019053E+02 -0.25285467548E+02  0.10988751794E+02  0.63019721164E+02  0.00000000000E+00 0.  1.
</event>
<event>
12    1  0.8053217E-002  0.1813093E+03  0.7818608E-02  0.1166542E+00
         21   -1    0    0  501  502  0.00000000000E+00  0.00000000000E+00  0.95229883905E+02  0.95229883905E+02  0.00000000000E+00 0.  1.
         21   -1    0    0  502  503 -0.00000000000E+00 -0.00000000000E+00 -0.65792499473E+03  0.65792499473E+03  0.00000000000E+00 0.  1.
         -6    2    1    2    0  503 -0.49075054268E+01 -0.57609641472E+02 -0.54097508837E+03  0.57054927037E+03  0.17184140736E+03 0.  0.
        -24    2    3    3    0    0 -0.38593318151E+02  0.17550849411E+02 -0.35011825150E+03  0.36262559315E+03  0.84362635412E+02 0.  0.
          6    2    1    2  501    0  0.49075054268E+01  0.57609641472E+02 -0.21720022456E+02  0.18260560826E+03  0.17184322621E+03 0.  0.
         24    2    5    5    0    0  0.51676135616E+01  0.77659572483E+02  0.39964585011E+02  0.11757370695E+03  0.78541040759E+02 0.  0.
          5    1    5    5  501    0 -0.26010813477E+00 -0.20049931012E+02 -0.61684607467E+02  0.65031901311E+02  0.47000000000E+01 0. -1.
        -13    1    6    6    0    0 -0.24098127330E+02  0.77044364625E+02  0.23929295412E+02  0.84197179526E+02  0.00000000000E+00 0.  1.
         14    1    6    6    0    0  0.29265740891E+02  0.61520785847E+00  0.16035289599E+02  0.33376527428E+02  0.00000000000E+00 0. -1.
         -5    1    3    3    0  503  0.33685812724E+02 -0.75160490882E+02 -0.19085683687E+03  0.20792367722E+03  0.47000000000E+01 0.  1.
         13    1    4    4    0    0 -0.11914178206E+02  0.25380512582E+02 -0.29114559861E+02  0.40419990810E+02  0.00000000000E+00 0. -1.
        -14    1    4    4    0    0 -0.26679139945E+02 -0.78296631710E+01 -0.32100369164E+03  0.32220560234E+03  0.00000000000E+00 0.  1.
</event>
<event>
12    1  0.8053217E-002  0.2432090E+03  0.7818608E-02  0.1118330E+00
         21   -1    0    0  503  502  0.00000000000E+00  0.00000000000E+00  0.65417928264E+03  0.65417928264E+03  0.00000000000E+00 0. -1.
         21   -1    0    0  501  503 -0.00000000000E+00 -0.00000000000E+00 -0.99074822510E+02  0.99074822510E+02  0.00000000000E+00 0. -1.
          6    2    1    2  501    0  0.14490357365E+03 -0.81468606291E+02  0.40000937763E+03  0.46814325270E+03  0.17752865512E+03 0.  0.
         24    2    3    3    0    0  0.13103698462E+03  0.43955772961E+01  0.28069305336E+03  0.32041574831E+03  0.81778047949E+02 0.  0.
         -6    2    1    2    0  502 -0.14490357365E+03  0.81468606291E+02  0.15509508251E+03  0.28511085245E+03  0.17204515135E+03 0.  0.
        -24    2    5    5    0    0 -0.13576585142E+03  0.89042313914E+02  0.63411190744E+02  0.19254258023E+03  0.81797102703E+02 0.  0.
          5    1    3    3  501    0  0.13866589031E+02 -0.85864183587E+02  0.11931632427E+03  0.14772750438E+03  0.47000000000E+01 0. -1.
        -13    1    4    4    0    0  0.42987533490E+02  0.63699366357E+01  0.18636194468E+03  0.19136164337E+03  0.00000000000E+00 0.  1.
         14    1    4    4    0    0  0.88049451126E+02 -0.19743593396E+01  0.94331108682E+02  0.12905410495E+03  0.00000000000E+00 0. -1.
         -5    1    5    5    0  502 -0.91377222286E+01 -0.75737076229E+01  0.91683891761E+02  0.92568272227E+02  0.47000000000E+01 0.  1.
         13    1    6    6    0    0 -0.66511970266E+02  0.50080146352E+02  0.75224296892E+02  0.11220765611E+03  0.00000000000E+00 0. -1.
        -14    1    6    6    0    0 -0.69253881152E+02  0.38962167562E+02 -0.11813106148E+02  0.80334924116E+02  0.00000000000E+00 0.  1.
</event>
<event>
12    1  0.8053217E-002  0.2022811E+03  0.7818608E-02  0.1148038E+00
         21   -1    0    0  501  502  0.00000000000E+00  0.00000000000E+00  0.14715361910E+03  0.14715361910E+03  0.00000000000E+00 0.  1.
         21   -1    0    0  502  503 -0.00000000000E+00 -0.00000000000E+00 -0.39445590294E+03  0.39445590294E+03  0.00000000000E+00 0.  1.
         -6    2    1    2    0  503 -0.51075396797E+02  0.92146568643E+02 -0.27183978515E+03  0.33884292210E+03  0.17267880818E+03 0.  0.
        -24    2    3    3    0    0  0.20881222607E+02 -0.33027290643E+01 -0.11115913870E+03  0.13852147129E+03  0.79905634447E+02 0.  0.
          6    2    1    2  501    0  0.51075396797E+02 -0.92146568643E+02  0.24537501319E+02  0.20276659993E+03  0.17150078369E+03 0.  0.
         24    2    5    5    0    0 -0.41817513282E+02 -0.28796260776E+01  0.15893333429E+02  0.73559435209E+02  0.58321486583E+02 0.  0.
          5    1    5    5  501    0  0.92892910079E+02 -0.89266942566E+02  0.86441678901E+01  0.12920716473E+03  0.47000000000E+01 0. -1.
        -11    1    6    6    0    0 -0.40917708135E+01  0.36108994923E+01  0.31683939222E+02  0.32150477261E+02  0.00000000000E+00 0.  1.
         12    1    6    6    0    0 -0.37725742469E+02 -0.64905255699E+01 -0.15790605793E+02  0.41408957947E+02  0.00000000000E+00 0. -1.
         -5    1    3    3    0  503 -0.71956619404E+02  0.95449297708E+02 -0.16068064646E+03  0.20032145081E+03  0.47000000000E+01 0.  1.
         13    1    4    4    0    0 -0.25940538627E+02  0.15909806087E+02 -0.55483103736E+02  0.63280394074E+02  0.00000000000E+00 0. -1.
        -14    1    4    4    0    0  0.46821761234E+02 -0.19212535151E+02 -0.55676034961E+02  0.75241077218E+02  0.00000000000E+00 0.  1.
</event>
<event>
12    1  0.8053217E-002  0.1926265E+03  0.7818608E-02  0.1156271E+00
         21   -1    0    0  503  502  0.00000000000E+00  0.00000000000E+00  0.81707486553E+03  0.81707486553E+03  0.00000000000E+00 0.  1.
         21   -1    0    0  501  503 -0.00000000000E+00 -0.00000000000E+00 -0.57010747725E+02  0.57010747725E+02  0.00000000000E+00 0.  1.
          6    2    1    2  501    0  0.78397264808E+02 -0.35839781797E+02  0.18092670400E+03  0.26375363147E+03  0.17146686212E+03 0.  0.
         24    2    3    3    0    0  0.10938162182E+03 -0.29816243833E+02  0.83669043991E+02  0.16139418726E+03  0.78703412696E+02 0.  0.
         -6    2    1    2    0  502 -0.78397264808E+02  0.35839781797E+02  0.57913741381E+03  0.61033198179E+03  0.17226248238E+03 0.  0.
        -24    2    5    5    0    0 -0.73221026125E+02  0.62008652408E+02  0.24882020512E+03  0.27890604498E+03  0.81674327727E+02 0.  0.
          5    1    3    3  501    0 -0.30984357010E+02 -0.60235379639E+01  0.97257660012E+02  0.10235944421E+03  0.47000000000E+01 0. -1.
        -13    1    4    4    0    0  0.74630389028E+02  0.21023270837E+01  0.86327786367E+02  0.11413413795E+03  0.00000000000E+00 0.  1.
         14    1    4    4    0    0  0.34751232790E+02 -0.31918570917E+02 -0.26587423765E+01  0.47260049310E+02  0.00000000000E+00 0. -1.
         -5    1    5    5    0  502 -0.51762386829E+01 -0.26168870611E+02  0.33031720869E+03  0.33142593681E+03  0.47000000000E+01 0.  1.
         11    1    6    6    0    0 -0.11342540175E+02 -0.17851967380E+02  0.21563207097E+02  0.30204599936E+02  0.00000000000E+00 0. -1.
        -12    1    6    6    0    0 -0.61878485950E+02  0.79860619788E+02  0.22725699802E+03  0.24870144504E+03  0.00000000000E+00 0.  1.
</event>
<event>
12    1  0.8053217E-002  0.1896806E+03  0.7818608E-02  0.1159076E+00
         21   -1    0    0  503  502  0.00000000000E+00  0.00000000000E+00  0.12736752729E+03  0.12736752729E+03  0.00000000000E+00 0.  1.
         21   -1    0    0  501  503 -0.00000000000E+00 -0.00000000000E+00 -0.39076411071E+03  0.39076411071E+03  0.00000000000E+00 0.  1.
          6    2    1    2  501    0  0.69487105148E+02 -0.27618060822E+02 -0.26977078263E+03  0.32978023770E+03  0.17432015074E+03 0.  0.
         24    2    3    3    0    0  0.79577154260E+01  0.31335558248E+02 -0.66481780770E+02  0.10930370090E+03  0.80512293543E+02 0.  0.
         -6    2    1    2    0  502 -0.69487105148E+02  0.27618060822E+02  0.63741992118E+01  0.18835140030E+03  0.17275533136E+03 0.  0.
        -24    2    5    5    0    0 -0.91155369884E+02  0.67172798289E+02  0.22462957894E+02  0.14023665091E+03  0.79625671063E+02 0.  0.
          5    1    3    3  501    0  0.61529389722E+02 -0.58953619069E+02 -0.20328900186E+03  0.22047653679E+03  0.47000000000E+01 0. -1.
        -13    1    4    4    0    0  0.58672884234E+01 -0.24166367032E+02 -0.41549352519E+02  0.48423001391E+02  0.00000000000E+00 0.  1.
         14    1    4    4    0    0  0.20904270026E+01  0.55501925279E+02 -0.24932428251E+02  0.60880699513E+02  0.00000000000E+00 0. -1.
         -5    1    5    5    0  502  0.21668264736E+02 -0.39554737467E+02 -0.16088758682E+02  0.48114749388E+02  0.47000000000E+01 0.  1.
         11    1    6    6    0    0 -0.54629103044E+02  0.98681602932E+01 -0.21243508224E+02  0.59439095961E+02  0.00000000000E+00 0. -1.
        -12    1    6    6    0    0 -0.36526266840E+02  0.57304637996E+02  0.43706466118E+02  0.80797554948E+02  0.00000000000E+00 0.  1.
</event>
<event>
12    1  0.8053217E-002  0.2200674E+03  0.7818608E-02  0.1134562E+00
         21   -1    0    0  503  502  0.00000000000E+00  0.00000000000E+00  0.27650271623E+03  0.27650271623E+03  0.00000000000E+00 0.  1.
         21   -1    0    0  501  503 -0.00000000000E+00 -0.00000000000E+00 -0.17863184503E+03  0.17863184503E+03  0.00000000000E+00 0.  1.
          6    2    1    2  501    0 -0.13546083198E+03 -0.17713171391E+02  0.49271065547E+01  0.21624500660E+03  0.16755367218E+03 0.  0.
         24    2    3    3    0    0 -0.10524402339E+03 -0.60608866433E+02 -0.36544970629E+02  0.14919935529E+03  0.78582272746E+02 0.  0.
         -6    2    1    2    0  502  0.13546083198E+03  0.17713171391E+02  0.92943764648E+02  0.23888955466E+03  0.17252907725E+03 0.  0.
        -24    2    5    5    0    0  0.95158312018E+02  0.60555777587E+01  0.13176579953E+03  0.18153597589E+03  0.80630702887E+02 0.  0.
          5    1    3    3  501    0 -0.30216808589E+02  0.42895695042E+02  0.41472077183E+02  0.67045651316E+02  0.47000000000E+01 0. -1.
        -11    1    4    4    0    0 -0.71934167187E+02 -0.91887204768E+01  0.86978368827E+01  0.73038410165E+02  0.00000000000E+00 0.  1.
         12    1    4    4    0    0 -0.33309856206E+02 -0.51420145956E+02 -0.45242807511E+02  0.76160945123E+02  0.00000000000E+00 0. -1.
         -5    1    5    5    0  502  0.40302519965E+02  0.11657593632E+02 -0.38822034885E+02  0.57353578768E+02  0.47000000000E+01 0.  1.
         11    1    6    6    0    0  0.23670862421E+02  0.35070835337E+02  0.22921179937E+02  0.48121239684E+02  0.00000000000E+00 0. -1.
        -12    1    6    6    0    0  0.71487449596E+02 -0.29015257578E+02  0.10884461960E+03  0.13341473621E+03  0.00000000000E+00 0.  1.
</event>
<event>
12    1  0.8053217E-002  0.1745500E+03  0.7818608E-02  0.1173580E+00
         21   -1    0    0  501  502  0.00000000000E+00  0.00000000000E+00  0.82084611023E+03  0.82084611023E+03  0.00000000000E+00 0.  1.
         21   -1    0    0  502  503 -0.00000000000E+00 -0.00000000000E+00 -0.43247299161E+02  0.43247299161E+02  0.00000000000E+00 0.  1.
         -6    2    1    2    0  503 -0.23747010567E+02 -0.15499448942E+02  0.22031759159E+03  0.28011562820E+03  0.17064808984E+03 0.  0.
        -24    2    3    3    0    0 -0.42259592080E+02 -0.68372694569E+02  0.16854615684E+03  0.20369137005E+03  0.81373636765E+02 0.  0.
          6    2    1    2  501    0  0.23747010567E+02  0.15499448942E+02  0.55728121948E+03  0.58397778120E+03  0.17223105969E+03 0.  0.
         24    2    5    5    0    0  0.21327540064E+02  0.77160963802E+02  0.35840789982E+03  0.37569748082E+03  0.79269768150E+02 0.  0.
          5    1    5    5  501    0  0.24194705035E+01 -0.61661514861E+02  0.19887331966E+03  0.20828030038E+03  0.47000000000E+01 0. -1.
        -11    1    6    6    0    0  0.16891341025E+02  0.37986595076E+02  0.31220264467E+03  0.31495839430E+03  0.00000000000E+00 0.  1.
         12    1    6    6    0    0  0.44361990387E+01  0.39174368726E+02  0.46205255153E+02  0.60739086516E+02  0.00000000000E+00 0. -1.
         -5    1    3    3    0  503  0.18512581513E+02  0.52873245628E+02  0.51771434753E+02  0.76424258150E+02  0.47000000000E+01 0.  1.
         13    1    4    4    0    0 -0.15610501359E+02  0.73025886647E+01  0.89208312591E+02  0.90857793223E+02  0.00000000000E+00 0. -1.
        -14    1    4    4    0    0 -0.26649090721E+02 -0.75675283234E+02  0.79337844250E+02  0.11283357682E+03  0.00000000000E+00 0.  1.
</event>
<event>
12    1  0.8053217E-002  0.2038317E+03  0.7818608E-02  0.1146701E+00
         21   -1    0    0  503  502  0.00000000000E+00  0.00000000000E+00  0.53544689428E+03  0.53544689428E+03  0.00000000000E+00 0. -1.
         21   -1    0    0  501  503 -0.00000000000E+00 -0.00000000000E+00 -0.94032614738E+02  0.94032614738E+02  0.00000000000E+00 0.  1.
          6    2    1    2  501    0  0.94076922227E+02 -0.51828785890E+02  0.88305479354E+02  0.22213782543E+03  0.17323586655E+03 0.  0.
         24    2    3    3    0    0  0.86768657713E+02 -0.96894795389E+02  0.88593742153E+02  0.17624088612E+03  0.79338499214E+02 0.  0.
         -6    2    1    2    0  502 -0.94076922227E+02  0.51828785890E+02  0.35310880018E+03  0.40734168358E+03  0.17235060799E+03 0.  0.
        -24    2    5    5    0    0 -0.13424579964E+02  0.32859741994E+02  0.29118587355E+03  0.30379863079E+03  0.79021599103E+02 0.  0.
          5    1    3    3  501    0  0.73082645140E+01  0.45066009499E+02 -0.28826279868E+00  0.45896939308E+02  0.47000000000E+01 0. -1.
        -13    1    4    4    0    0  0.68042881064E+02 -0.20111370884E+02  0.26528959612E+02  0.75750159078E+02  0.00000000000E+00 0.  1.
         14    1    4    4    0    0  0.18725776649E+02 -0.76783424506E+02  0.62064782541E+02  0.10049072704E+03  0.00000000000E+00 0. -1.
         -5    1    5    5    0  502 -0.80652342263E+02  0.18969043896E+02  0.61922926636E+02  0.10354305279E+03  0.47000000000E+01 0.  1.
         11    1    6    6    0    0 -0.19472225488E+02 -0.20533745591E+02  0.15177056607E+03  0.15438622671E+03  0.00000000000E+00 0. -1.
        -12    1    6    6    0    0  0.60476455243E+01  0.53393487585E+02  0.13941530748E+03  0.14941240408E+03  0.00000000000E+00 0.  1.
</event>
<event>
12    1  0.8053217E-002  0.1958733E+03  0.7818608E-02  0.1153643E+00
         21   -1    0    0  503  502  0.00000000000E+00  0.00000000000E+00  0.19107483848E+03  0.19107483848E+03  0.00000000000E+00 0. -1.
         21   -1    0    0  501  503 -0.00000000000E+00 -0.00000000000E+00 -0.20983152301E+03  0.20983152301E+03  0.00000000000E+00 0. -1.
          6    2    1    2  501    0 -0.91547318799E+02 -0.10531805222E+02 -0.54890154633E+02  0.20341893936E+03  0.17284242915E+03 0.  0.
         24    2    3    3    0    0 -0.98309590227E+02  0.39687458387E+02 -0.67732978190E+02  0.15093340927E+03  0.83386256750E+02 0.  0.
         -6    2    1    2    0  502  0.91547318799E+02  0.10531805222E+02  0.36133470108E+02  0.19748742213E+03  0.17089126290E+03 0.  0.
        -24    2    5    5    0    0  0.86089273606E+02 -0.34463537091E+02  0.70596433483E+02  0.14035462129E+03  0.78207831311E+02 0.  0.
          5    1    3    3  501    0  0.67622714279E+01 -0.50219263609E+02  0.12842823556E+02  0.52485530093E+02  0.47000000000E+01 0. -1.
        -13    1    4    4    0    0 -0.16666627146E+02 -0.24835217141E+02 -0.22689922032E+02  0.37541936987E+02  0.00000000000E+00 0.  1.
         14    1    4    4    0    0 -0.81642963080E+02  0.64522675529E+02 -0.45043056158E+02  0.11339147228E+03  0.00000000000E+00 0. -1.
         -5    1    5    5    0  502  0.54580451926E+01  0.44995342313E+02 -0.34462963375E+02  0.57132800839E+02  0.47000000000E+01 0.  1.
         13    1    6    6    0    0  0.87775035326E+02 -0.33619695476E+02  0.84458793322E+02  0.12636466484E+03  0.00000000000E+00 0. -1.
        -14    1    6    6    0    0 -0.16857617200E+01 -0.84384161507E+00 -0.13862359839E+02  0.13989956452E+02  0.00000000000E+00 0.  1.
</event>
<event>
12    1  0.8053217E-002  0.1977160E+03  0.7818608E-02  0.1151738E+00
         21   -1    0    0  503  502  0.00000000000E+00  0.00000000000E+00  0.39162252982E+03  0.39162252982E+03  0.00000000000E+00 0. -1.
         21   -1    0    0  501  503 -0.00000000000E+00 -0.00000000000E+00 -0.15130567782E+03  0.15130567782E+03  0.00000000000E+00 0. -1.
          6    2    1    2  501    0 -0.84203187200E+02 -0.49734157934E+02 -0.38458061469E+02  0.20115771931E+03  0.17152767225E+03 0.  0.
         24    2    3    3    0    0 -0.27205606312E+02  0.28378311653E+02 -0.52929431172E+02  0.10327108758E+03  0.79485339893E+02 0.  0.
         -6    2    1    2    0  502  0.84203187200E+02  0.49734157934E+02  0.27877491347E+03  0.34177048832E+03  0.17183698992E+03 0.  0.
        -24    2    5    5    0    0  0.65029468021E+02  0.43163576543E+02  0.29489928995E+03  0.31544769281E+03  0.80310208785E+02 0.  0.
          5    1    3    3  501    0 -0.56997580888E+02 -0.78112469587E+02  0.14471369702E+02  0.97886631738E+02  0.47000000000E+01 0. -1.
        -11    1    4    4    0    0 -0.23222378889E+02  0.30994259078E+02  0.10130091462E+02  0.40031759018E+02  0.00000000000E+00 0.  1.
         12    1    4    4    0    0 -0.39832274227E+01 -0.26159474250E+01 -0.63059522634E+02  0.63239328558E+02  0.00000000000E+00 0. -1.
         -5    1    5    5    0  502  0.19173719179E+02  0.65705813906E+01 -0.16124376473E+02  0.26322795513E+02  0.47000000000E+01 0.  1.
         13    1    6    6    0    0  0.69669501405E+02  0.69660971399E+01  0.14293279077E+03  0.15916076342E+03  0.00000000000E+00 0. -1.
        -14    1    6    6    0    0 -0.46400333841E+01  0.36197479403E+02  0.15196649918E+03  0.15628692939E+03  0.00000000000E+00 0.  1.
</event>
<event>
12    1  0.8053217E-002  0.2178672E+03  0.7818608E-02  0.1135802E+00
         21   -1    0    0  503  502  0.00000000000E+00  0.00000000000E+00  0.22025934947E+03  0.22025934947E+03  0.00000000000E+00 0.  1.
         21   -1    0    0  501  503 -0.00000000000E+00 -0.00000000000E+00 -0.48350803326E+03  0.48350803326E+03  0.00000000000E+00 0.  1.
          6    2    1    2  501    0 -0.44396336398E+01 -0.13029666242E+03 -0.39464004293E+03  0.45078473070E+03  0.17455423044E+03 0.  0.
         24    2    3    3    0    0  0.18873838268E+02  0.35411811103E+01 -0.12928938327E+03  0.15264189762E+03  0.78835541155E+02 0.  0.
         -6    2    1    2    0  502  0.44396336398E+01  0.13029666242E+03  0.13139135914E+03  0.25298265203E+03  0.17245173929E+03 0.  0.
        -24    2    5    5    0    0  0.52300194598E+02  0.87017000215E+02  0.13633524255E+03  0.18809587033E+03  0.80532536236E+02 0.  0.
          5    1    3    3  501    0 -0.23313471908E+02 -0.13383784353E+03 -0.26535065967E+03  0.29814283308E+03  0.47000000000E+01 0. -1.
        -13    1    4    4    0    0 -0.69362932324E+00 -0.30722488798E+02 -0.96702272561E+02  0.10146763995E+03  0.00000000000E+00 0.  1.
         14    1    4    4    0    0  0.19567467591E+02  0.34263669908E+02 -0.32587110706E+02  0.51174257666E+02  0.00000000000E+00 0. -1.
         -5    1    5    5    0  502 -0.47860560959E+02  0.43279662202E+02 -0.49438834082E+01  0.64886781695E+02  0.47000000000E+01 0.  1.
         11    1    6    6    0    0  0.42789864457E+02  0.39597593353E+02  0.12572110519E+03  0.13858116102E+03  0.00000000000E+00 0. -1.
        -12    1    6    6    0    0  0.95103301409E+01  0.47419406861E+02  0.10614137366E+02  0.49514709314E+02  0.00000000000E+00 0.  1.
</event>
<event>
12    1  0.8053217E-002  0.1861734E+03  0.7818608E-02  0.1162069E+00
         21   -1    0    0  503  502  0.00000000000E+00  0.00000000000E+00  0.25357528435E+04  0.25357528435E+04  0.00000000000E+00 0. -1.
         21   -1    0    0  501  503 -0.00000000000E+00 -0.00000000000E+00 -0.27647389389E+02  0.27647389389E+02  0.00000000000E+00 0. -1.
          6    2    1    2  501    0  0.41550184105E+02 -0.56436198870E+02  0.34234130431E+03  0.38968974754E+03  0.17247918240E+03 0.  0.
         24    2    3    3    0    0  0.82887095394E+02 -0.26956378375E+02  0.31529070345E+03  0.33196951662E+03  0.56556302590E+02 0.  0.
         -6    2    1    2    0  502 -0.41550184105E+02  0.56436198870E+02  0.21657641498E+04  0.21737104853E+04  0.17196354030E+03 0.  0.
        -24    2    5    5    0    0 -0.40264129020E+02  0.87132372369E+02  0.10483658142E+04  0.10558799797E+04  0.81230540387E+02 0.  0.
          5    1    3    3  501    0 -0.41336911289E+02 -0.29479820495E+02  0.27050600856E+02  0.57720230925E+02  0.47000000000E+01 0. -1.
        -13    1    4    4    0    0  0.67509119707E+02  0.55171011378E+01  0.21645089112E+03  0.22680147248E+03  0.00000000000E+00 0.  1.
         14    1    4    4    0    0  0.15377975687E+02 -0.32473479512E+02  0.98839812327E+02  0.10516804414E+03  0.00000000000E+00 0. -1.
         -5    1    5    5    0  502 -0.12860550849E+01 -0.30696173499E+02  0.11173983356E+04  0.11178305056E+04  0.47000000000E+01 0.  1.
         13    1    6    6    0    0  0.18393791988E+01  0.11245466002E+01  0.44150823967E+03  0.44151350333E+03  0.00000000000E+00 0. -1.
        -14    1    6    6    0    0 -0.42103508219E+02  0.86007825769E+02  0.60685757456E+03  0.61436647638E+03  0.00000000000E+00 0.  1.
</event>
<event>
12    1  0.8053217E-002  0.2098276E+03  0.7818608E-02  0.1141844E+00
         21   -1    0    0  503  502  0.00000000000E+00  0.00000000000E+00  0.27693696340E+02  0.27693696340E+02  0.00000000000E+00 0. -1.
         21   -1    0    0  501  503 -0.00000000000E+00 -0.00000000000E+00 -0.16070259482E+04  0.16070259482E+04  0.00000000000E+00 0. -1.
          6    2    1    2  501    0 -0.45221353704E+02  0.10804328671E+03 -0.69139144793E+03  0.72232363831E+03  0.17323677888E+03 0.  0.
         24    2    3    3    0    0 -0.30270245291E+02 -0.12317193159E+02 -0.30179390666E+03  0.31425683628E+03  0.81300652227E+02 0.  0.
         -6    2    1    2    0  502  0.45221353704E+02 -0.10804328671E+03 -0.88794080388E+03  0.91239600618E+03  0.17409560094E+03 0.  0.
        -24    2    5    5    0    0 -0.26206948820E+02 -0.16157099568E+02 -0.49762536039E+03  0.50507143141E+03  0.80735961537E+02 0.  0.
          5    1    3    3  501    0 -0.14951108413E+02  0.12036047987E+03 -0.38959754127E+03  0.40806680203E+03  0.47000000000E+01 0. -1.
        -11    1    4    4    0    0  0.19554273994E+02  0.18248043012E+02 -0.63588574927E+02  0.68984545852E+02  0.00000000000E+00 0.  1.
         12    1    4    4    0    0 -0.49824519285E+02 -0.30565236171E+02 -0.23820533174E+03  0.24527229043E+03  0.00000000000E+00 0. -1.
         -5    1    5    5    0  502  0.71428302524E+02 -0.91886187144E+02 -0.39031544349E+03  0.40732457477E+03  0.47000000000E+01 0.  1.
         13    1    6    6    0    0  0.29020633624E+02 -0.66296169729E+00 -0.16226842393E+03  0.16484440573E+03  0.00000000000E+00 0. -1.
        -14    1    6    6    0    0 -0.55227582445E+02 -0.15494137870E+02 -0.33535693646E+03  0.34022702568E+03  0.00000000000E+00 0.  1.
</event>
<event>
12    1  0.8053217E-002  0.1858395E+03  0.7818608E-02  0.1162337E+00
         21   -1    0    0  503  502  0.00000000000E+00  0.00000000000E+00  0.16613612224E+03  0.16613612224E+03  0.00000000000E+00 0. -1.
         21   -1    0    0  501  503 -0.00000000000E+00 -0.00000000000E+00 -0.20847789971E+03  0.20847789971E+03  0.00000000000E+00 0. -1.
          6    2    1    2  501    0 -0.53686955279E+02  0.44563725688E+02 -0.33691582980E+02  0.18886883133E+03  0.17224429707E+03 0.  0.
         24    2    3    3    0    0 -0.54465287986E+01  0.88298133216E+02 -0.14150963271E+02  0.12072367034E+03  0.80918043801E+02 0.  0.
         -6    2    1    2    0  502  0.53686955279E+02 -0.44563725688E+02 -0.86501944923E+01  0.18574519061E+03  0.17192508588E+03 0.  0.
        -24    2    5    5    0    0  0.95069978118E+02 -0.61359566467E+02 -0.19819175591E+02  0.13946894416E+03  0.79091652705E+02 0.  0.
          5    1    3    3  501    0 -0.48240426480E+02 -0.43734407528E+02 -0.19540619709E+02  0.68145160998E+02  0.47000000000E+01 0. -1.
        -11    1    4    4    0    0 -0.39800333103E+02  0.54133677956E+02  0.75935968234E+01  0.67617928960E+02  0.00000000000E+00 0.  1.
         12    1    4    4    0    0  0.34353804304E+02  0.34164455260E+02 -0.21744560095E+02  0.53105741376E+02  0.00000000000E+00 0. -1.
         -5    1    5    5    0  502 -0.41383022839E+02  0.16795840779E+02  0.11168981099E+02  0.46276246451E+02  0.47000000000E+01 0.  1.
         13    1    6    6    0    0  0.52799128788E+02 -0.74641083925E+02 -0.12752997130E+01  0.91436676447E+02  0.00000000000E+00 0. -1.
        -14    1    6    6    0    0  0.42270849331E+02  0.13281517458E+02 -0.18543875878E+02  0.48032267713E+02  0.00000000000E+00 0.  1.
</event>
<event>
12    1  0.8053217E-002  0.1933557E+03  0.7818608E-02  0.1155480E+00
         21   -1    0    0  501  502  0.00000000000E+00  0.00000000000E+00  0.40293647995E+03  0.40293647995E+03  0.00000000000E+00 0.  1.
         21   -1    0    0  502  503 -0.00000000000E+00 -0.00000000000E+00 -0.98723009892E+02  0.98723009892E+02  0.00000000000E+00 0.  1.
         -6    2    1    2    0  503 -0.81377335459E+02  0.32781627034E+02  0.90485657080E+02  0.21348086307E+03  0.17230646814E+03 0.  0.
        -24    2    3    3    0    0 -0.38314373489E+02 -0.49625282807E+02  0.57485579284E+02  0.11470630857E+03  0.76956386936E+02 0.  0.
          6    2    1    2  501    0  0.81377335459E+02 -0.32781627034E+02  0.21372781298E+03  0.28817862677E+03  0.17225108734E+03 0.  0.
         24    2    5    5    0    0  0.90646148931E+02 -0.69282200481E+02  0.20758164586E+03  0.24973297506E+03  0.79118085878E+02 0.  0.
          5    1    5    5  501    0 -0.92688134718E+01  0.36500573447E+02  0.61461671137E+01  0.38445651709E+02  0.47000000000E+01 0. -1.
        -11    1    6    6    0    0  0.25244185058E+00 -0.81424047764E+01  0.85894952348E+02  0.86280387814E+02  0.00000000000E+00 0.  1.
         12    1    6    6    0    0  0.90393707080E+02 -0.61139795705E+02  0.12168669352E+03  0.16345258725E+03  0.00000000000E+00 0. -1.
         -5    1    3    3    0  503 -0.43062961970E+02  0.82406909841E+02  0.33000077796E+02  0.98774554505E+02  0.47000000000E+01 0.  1.
         11    1    4    4    0    0 -0.23709261146E+01  0.17012498182E+02  0.29208381256E+02  0.33884744659E+02  0.00000000000E+00 0. -1.
        -12    1    4    4    0    0 -0.35943447374E+02 -0.66637780989E+02  0.28277198028E+02  0.80821563909E+02  0.00000000000E+00 0.  1.
</event>
<event>
12    1  0.8053217E-002  0.2634725E+03  0.7818608E-02  0.1105114E+00
         21   -1    0    0  501  502  0.00000000000E+00  0.00000000000E+00  0.15614813365E+04  0.15614813365E+04  0.00000000000E+00 0.  1.
         21   -1    0    0  502  503 -0.00000000000E+00 -0.00000000000E+00 -0.85569742510E+02  0.85569742510E+02  0.00000000000E+00 0. -1.
         -6    2    1    2    0  503 -0.93573499231E+02 -0.17663093496E+03  0.16700406317E+03  0.31194252817E+03  0.17164876004E+03 0.  0.
        -24    2    3    3    0    0 -0.91095186166E+02 -0.14184957160E+03  0.54851785529E+02  0.19440058394E+03  0.79769886270E+02 0.  0.
          6    2    1    2  501    0  0.93573499231E+02  0.17663093496E+03  0.13089075308E+04  0.13351085508E+04  0.17123501785E+03 0.  0.
         24    2    5    5    0    0  0.10534532172E+02  0.13793435078E+03  0.10027544659E+04  0.10155077297E+04  0.81256192476E+02 0.  0.
          5    1    5    5  501    0  0.83038967059E+02  0.38696584185E+02  0.30615306494E+03  0.31960082110E+03  0.47000000000E+01 0. -1.
        -11    1    6    6    0    0  0.30764396164E+02  0.23221338529E+02  0.15176554767E+03  0.15658371593E+03  0.00000000000E+00 0.  1.
         12    1    6    6    0    0 -0.20229863992E+02  0.11471301225E+03  0.85098891821E+03  0.85892401381E+03  0.00000000000E+00 0. -1.
         -5    1    3    3    0  503 -0.24783130649E+01 -0.34781363359E+02  0.11215227764E+03  0.11754194422E+03  0.47000000000E+01 0.  1.
         11    1    4    4    0    0 -0.75308063415E+01 -0.61708833374E+02  0.47772227724E+02  0.78402033789E+02  0.00000000000E+00 0. -1.
        -12    1    4    4    0    0 -0.83564379825E+02 -0.80140738229E+02  0.70795578050E+01  0.11599855016E+03  0.00000000000E+00 0.  1.
</event>
<event>
12    1  0.8053217E-002  0.1901789E+03  0.7818608E-02  0.1158474E+00
         21   -1    0    0  503  502  0.00000000000E+00  0.00000000000E+00  0.10794908471E+03  0.10794908471E+03  0.00000000000E+00 0.  1.
         21   -1    0    0  501  503 -0.00000000000E+00 -0.00000000000E+00 -0.37266387793E+03  0.37266387793E+03  0.00000000000E+00 0. -1.
          6    2    1    2  501    0  0.67087505293E+02 -0.42095117948E+02 -0.21031099691E+03  0.28354670835E+03  0.17290253923E+03 0.  0.
         24    2    3    3    0    0  0.77156604329E+02 -0.81548971705E+02 -0.11032717598E+03  0.17548724426E+03  0.77590661549E+02 0.  0.
         -6    2    1    2    0  502 -0.67087505293E+02  0.42095117948E+02 -0.54403796312E+02  0.19706625429E+03  0.17205407059E+03 0.  0.
        -24    2    5    5    0    0  0.94889986111E+01  0.19512954145E+02 -0.77648369242E+02  0.11378171045E+03  0.80288304954E+02 0.  0.
          5    1    3    3  501    0 -0.10069099035E+02  0.39453853757E+02 -0.99983820934E+02  0.10805946409E+03  0.47000000000E+01 0. -1.
        -11    1    4    4    0    0  0.46003126773E+01  0.45585229465E+01  0.92155813451E+01  0.11263656054E+02  0.00000000000E+00 0.  1.
         12    1    4    4    0    0  0.72556291651E+02 -0.86107494652E+02 -0.11954275732E+03  0.16422358820E+03  0.00000000000E+00 0. -1.
         -5    1    5    5    0  502 -0.76576503904E+02  0.22582163802E+02  0.23244572931E+02  0.83284543842E+02  0.47000000000E+01 0.  1.
         13    1    6    6    0    0 -0.23391863291E+02  0.52462265135E+01 -0.73961939783E+02  0.77750052716E+02  0.00000000000E+00 0. -1.
        -14    1    6    6    0    0  0.32880861902E+02  0.14266727632E+02 -0.36864294590E+01  0.36031657732E+02  0.00000000000E+00 0.  1.
</event>
<event>
12    1  0.8053217E-002  0.1927702E+03  0.7818608E-02  0.1158032E+00
         21   -1    0    0  501  502  0.00000000000E+00  0.00000000000E+00  0.13984918040E+04  0.13984918040E+04  0.00000000000E+00 0. -1.
         21   -1    0    0  502  503 -0.00000000000E+00 -0.00000000000E+00 -0.26449035559E+02  0.26449035559E+02  0.00000000000E+00 0.  1.
         -6    2    1    2    0  503 -0.15491007572E+02 -0.85997855689E+02  0.84732034702E+03  0.86897187560E+03  0.17182766837E+03 0.  0.
        -24    2    3    3    0    0 -0.49197177295E+02 -0.11305163706E+03  0.70248264646E+03  0.71774997750E+03  0.80511655817E+02 0.  0.
          6    2    1    2  501    0  0.15491007572E+02  0.85997855689E+02  0.52472242147E+03  0.55596896400E+03  0.16165477674E+03 0.  0.
         24    2    5    5    0    0 -0.18233472575E+02  0.88461227321E+02  0.49848231492E+03  0.51291037656E+03  0.80215882672E+02 0.  0.
          5    1    5    5  501    0  0.33724480147E+02 -0.24633716320E+01  0.26240106549E+02  0.43058587444E+02  0.47000000000E+01 0. -1.
        -11    1    6    6    0    0 -0.16873930343E+02  0.10375304250E+03  0.42124966241E+03  0.43416667471E+03  0.00000000000E+00 0.  1.
         12    1    6    6    0    0 -0.13595422319E+01 -0.15291815175E+02  0.77232652512E+02  0.78743701847E+02  0.00000000000E+00 0. -1.
         -5    1    3    3    0  503  0.33706169722E+02  0.27053781367E+02  0.14483770055E+03  0.15122189810E+03  0.47000000000E+01 0.  1.
         11    1    4    4    0    0 -0.21911635166E+01  0.95528010865E+01  0.13145957730E+03  0.13182441986E+03  0.00000000000E+00 0. -1.
        -12    1    4    4    0    0 -0.47006013778E+02 -0.12260443814E+03  0.57102306916E+03  0.58592555764E+03  0.00000000000E+00 0.  1.
</event>
<event>
12    1  0.8053217E-002  0.2449948E+03  0.7818608E-02  0.1116665E+00
         21   -1    0    0  503  502  0.00000000000E+00  0.00000000000E+00  0.56918774124E+03  0.56918774124E+03  0.00000000000E+00 0.  1.
         21   -1    0    0  501  503 -0.00000000000E+00 -0.00000000000E+00 -0.11298254136E+03  0.11298254136E+03  0.00000000000E+00 0.  1.
          6    2    1    2  501    0  0.73591919394E+02  0.15207591844E+03  0.31811846789E+03  0.40094014955E+03  0.17609880277E+03 0.  0.
         24    2    3    3    0    0  0.10837777060E+03  0.66587169673E+02  0.21580915806E+03  0.26307185556E+03  0.80334402084E+02 0.  0.
         -6    2    1    2    0  502 -0.73591919394E+02 -0.15207591844E+03  0.13808673199E+03  0.28123013305E+03  0.17742487597E+03 0.  0.
        -24    2    5    5    0    0 -0.10186668761E+03 -0.15633718235E+03  0.83102806569E+02  0.21907755513E+03  0.79188143515E+02 0.  0.
          5    1    3    3  501    0 -0.34785851206E+02  0.85488748764E+02  0.10230930983E+03  0.13786829399E+03  0.47000000000E+01 0. -1.
        -13    1    4    4    0    0  0.29700899063E+02  0.42654588889E+02  0.30328025940E+02  0.60177624711E+02  0.00000000000E+00 0.  1.
         14    1    4    4    0    0  0.78676871537E+02  0.23932580784E+02  0.18548113212E+03  0.20289423085E+03  0.00000000000E+00 0. -1.
         -5    1    5    5    0  502  0.28274768211E+02  0.42612639116E+01  0.54983925418E+02  0.62152577918E+02  0.47000000000E+01 0.  1.
         13    1    6    6    0    0 -0.35442581106E+02 -0.44373429777E+02 -0.11761724337E+02  0.57995827307E+02  0.00000000000E+00 0. -1.
        -14    1    6    6    0    0 -0.66424106500E+02 -0.11196375257E+03  0.94864530906E+02  0.16108172782E+03  0.00000000000E+00 0.  1.
</event>
<event>
12    1  0.8053217E-002  0.2805349E+03  0.7818608E-02  0.1095422E+00
         21   -1    0    0  503  502  0.00000000000E+00  0.00000000000E+00  0.29199314542E+03  0.29199314542E+03  0.00000000000E+00 0.  1.
         21   -1    0    0  501  503 -0.00000000000E+00 -0.00000000000E+00 -0.27342412646E+03  0.27342412646E+03  0.00000000000E+00 0. -1.
          6    2    1    2  501    0  0.21198999772E+03 -0.64830738337E+02  0.43796121354E+02  0.28393292097E+03  0.17192155070E+03 0.  0.
         24    2    3    3    0    0  0.12735868931E+03 -0.97908291539E+02 -0.71861184068E+01  0.17963593319E+03  0.80069712745E+02 0.  0.
         -6    2    1    2    0  502 -0.21198999772E+03  0.64830738337E+02 -0.25227102394E+02  0.28148435091E+03  0.17162240338E+03 0.  0.
        -24    2    5    5    0    0 -0.23566132752E+03  0.63461172892E+02 -0.20717618885E+02  0.25689506451E+03  0.77474335623E+02 0.  0.
          5    1    3    3  501    0  0.84631308409E+02  0.33077553202E+02  0.50982239761E+02  0.10429698778E+03  0.47000000000E+01 0. -1.
        -11    1    4    4    0    0  0.70594959926E+02 -0.23165273470E+02  0.28004556630E+02  0.79401092272E+02  0.00000000000E+00 0.  1.
         12    1    4    4    0    0  0.56763729386E+02 -0.74743018069E+02 -0.35190675037E+02  0.10023484092E+03  0.00000000000E+00 0. -1.
         -5    1    5    5    0  502  0.23671329803E+02  0.13695654451E+01 -0.45094835082E+01  0.24589286400E+02  0.47000000000E+01 0.  1.
         11    1    6    6    0    0 -0.52268796231E+02 -0.16507650656E+02 -0.14632145299E+02  0.56732964541E+02  0.00000000000E+00 0. -1.
        -12    1    6    6    0    0 -0.18339253129E+03  0.79968823547E+02 -0.60854735866E+01  0.20016209996E+03  0.00000000000E+00 0.  1.
</event>
<event>
12    1  0.8053217E-002  0.2171838E+03  0.7818608E-02  0.1136172E+00
         21   -1    0    0  501  502  0.00000000000E+00  0.00000000000E+00  0.27227273943E+02  0.27227273943E+02  0.00000000000E+00 0.  1.
         21   -1    0    0  502  503 -0.00000000000E+00 -0.00000000000E+00 -0.17397463860E+04  0.17397463860E+04  0.00000000000E+00 0.  1.
         -6    2    1    2    0  503  0.29847756122E+02 -0.12837110458E+03 -0.77371783391E+03  0.80337796666E+03  0.17148423184E+03 0.  0.
        -24    2    3    3    0    0  0.22659324967E+02  0.15416614272E+01 -0.23736543348E+03  0.25144954036E+03  0.79804139036E+02 0.  0.
          6    2    1    2  501    0 -0.29847756122E+02  0.12837110458E+03 -0.93880127817E+03  0.96359569331E+03  0.17262326386E+03 0.  0.
         24    2    5    5    0    0  0.21388163897E+02  0.10752202051E+03 -0.41543027330E+03  0.43728865122E+03  0.81367155937E+02 0.  0.
          5    1    5    5  501    0 -0.51235920019E+02  0.20849084071E+02 -0.52337100488E+03  0.52630704209E+03  0.47000000000E+01 0. -1.
        -11    1    6    6    0    0 -0.27068909220E+02  0.64167297348E+02 -0.25060753960E+03  0.26010441519E+03  0.00000000000E+00 0.  1.
         12    1    6    6    0    0  0.48457073117E+02  0.43354723157E+02 -0.16482273369E+03  0.17718423603E+03  0.00000000000E+00 0. -1.
         -5    1    3    3    0  503  0.71884311557E+01 -0.12991276600E+03 -0.53635240044E+03  0.55192842631E+03  0.47000000000E+01 0.  1.
         13    1    4    4    0    0 -0.10669061729E+02  0.18219209284E+02 -0.19005100859E+03  0.19122017240E+03  0.00000000000E+00 0. -1.
        -14    1    4    4    0    0  0.33328386696E+02 -0.16677547857E+02 -0.47314424883E+02  0.60229367955E+02  0.00000000000E+00 0.  1.
</event>
<event>
12    1  0.8053217E-002  0.1893491E+03  0.7818608E-02  0.1159093E+00
         21   -1    0    0  503  502  0.00000000000E+00  0.00000000000E+00  0.29005483341E+03  0.29005483341E+03  0.00000000000E+00 0. -1.
         21   -1    0    0  501  503 -0.00000000000E+00 -0.00000000000E+00 -0.20369823006E+03  0.20369823006E+03  0.00000000000E+00 0. -1.
          6    2    1    2  501    0  0.46386704009E+02  0.62790466761E+02 -0.11175658351E+03  0.21970580799E+03  0.17229840127E+03 0.  0.
         24    2    3    3    0    0 -0.27792275463E+02 -0.20502532845E+01 -0.23827058772E+02  0.87567504336E+02  0.79521852166E+02 0.  0.
         -6    2    1    2    0  502 -0.46386704009E+02 -0.62790466761E+02  0.19811318687E+03  0.27404725548E+03  0.17250708508E+03 0.  0.
        -24    2    5    5    0    0 -0.97179226194E+02 -0.36459972099E+02  0.14685982893E+03  0.19709160619E+03  0.80648374481E+02 0.  0.
          5    1    3    3  501    0  0.74178979473E+02  0.64840720046E+02 -0.87929524741E+02  0.13213830366E+03  0.47000000000E+01 0. -1.
        -13    1    4    4    0    0 -0.50000860028E+02  0.18458595247E+02 -0.20695187304E+02  0.57176013498E+02  0.00000000000E+00 0.  1.
         14    1    4    4    0    0  0.22208584565E+02 -0.20508848531E+02 -0.31318714685E+01  0.30391490838E+02  0.00000000000E+00 0. -1.
         -5    1    5    5    0  502  0.50792522184E+02 -0.26330494663E+02  0.51253357932E+02  0.76955649294E+02  0.47000000000E+01 0.  1.
         13    1    6    6    0    0 -0.22802656030E+02  0.21223302551E+02  0.66089471810E+02  0.73063041117E+02  0.00000000000E+00 0. -1.
        -14    1    6    6    0    0 -0.74376570164E+02 -0.57683274650E+02  0.80770357125E+02  0.12402856507E+03  0.00000000000E+00 0.  1.
</event>
<event>
12    1  0.8053217E-002  0.1796829E+03  0.7818608E-02  0.1168352E+00
         21   -1    0    0  501  502  0.00000000000E+00  0.00000000000E+00  0.62891373422E+02  0.62891373422E+02  0.00000000000E+00 0. -1.
         21   -1    0    0  502  503 -0.00000000000E+00 -0.00000000000E+00 -0.70854061134E+03  0.70854061134E+03  0.00000000000E+00 0. -1.
         -6    2    1    2    0  503 -0.49147356556E+02  0.28820571275E+02 -0.52737967888E+03  0.55714923017E+03  0.17041083003E+03 0.  0.
        -24    2    3    3    0    0  0.96178766917E+01 -0.66636485481E+01 -0.12557210819E+03  0.14949263896E+03  0.80266973169E+02 0.  0.
          6    2    1    2  501    0  0.49147356556E+02 -0.28820571275E+02 -0.11826955904E+03  0.21428275460E+03  0.16936151374E+03 0.  0.
         24    2    5    5    0    0  0.53956048957E+02  0.75837509242E+01 -0.67867314781E+01  0.96813996886E+02  0.79737831496E+02 0.  0.
          5    1    5    5  501    0 -0.48086924012E+01 -0.36404322200E+02 -0.11148282756E+03  0.11746875771E+03  0.47000000000E+01 0. -1.
        -11    1    6    6    0    0 -0.14369244101E+02  0.80842830478E+01 -0.21327038835E+02  0.26956880270E+02  0.00000000000E+00 0.  1.
         12    1    6    6    0    0  0.68325293058E+02 -0.50053212367E+00  0.14540307357E+02  0.69857116616E+02  0.00000000000E+00 0. -1.
         -5    1    3    3    0  503 -0.58765233247E+02  0.35484219824E+02 -0.40180757069E+03  0.40765659121E+03  0.47000000000E+01 0.  1.
         13    1    4    4    0    0 -0.28601664775E+02  0.10859211475E+02 -0.87782155949E+02  0.92960661599E+02  0.00000000000E+00 0. -1.
        -14    1    4    4    0    0  0.38219541466E+02 -0.17522860023E+02 -0.37789952245E+02  0.56531977358E+02  0.00000000000E+00 0.  1.
</event>
<event>
12    1  0.8053217E-002  0.1828595E+03  0.7818608E-02  0.1165613E+00
         21   -1    0    0  501  502  0.00000000000E+00  0.00000000000E+00  0.12031097520E+03  0.12031097520E+03  0.00000000000E+00 0. -1.
         21   -1    0    0  502  503 -0.00000000000E+00 -0.00000000000E+00 -0.37669906410E+03  0.37669906410E+03  0.00000000000E+00 0. -1.
         -6    2    1    2    0  503  0.34478837039E+02  0.43578572651E+02 -0.25825749543E+03  0.31644040361E+03  0.17421168989E+03 0.  0.
        -24    2    3    3    0    0  0.21540744520E+02  0.72495819955E+02 -0.82486531795E+02  0.13777556911E+03  0.80364369781E+02 0.  0.
          6    2    1    2  501    0 -0.34478837039E+02 -0.43578572651E+02  0.18694065335E+01  0.18056963568E+03  0.17179643900E+03 0.  0.
         24    2    5    5    0    0 -0.77190415618E+02 -0.34407337145E+02  0.39373031319E+02  0.12280284265E+03  0.79925449358E+02 0.  0.
          5    1    5    5  501    0  0.42711578579E+02 -0.91712355053E+01 -0.37503624785E+02  0.57766793034E+02  0.47000000000E+01 0. -1.
        -13    1    6    6    0    0  0.11325816172E+02  0.11643500582E+02  0.25295066552E+01  0.16439088225E+02  0.00000000000E+00 0.  1.
         14    1    6    6    0    0 -0.88516231790E+02 -0.46050837727E+02  0.36843524664E+02  0.10636375442E+03  0.00000000000E+00 0. -1.
         -5    1    3    3    0  503  0.12938092519E+02 -0.28917247304E+02 -0.17577096364E+03  0.17866483450E+03  0.47000000000E+01 0.  1.
         11    1    4    4    0    0 -0.24679096170E+02  0.42840020702E+01 -0.69487010968E+01  0.25994132192E+02  0.00000000000E+00 0. -1.
        -12    1    4    4    0    0  0.46219840690E+02  0.68211817885E+02 -0.75537830698E+02  0.11178143692E+03  0.00000000000E+00 0.  1.
</event>
<event>
12    1  0.8053217E-002  0.1793001E+03  0.7818608E-02  0.1168504E+00
         21   -1    0    0  503  502  0.00000000000E+00  0.00000000000E+00  0.26457135117E+03  0.26457135117E+03  0.00000000000E+00 0. -1.
         21   -1    0    0  501  503 -0.00000000000E+00 -0.00000000000E+00 -0.26543784668E+03  0.26543784668E+03  0.00000000000E+00 0. -1.
          6    2    1    2  501    0  0.17712000172E+02 -0.47569065031E+02 -0.19561213963E+03  0.26535381002E+03  0.17196512560E+03 0.  0.
         24    2    3    3    0    0  0.40670511691E+02  0.30786279318E+02 -0.78241998158E+02  0.12229964773E+03  0.78952568312E+02 0.  0.
         -6    2    1    2    0  502 -0.17712000172E+02  0.47569065031E+02  0.19474564412E+03  0.26465538783E+03  0.17187227091E+03 0.  0.
        -24    2    5    5    0    0 -0.14822807075E+02  0.72814567656E+02  0.56649792707E+02  0.12416255165E+03  0.81764682760E+02 0.  0.
          5    1    3    3  501    0 -0.22958511519E+02 -0.78355344349E+02 -0.11737014147E+03  0.14305416229E+03  0.47000000000E+01 0. -1.
        -13    1    4    4    0    0  0.26514303789E+02 -0.21439015222E+02 -0.10660426599E+02  0.35725122454E+02  0.00000000000E+00 0.  1.
         14    1    4    4    0    0  0.14156207902E+02  0.52225294539E+02 -0.67581571560E+02  0.86574525274E+02  0.00000000000E+00 0. -1.
         -5    1    5    5    0  502 -0.28891930965E+01 -0.25245502624E+02  0.13809585142E+03  0.14049283618E+03  0.47000000000E+01 0.  1.
         13    1    6    6    0    0 -0.51169871031E+01  0.37963262331E+02  0.74537200308E+02  0.83804457361E+02  0.00000000000E+00 0. -1.
        -14    1    6    6    0    0 -0.97058199721E+01  0.34851305325E+02 -0.17887407601E+02  0.40358094292E+02  0.00000000000E+00 0.  1.
</event>
<event>
12    1  0.8053217E-002  0.1931489E+03  0.7818608E-02  0.1155746E+00
         21   -1    0    0  503  502  0.00000000000E+00  0.00000000000E+00  0.86166251060E+02  0.86166251060E+02  0.00000000000E+00 0.  1.
         21   -1    0    0  501  503 -0.00000000000E+00 -0.00000000000E+00 -0.45110482470E+03  0.45110482470E+03  0.00000000000E+00 0.  1.
          6    2    1    2  501    0  0.66028192999E+02  0.57703099167E+02 -0.12700002864E+03  0.23080535519E+03  0.17161799085E+03 0.  0.
         24    2    3    3    0    0  0.65572299032E+01  0.84378372946E+02 -0.11378979900E+03  0.16413477809E+03  0.82640183553E+02 0.  0.
         -6    2    1    2    0  502 -0.66028192999E+02 -0.57703099167E+02 -0.23793854500E+03  0.30646572057E+03  0.17209624275E+03 0.  0.
        -24    2    5    5    0    0 -0.59083043007E+02 -0.10375308217E+03 -0.15680140766E+03  0.21279522843E+03  0.80247241508E+02 0.  0.
          5    1    3    3  501    0  0.59470963096E+02 -0.26675273778E+02 -0.13210229638E+02  0.66670577092E+02  0.47000000000E+01 0. -1.
        -13    1    4    4    0    0 -0.17858004480E+02 -0.35604067888E+01  0.73362633469E-01  0.18209618408E+02  0.00000000000E+00 0.  1.
         14    1    4    4    0    0  0.24415234383E+02  0.87938779734E+02 -0.11386316164E+03  0.14592515969E+03  0.00000000000E+00 0. -1.
         -5    1    5    5    0  502 -0.69451499927E+01  0.46049982999E+02 -0.81137137340E+02  0.93670492143E+02  0.47000000000E+01 0.  1.
         13    1    6    6    0    0 -0.61262811316E+02 -0.36976717458E+02 -0.51793677409E+02  0.88334561208E+02  0.00000000000E+00 0. -1.
        -14    1    6    6    0    0  0.21797683096E+01 -0.66776364708E+02 -0.10500773025E+03  0.12446066722E+03  0.00000000000E+00 0.  1.
</event>
<event>
12    1  0.8053217E-002  0.3404335E+03  0.7818608E-02  0.1067489E+00
         21   -1    0    0  501  502  0.00000000000E+00  0.00000000000E+00  0.16952135628E+03  0.16952135628E+03  0.00000000000E+00 0. -1.
         21   -1    0    0  502  503 -0.00000000000E+00 -0.00000000000E+00 -0.70568438714E+03  0.70568438714E+03  0.00000000000E+00 0.  1.
         -6    2    1    2    0  503 -0.23360248672E+03  0.16352045666E+03 -0.16309534052E+03  0.37015679402E+03  0.17060744566E+03 0.  0.
        -24    2    3    3    0    0 -0.22056406394E+03  0.11198386412E+03 -0.17708753758E+03  0.31498531211E+03  0.81650834351E+02 0.  0.
          6    2    1    2  501    0  0.23360248672E+03 -0.16352045666E+03 -0.37306769034E+03  0.50504894939E+03  0.18597278876E+03 0.  0.
         24    2    5    5    0    0  0.24902596037E+03 -0.11057308801E+03 -0.30173400704E+03  0.41476112209E+03  0.82116019535E+02 0.  0.
          5    1    5    5  501    0 -0.15423473643E+02 -0.52947368650E+02 -0.71333683301E+02  0.90287827306E+02  0.47000000000E+01 0. -1.
        -13    1    6    6    0    0  0.17122414675E+03 -0.42753634113E+02 -0.22600763352E+03  0.28674907510E+03  0.00000000000E+00 0.  1.
         14    1    6    6    0    0  0.77801813614E+02 -0.67819453892E+02 -0.75726373520E+02  0.12801204699E+03  0.00000000000E+00 0. -1.
         -5    1    3    3    0  503 -0.13038422778E+02  0.51536592531E+02  0.13992197059E+02  0.55171481916E+02  0.47000000000E+01 0.  1.
         13    1    4    4    0    0 -0.38564204236E+02 -0.72096246403E+01 -0.95045582245E+01  0.40367228823E+02  0.00000000000E+00 0. -1.
        -14    1    4    4    0    0 -0.18199985971E+03  0.11919348876E+03 -0.16758297935E+03  0.27461808328E+03  0.00000000000E+00 0.  1.
</event>
<event>
12    1  0.8053217E-002  0.1845475E+03  0.7818608E-02  0.1164471E+00
         21   -1    0    0  503  502  0.00000000000E+00  0.00000000000E+00  0.12625777579E+04  0.12625777579E+04  0.00000000000E+00 0. -1.
         21   -1    0    0  501  503 -0.00000000000E+00 -0.00000000000E+00 -0.13082703739E+03  0.13082703739E+03  0.00000000000E+00 0. -1.
          6    2    1    2  501    0  0.54011688869E+01  0.54075234614E+02 -0.55361761260E+02  0.19267255841E+03  0.17636464082E+03 0.  0.
         24    2    3    3    0    0  0.18078209402E+02 -0.26325299809E+02  0.13347913571E+02  0.86051440864E+02  0.78783504700E+02 0.  0.
         -6    2    1    2    0  502 -0.54011688869E+01 -0.54075234614E+02  0.11871124818E+04  0.12007322369E+04  0.17195510073E+03 0.  0.
        -24    2    5    5    0    0  0.25423911538E+02  0.20641871716E+02  0.82933723250E+03  0.83391068549E+03  0.80835165825E+02 0.  0.
          5    1    3    3  501    0 -0.12677040515E+02  0.80400534423E+02 -0.68709674831E+02  0.10662111755E+03  0.47000000000E+01 0. -1.
        -13    1    4    4    0    0  0.38478595448E+02 -0.19376754843E+02  0.34996007625E+02  0.55504787952E+02  0.00000000000E+00 0.  1.
         14    1    4    4    0    0 -0.20400386045E+02 -0.69485449657E+01 -0.21648094054E+02  0.30546652912E+02  0.00000000000E+00 0. -1.
         -5    1    5    5    0  502 -0.30825080425E+02 -0.74717106330E+02  0.35777524929E+03  0.36682155139E+03  0.47000000000E+01 0.  1.
         11    1    6    6    0    0  0.38725230806E+01  0.38600320095E+02  0.18803431816E+03  0.19199449458E+03  0.00000000000E+00 0. -1.
        -12    1    6    6    0    0  0.21551388457E+02 -0.17958448379E+02  0.64130291434E+03  0.64191619091E+03  0.00000000000E+00 0.  1.
</event>
<event>
12    1  0.8053217E-002  0.1922585E+03  0.7818608E-02  0.1156822E+00
         21   -1    0    0  503  502  0.00000000000E+00  0.00000000000E+00  0.42528666043E+02  0.42528666043E+02  0.00000000000E+00 0.  1.
         21   -1    0    0  501  503 -0.00000000000E+00 -0.00000000000E+00 -0.86586693001E+03  0.86586693001E+03  0.00000000000E+00 0.  1.
          6    2    1    2  501    0 -0.12609830670E+01  0.82013677404E+02 -0.44605574094E+03  0.48572526832E+03  0.17388352105E+03 0.  0.
         24    2    3    3    0    0  0.46006044033E+02  0.58556372972E+02 -0.15205598918E+03  0.18699066868E+03  0.79366752639E+02 0.  0.
         -6    2    1    2    0  502  0.12609830670E+01 -0.82013677404E+02 -0.37728252303E+03  0.42267032774E+03  0.17198915783E+03 0.  0.
        -24    2    5    5    0    0  0.62097277514E+02 -0.60047929833E+02 -0.20609513082E+03  0.23961087828E+03  0.86465856199E+02 0.  0.
          5    1    3    3  501    0 -0.47267027100E+02  0.23457304432E+02 -0.29399975177E+03  0.29873459964E+03  0.47000000000E+01 0. -1.
        -13    1    4    4    0    0  0.82218433342E+00  0.61896438540E+01 -0.10057631478E+03  0.10076994975E+03  0.00000000000E+00 0.  1.
         14    1    4    4    0    0  0.45183859700E+02  0.52366729118E+02 -0.51479674393E+02  0.86220718923E+02  0.00000000000E+00 0. -1.
         -5    1    5    5    0  502 -0.60836294447E+02 -0.21965747571E+02 -0.17118739220E+03  0.18305944946E+03  0.47000000000E+01 0.  1.
         11    1    6    6    0    0  0.58132672142E+02  0.34392624003E+01 -0.89139536061E+02  0.10647578591E+03  0.00000000000E+00 0. -1.
        -12    1    6    6    0    0  0.39646053724E+01 -0.63487192233E+02 -0.11695559476E+03  0.13313509237E+03  0.00000000000E+00 0.  1.
</event>
<event>
12    1  0.8053217E-002  0.1971050E+03  0.7818608E-02  0.1152220E+00
         21   -1    0    0  501  502  0.00000000000E+00  0.00000000000E+00  0.10096945004E+04  0.10096945004E+04  0.00000000000E+00 0. -1.
         21   -1    0    0  502  503 -0.00000000000E+00 -0.00000000000E+00 -0.10252190043E+03  0.10252190043E+03  0.00000000000E+00 0. -1.
         -6    2    1    2    0  503  0.93060884110E+02 -0.21376425455E+02  0.13975401398E+02  0.19752977108E+03  0.17235260051E+03 0.  0.
        -24    2    3    3    0    0  0.63626800024E+02 -0.71808000159E+02 -0.25537820537E+02  0.12686794446E+03  0.78984406605E+02 0.  0.
          6    2    1    2  501    0 -0.93060884110E+02  0.21376425455E+02  0.89319719854E+03  0.91468662971E+03  0.17243293006E+03 0.  0.
         24    2    5    5    0    0 -0.10355368424E+03  0.66068825154E+02  0.75114272013E+03  0.76532440463E+03  0.80109944032E+02 0.  0.
          5    1    5    5  501    0  0.10492800131E+02 -0.44692399699E+02  0.14205447841E+03  0.14936222508E+03  0.47000000000E+01 0. -1.
        -11    1    6    6    0    0 -0.31873044380E+02  0.31744781626E+02  0.10389595795E+03  0.11321657210E+03  0.00000000000E+00 0.  1.
         12    1    6    6    0    0 -0.71680639861E+02  0.34324043529E+02  0.64724676218E+03  0.65210783253E+03  0.00000000000E+00 0. -1.
         -5    1    3    3    0  503  0.29434084086E+02  0.50431574703E+02  0.39513221934E+02  0.70661826616E+02  0.47000000000E+01 0.  1.
         11    1    4    4    0    0  0.51266939800E+01 -0.11860861578E+02 -0.39850303708E+02  0.41892836311E+02  0.00000000000E+00 0. -1.
        -12    1    4    4    0    0  0.58500106044E+02 -0.59947138580E+02  0.14312483172E+02  0.84975108153E+02  0.00000000000E+00 0.  1.
</event>
<event>
12    1  0.8053217E-002  0.1745546E+03  0.7818608E-02  0.1175534E+00
         21   -1    0    0  503  502  0.00000000000E+00  0.00000000000E+00  0.38033397415E+03  0.38033397415E+03  0.00000000000E+00 0. -1.
         21   -1    0    0  501  503 -0.00000000000E+00 -0.00000000000E+00 -0.79265848771E+02  0.79265848771E+02  0.00000000000E+00 0. -1.
          6    2    1    2  501    0  0.69188001903E+01 -0.14117892877E+02  0.10002648280E+03  0.19335361313E+03  0.16472139433E+03 0.  0.
         24    2    3    3    0    0  0.56984633001E+02  0.10670886142E+02  0.29395027201E+02  0.10317621185E+03  0.80125818923E+02 0.  0.
         -6    2    1    2    0  502 -0.69188001903E+01  0.14117892877E+02  0.20104164257E+03  0.26624620979E+03  0.17384509624E+03 0.  0.
        -24    2    5    5    0    0  0.69148175620E+01  0.55378286056E+02  0.47639443078E+02  0.10672156018E+03  0.77494552077E+02 0.  0.
          5    1    3    3  501    0 -0.50065832811E+02 -0.24788779019E+02  0.70631455603E+02  0.90177401276E+02  0.47000000000E+01 0. -1.
        -13    1    4    4    0    0  0.97566694022E+01 -0.10463118687E+02 -0.24559077238E+02  0.28422134425E+02  0.00000000000E+00 0.  1.
         14    1    4    4    0    0  0.47227963599E+02  0.21134004829E+02  0.53954104439E+02  0.74754077424E+02  0.00000000000E+00 0. -1.
         -5    1    5    5    0  502 -0.13833617752E+02 -0.41260393179E+02  0.15340219949E+03  0.15952464962E+03  0.47000000000E+01 0.  1.
         13    1    6    6    0    0 -0.47586266312E+01 -0.16629619361E+02 -0.34819283201E+01  0.17644052605E+02  0.00000000000E+00 0. -1.
        -14    1    6    6    0    0  0.11673444193E+02  0.72007905417E+02  0.51121371399E+02  0.89077507573E+02  0.00000000000E+00 0.  1.
</event>
<event>
12    1  0.8053217E-002  0.1976389E+03  0.7818608E-02  0.1151770E+00
         21   -1    0    0  503  502  0.00000000000E+00  0.00000000000E+00  0.50755729099E+03  0.50755729099E+03  0.00000000000E+00 0.  1.
         21   -1    0    0  501  503 -0.00000000000E+00 -0.00000000000E+00 -0.13234592135E+03  0.13234592135E+03  0.00000000000E+00 0. -1.
          6    2    1    2  501    0  0.55557552264E+02 -0.80401069972E+02 -0.19425044109E+02  0.19859124725E+03  0.17178526561E+03 0.  0.
         24    2    3    3    0    0  0.84383997588E+02 -0.37650438316E+02 -0.58469120377E+02  0.13374442506E+03  0.77011159206E+02 0.  0.
         -6    2    1    2    0  502 -0.55557552264E+02  0.80401069972E+02  0.39463641375E+03  0.44131196509E+03  0.17166064725E+03 0.  0.
        -24    2    5    5    0    0 -0.11667369516E+01 -0.17504363786E+02  0.13246343673E+03  0.15617937378E+03  0.80855863724E+02 0.  0.
          5    1    3    3  501    0 -0.28826445324E+02 -0.42750631657E+02  0.39044076268E+02  0.64846822194E+02  0.47000000000E+01 0. -1.
        -11    1    4    4    0    0  0.65221442003E+02 -0.61522203567E+02 -0.44531241326E+02  0.10010918780E+03  0.00000000000E+00 0.  1.
         12    1    4    4    0    0  0.19162555584E+02  0.23871765251E+02 -0.13937879051E+02  0.33635237255E+02  0.00000000000E+00 0. -1.
         -5    1    5    5    0  502 -0.54390815312E+02  0.97905433759E+02  0.26217297702E+03  0.28513259131E+03  0.47000000000E+01 0.  1.
         13    1    6    6    0    0 -0.20654908335E+02 -0.35213980460E+02  0.12055347511E+03  0.12727839573E+03  0.00000000000E+00 0. -1.
        -14    1    6    6    0    0  0.19488171384E+02  0.17709616674E+02  0.11909961616E+02  0.28900978051E+02  0.00000000000E+00 0.  1.
</event>
<event>
12    1  0.8053217E-002  0.3607700E+03  0.7818608E-02  0.1058380E+00
         21   -1    0    0  503  502  0.00000000000E+00  0.00000000000E+00  0.19288092544E+03  0.19288092544E+03  0.00000000000E+00 0. -1.
         21   -1    0    0  501  503 -0.00000000000E+00 -0.00000000000E+00 -0.68085984946E+03  0.68085984946E+03  0.00000000000E+00 0.  1.
          6    2    1    2  501    0  0.16475298331E+03 -0.27149511708E+03 -0.29089604239E+03  0.46264877372E+03  0.16902732393E+03 0.  0.
         24    2    3    3    0    0  0.17780674608E+03 -0.17584162444E+03 -0.19801528736E+03  0.32860058823E+03  0.78947936771E+02 0.  0.
         -6    2    1    2    0  502 -0.16475298331E+03  0.27149511708E+03 -0.19708288163E+03  0.41109200118E+03  0.17117776461E+03 0.  0.
        -24    2    5    5    0    0 -0.24437807328E+02  0.48426637670E+02 -0.48536962746E+02  0.10854303798E+03  0.80519616728E+02 0.  0.
          5    1    3    3  501    0 -0.13053762770E+02 -0.95653492646E+02 -0.92880755034E+02  0.13404818549E+03  0.47000000000E+01 0. -1.
        -11    1    4    4    0    0  0.88005516051E+02 -0.10037034534E+03 -0.15276868713E+03  0.20287298698E+03  0.00000000000E+00 0.  1.
         12    1    4    4    0    0  0.89801230031E+02 -0.75471279099E+02 -0.45246600229E+02  0.12572760125E+03  0.00000000000E+00 0. -1.
         -5    1    5    5    0  502 -0.14031517598E+03  0.22306847941E+03 -0.14854591888E+03  0.30254896320E+03  0.47000000000E+01 0.  1.
         13    1    6    6    0    0 -0.26980878713E+02  0.21294207473E+02  0.16426586299E+02  0.38095194257E+02  0.00000000000E+00 0. -1.
        -14    1    6    6    0    0  0.25430713856E+01  0.27132430197E+02 -0.64963549045E+02  0.70447843722E+02  0.00000000000E+00 0.  1.
</event>
<event>
12    1  0.8053217E-002  0.1803128E+03  0.7818608E-02  0.1168341E+00
         21   -1    0    0  501  502  0.00000000000E+00  0.00000000000E+00  0.76489203530E+02  0.76489203530E+02  0.00000000000E+00 0.  1.
         21   -1    0    0  502  503 -0.00000000000E+00 -0.00000000000E+00 -0.42086118620E+03  0.42086118620E+03  0.00000000000E+00 0.  1.
         -6    2    1    2    0  503  0.35499057727E+02  0.25997464393E+01 -0.19441789441E+03  0.26283187233E+03  0.17324933958E+03 0.  0.
        -24    2    3    3    0    0  0.10400732365E+02  0.65321658778E+02 -0.85250059039E+02  0.13436525993E+03  0.80070944602E+02 0.  0.
          6    2    1    2  501    0 -0.35499057727E+02 -0.25997464393E+01 -0.14995408826E+03  0.23451851740E+03  0.17676471547E+03 0.  0.
         24    2    5    5    0    0 -0.58715337555E+01  0.70481721058E+02 -0.95778592520E+02  0.13872830179E+03  0.71202914401E+02 0.  0.
          5    1    5    5  501    0 -0.29627523972E+02 -0.73081467497E+02 -0.54175495736E+02  0.95790215610E+02  0.47000000000E+01 0. -1.
        -13    1    6    6    0    0 -0.27189351121E+02  0.35323776365E+02 -0.13215528643E+02  0.46493872590E+02  0.00000000000E+00 0.  1.
         14    1    6    6    0    0  0.21317817365E+02  0.35157944693E+02 -0.82563063877E+02  0.92234429196E+02  0.00000000000E+00 0. -1.
         -5    1    3    3    0  503  0.25098325362E+02 -0.62721912339E+02 -0.10916783537E+03  0.12846661240E+03  0.47000000000E+01 0.  1.
         11    1    4    4    0    0  0.44201341024E+02  0.28147077292E+02 -0.53730817699E+02  0.75053429495E+02  0.00000000000E+00 0. -1.
        -12    1    4    4    0    0 -0.33800608659E+02  0.37174581486E+02 -0.31519241340E+02  0.59311830431E+02  0.00000000000E+00 0.  1.
</event>
<event>
12    1  0.8053217E-002  0.1808825E+03  0.7818608E-02  0.1167295E+00
         21   -1    0    0  501  502  0.00000000000E+00  0.00000000000E+00  0.45712662368E+02  0.45712662368E+02  0.00000000000E+00 0. -1.
         21   -1    0    0  502  503 -0.00000000000E+00 -0.00000000000E+00 -0.71679069896E+03  0.71679069896E+03  0.00000000000E+00 0. -1.
         -6    2    1    2    0  503 -0.48735015700E+02 -0.25261313309E+02 -0.29745546883E+03  0.34739820548E+03  0.17085819129E+03 0.  0.
        -24    2    3    3    0    0  0.27366096524E+02  0.28836366539E+02 -0.13992071587E+03  0.16421188876E+03  0.76205632367E+02 0.  0.
          6    2    1    2  501    0  0.48735015700E+02  0.25261313309E+02 -0.37362256776E+03  0.41510515585E+03  0.17235205703E+03 0.  0.
         24    2    5    5    0    0 -0.10339077900E+02  0.70144649611E+02 -0.22732341920E+03  0.25100215988E+03  0.79366107066E+02 0.  0.
          5    1    5    5  501    0  0.59074093600E+02 -0.44883336302E+02 -0.14629914857E+03  0.16410299596E+03  0.47000000000E+01 0. -1.
        -13    1    6    6    0    0  0.69521522586E+01 -0.14380162136E+02 -0.67660691375E+02  0.69520433265E+02  0.00000000000E+00 0.  1.
         14    1    6    6    0    0 -0.17291230159E+02  0.84524811747E+02 -0.15966272782E+03  0.18148172662E+03  0.00000000000E+00 0. -1.
         -5    1    3    3    0  503 -0.76101112224E+02 -0.54097679847E+02 -0.15753475296E+03  0.18318631673E+03  0.47000000000E+01 0.  1.
         11    1    4    4    0    0  0.19693830177E+02  0.23764295897E+02 -0.14847646802E+03  0.15165042124E+03  0.00000000000E+00 0. -1.
        -12    1    4    4    0    0  0.76722663470E+01  0.50720706416E+01  0.85557521443E+01  0.12561467520E+02  0.00000000000E+00 0.  1.
</event>
<event>
12    1  0.8053217E-002  0.1998656E+03  0.7818608E-02  0.1149856E+00
         21   -1    0    0  503  502  0.00000000000E+00  0.00000000000E+00  0.22926410278E+03  0.22926410278E+03  0.00000000000E+00 0.  1.
         21   -1    0    0  501  503 -0.00000000000E+00 -0.00000000000E+00 -0.51693287268E+03  0.51693287268E+03  0.00000000000E+00 0.  1.
          6    2    1    2  501    0 -0.80035362294E+02  0.63506161355E+02 -0.44762051310E+03  0.49020710230E+03  0.17175618663E+03 0.  0.
         24    2    3    3    0    0 -0.58499105465E+02 -0.26706057235E+02 -0.27267755868E+03  0.29214352149E+03  0.82821659650E+02 0.  0.
         -6    2    1    2    0  502  0.80035362294E+02 -0.63506161355E+02  0.15995174321E+03  0.25598987316E+03  0.17177765646E+03 0.  0.
        -24    2    5    5    0    0  0.24355723928E+02 -0.10644539570E+01  0.14964964486E+03  0.17156587076E+03  0.80283855497E+02 0.  0.
          5    1    3    3  501    0 -0.21536256829E+02  0.90212218590E+02 -0.17494295442E+03  0.19806358081E+03  0.47000000000E+01 0. -1.
        -13    1    4    4    0    0 -0.28630532837E+02  0.26819230957E+02 -0.14945145289E+03  0.15451445023E+03  0.00000000000E+00 0.  1.
         14    1    4    4    0    0 -0.29868572628E+02 -0.53525288192E+02 -0.12322610579E+03  0.13762907126E+03  0.00000000000E+00 0. -1.
         -5    1    5    5    0  502  0.55679638366E+02 -0.62441707398E+02  0.10302098351E+02  0.84424002403E+02  0.47000000000E+01 0.  1.
         13    1    6    6    0    0 -0.73073651476E+01  0.20666642187E+02  0.57951245985E+01  0.22673578319E+02  0.00000000000E+00 0. -1.
        -14    1    6    6    0    0  0.31663089076E+02 -0.21731096144E+02  0.14385452026E+03  0.14889229244E+03  0.00000000000E+00 0.  1.
</event>
<event>
12    1  0.8053217E-002  0.2510142E+03  0.7818608E-02  0.1113087E+00
         21   -1    0    0  501  502  0.00000000000E+00  0.00000000000E+00  0.44932783595E+03  0.44932783595E+03  0.00000000000E+00 0.  1.
         21   -1    0    0  502  503 -0.00000000000E+00 -0.00000000000E+00 -0.13969507259E+03  0.13969507259E+03  0.00000000000E+00 0.  1.
         -6    2    1    2    0  503  0.94183614912E+02  0.15313366634E+03  0.17832948181E+03  0.30574089362E+03  0.17133480926E+03 0.  0.
        -24    2    3    3    0    0  0.11510796534E+03  0.61559354189E+02  0.11344991261E+03  0.19148183889E+03  0.82188893295E+02 0.  0.
          6    2    1    2  501    0 -0.94183614912E+02 -0.15313366634E+03  0.13130328155E+03  0.28328201492E+03  0.17517898031E+03 0.  0.
         24    2    5    5    0    0  0.15640717601E+02 -0.82859665324E+02  0.45110807620E+02  0.12691369398E+03  0.83437069521E+02 0.  0.
          5    1    5    5  501    0 -0.10982433251E+03 -0.70274001019E+02  0.86192473929E+02  0.15636832094E+03  0.47000000000E+01 0. -1.
        -13    1    6    6    0    0 -0.27466697302E+02 -0.61465244736E+02  0.40506187719E+02  0.78569377080E+02  0.00000000000E+00 0.  1.
         14    1    6    6    0    0  0.43107414903E+02 -0.21394420588E+02  0.46046199003E+01  0.48344316898E+02  0.00000000000E+00 0. -1.
         -5    1    3    3    0  503 -0.20924350431E+02  0.91574312154E+02  0.64879569202E+02  0.11425905473E+03  0.47000000000E+01 0.  1.
         11    1    4    4    0    0  0.73489412250E+01 -0.18367212017E+02  0.18793111691E+02  0.27286305383E+02  0.00000000000E+00 0. -1.
        -12    1    4    4    0    0  0.10775902412E+03  0.79926566207E+02  0.94656800918E+02  0.16419553351E+03  0.00000000000E+00 0.  1.
</event>
<event>
12    1  0.8053217E-002  0.1719017E+03  0.7818608E-02  0.1175936E+00
         21   -1    0    0  503  502  0.00000000000E+00  0.00000000000E+00  0.14446692858E+03  0.14446692858E+03  0.00000000000E+00 0.  1.
         21   -1    0    0  501  503 -0.00000000000E+00 -0.00000000000E+00 -0.22001728286E+03  0.22001728286E+03  0.00000000000E+00 0.  1.
          6    2    1    2  501    0  0.95986837674E+01 -0.39355856283E+01 -0.86490736452E+02  0.19223467491E+03  0.17136481314E+03 0.  0.
         24    2    3    3    0    0  0.61477152193E+02  0.39986061413E+02 -0.53383679667E+02  0.11648077222E+03  0.73072756157E+02 0.  0.
         -6    2    1    2    0  502 -0.95986837674E+01  0.39355856283E+01  0.10940382179E+02  0.17224953653E+03  0.17158842416E+03 0.  0.
        -24    2    5    5    0    0  0.98343637302E+01 -0.55446978070E+02  0.36692622264E+02  0.10450590158E+03  0.80025326299E+02 0.  0.
          5    1    3    3  501    0 -0.51878468425E+02 -0.43921647042E+02 -0.33107056785E+02  0.75753902698E+02  0.47000000000E+01 0. -1.
        -13    1    4    4    0    0 -0.10789686059E+02  0.81953827864E+00 -0.28675974309E+02  0.30649640631E+02  0.00000000000E+00 0.  1.
         14    1    4    4    0    0  0.72266838251E+02  0.39166523135E+02 -0.24707705358E+02  0.85831131586E+02  0.00000000000E+00 0. -1.
         -5    1    5    5    0  502 -0.19433047498E+02  0.59382563699E+02 -0.25752240085E+02  0.67743634947E+02  0.47000000000E+01 0.  1.
         11    1    6    6    0    0 -0.65230524981E+01 -0.59639182893E+02 -0.43228819130E+01  0.60150392003E+02  0.00000000000E+00 0. -1.
        -12    1    6    6    0    0  0.16357416228E+02  0.41922048227E+01  0.41015504177E+02  0.44355509577E+02  0.00000000000E+00 0.  1.
</event>
<event>
12    1  0.8053217E-002  0.1821805E+03  0.7818608E-02  0.1166067E+00
         21   -1    0    0  501  502  0.00000000000E+00  0.00000000000E+00  0.76469336510E+03  0.76469336510E+03  0.00000000000E+00 0. -1.
         21   -1    0    0  502  503 -0.00000000000E+00 -0.00000000000E+00 -0.52825231523E+02  0.52825231523E+02  0.00000000000E+00 0. -1.
         -6    2    1    2    0  503  0.49039381760E+02 -0.27064799263E+02  0.18126850008E+03  0.25699807001E+03  0.17335620711E+03 0.  0.
        -24    2    3    3    0    0  0.32923994943E+02 -0.39887208065E+01  0.20339250631E+03  0.22089027666E+03  0.79524231309E+02 0.  0.
          6    2    1    2  501    0 -0.49039381760E+02  0.27064799263E+02  0.53059963350E+03  0.56052052662E+03  0.17178453181E+03 0.  0.
         24    2    5    5    0    0 -0.49426596967E+02 -0.38812851146E+02  0.41683207241E+03  0.42897143800E+03  0.79486427351E+02 0.  0.
          5    1    5    5  501    0  0.38721520685E+00  0.65877650409E+02  0.11376756109E+03  0.13154908861E+03  0.47000000000E+01 0. -1.
        -13    1    6    6    0    0  0.11565701491E+01 -0.88728378155E+01  0.27881898422E+03  0.27896252592E+03  0.00000000000E+00 0.  1.
         14    1    6    6    0    0 -0.50583167116E+02 -0.29940013330E+02  0.13801308819E+03  0.15000891208E+03  0.00000000000E+00 0. -1.
         -5    1    3    3    0  503  0.16115386817E+02 -0.23076078457E+02 -0.22124006222E+02  0.36107793349E+02  0.47000000000E+01 0.  1.
         11    1    4    4    0    0  0.48811821768E+02  0.23603259963E+02  0.12283280551E+03  0.13426692047E+03  0.00000000000E+00 0. -1.
        -12    1    4    4    0    0 -0.15887826825E+02 -0.27591980770E+02  0.80559700800E+02  0.86623356186E+02  0.00000000000E+00 0.  1.
</event>
<event>
12    1  0.8053217E-002  0.1985478E+03  0.7818608E-02  0.1151080E+00
         21   -1    0    0  503  502  0.00000000000E+00  0.00000000000E+00  0.31742981874E+03  0.31742981874E+03  0.00000000000E+00 0.  1.
         21   -1    0    0  501  503 -0.00000000000E+00 -0.00000000000E+00 -0.15545483766E+03  0.15545483766E+03  0.00000000000E+00 0.  1.
          6    2    1    2  501    0 -0.85973556083E+02 -0.47883622421E+02 -0.25681282456E+02  0.19968859656E+03  0.17184793769E+03 0.  0.
         24    2    3    3    0    0 -0.98615249188E+02  0.13055922761E+02 -0.44294845872E+02  0.13455799458E+03  0.79046796540E+02 0.  0.
         -6    2    1    2    0  502  0.85973556083E+02  0.47883622421E+02  0.18765626354E+03  0.27319605983E+03  0.17244396255E+03 0.  0.
        -24    2    5    5    0    0  0.57391546709E+02 -0.30065073170E+02  0.14822205393E+03  0.18116303700E+03  0.81563291032E+02 0.  0.
          5    1    3    3  501    0  0.12641693106E+02 -0.60939545182E+02  0.18613563416E+02  0.65130601982E+02  0.47000000000E+01 0. -1.
        -13    1    4    4    0    0 -0.93727439450E+02 -0.17966335106E+02 -0.29874478559E+02  0.10000053286E+03  0.00000000000E+00 0.  1.
         14    1    4    4    0    0 -0.48878097387E+01  0.31022257867E+02 -0.14420367313E+02  0.34557461722E+02  0.00000000000E+00 0. -1.
         -5    1    5    5    0  502  0.28582009374E+02  0.77948695591E+02  0.39434209606E+02  0.92033022831E+02  0.47000000000E+01 0.  1.
         11    1    6    6    0    0  0.29046231095E+02 -0.37293333567E+02  0.14405858098E+03  0.15161580070E+03  0.00000000000E+00 0. -1.
        -12    1    6    6    0    0  0.28345315613E+02  0.72282603966E+01  0.41634729533E+01  0.29547236294E+02  0.00000000000E+00 0.  1.
</event>
<event>
12    1  0.8053217E-002  0.1736216E+03  0.7818608E-02  0.1174383E+00
         21   -1    0    0  503  502  0.00000000000E+00  0.00000000000E+00  0.17207192966E+02  0.17207192966E+02  0.00000000000E+00 0.  1.
         21   -1    0    0  501  503 -0.00000000000E+00 -0.00000000000E+00 -0.17574694306E+04  0.17574694306E+04  0.00000000000E+00 0.  1.
          6    2    1    2  501    0 -0.94244378081E+01  0.16914265281E+02 -0.78823850522E+03  0.80713345582E+03  0.17253858121E+03 0.  0.
         24    2    3    3    0    0 -0.73695808365E+01  0.27547022083E+02 -0.79070420563E+03  0.79507328862E+03  0.78200027697E+02 0.  0.
         -6    2    1    2    0  502  0.94244378081E+01 -0.16914265281E+02 -0.95202373245E+03  0.96754316777E+03  0.17151000542E+03 0.  0.
        -24    2    5    5    0    0  0.49510955332E+02 -0.33680017506E+02 -0.85762097958E+03  0.86351437809E+03  0.80979369377E+02 0.  0.
          5    1    3    3  501    0 -0.20548569716E+01 -0.10632756802E+02  0.24657004143E+01  0.12060167201E+02  0.47000000000E+01 0. -1.
        -13    1    4    4    0    0  0.13398267077E+02  0.58540639339E+01 -0.26393769339E+02  0.30173078814E+02  0.00000000000E+00 0.  1.
         14    1    4    4    0    0 -0.20767847914E+02  0.21692958149E+02 -0.76431043629E+03  0.76490020981E+03  0.00000000000E+00 0. -1.
         -5    1    5    5    0  502 -0.40086517524E+02  0.16765752225E+02 -0.94402752866E+02  0.10402878969E+03  0.47000000000E+01 0.  1.
         11    1    6    6    0    0  0.85204922912E+01 -0.28668782122E+01 -0.71174221177E+01  0.11466275645E+02  0.00000000000E+00 0. -1.
        -12    1    6    6    0    0  0.40990463041E+02 -0.30813139294E+02 -0.85050355747E+03  0.85204810244E+03  0.00000000000E+00 0.  1.
</event>
<event>
12    1  0.8053217E-002  0.2137354E+03  0.7818608E-02  0.1138677E+00
         21   -1    0    0  503  502  0.00000000000E+00  0.00000000000E+00  0.60103758302E+03  0.60103758302E+03  0.00000000000E+00 0. -1.
         21   -1    0    0  501  503 -0.00000000000E+00 -0.00000000000E+00 -0.14712098055E+03  0.14712098055E+03  0.00000000000E+00 0. -1.
          6    2    1    2  501    0 -0.12410573147E+03  0.23279993741E+02 -0.33188610215E+02  0.21629676040E+03  0.17244887364E+03 0.  0.
         24    2    3    3    0    0 -0.73404473593E+02 -0.26240052099E+02  0.36350873576E+02  0.11689513920E+03  0.79160157162E+02 0.  0.
         -6    2    1    2    0  502  0.12410573147E+03 -0.23279993741E+02  0.48710521269E+03  0.53186180317E+03  0.17222455908E+03 0.  0.
        -24    2    5    5    0    0  0.14456331343E+03  0.16882571337E+02  0.34985868141E+03  0.38732722377E+03  0.80235332080E+02 0.  0.
          5    1    3    3  501    0 -0.50701257875E+02  0.49520045839E+02 -0.69539483791E+02  0.99401621194E+02  0.47000000000E+01 0. -1.
        -11    1    4    4    0    0 -0.61700982327E+02 -0.89162186456E+01  0.59166956321E+02  0.85949048252E+02  0.00000000000E+00 0.  1.
         12    1    4    4    0    0 -0.11703491266E+02 -0.17323833453E+02 -0.22816082745E+02  0.30946090951E+02  0.00000000000E+00 0. -1.
         -5    1    5    5    0  502 -0.20457581961E+02 -0.40162565078E+02  0.13724653128E+03  0.14453457940E+03  0.47000000000E+01 0.  1.
         13    1    6    6    0    0  0.46758727156E+02 -0.14393038241E+02  0.19839161303E+03  0.20433494620E+03  0.00000000000E+00 0. -1.
        -14    1    6    6    0    0  0.97804586273E+02  0.31275609578E+02  0.15146706838E+03  0.18299227758E+03  0.00000000000E+00 0.  1.
</event>
<event>
12    1  0.8053217E-002  0.1799297E+03  0.7818608E-02  0.1168188E+00
         21   -1    0    0  503  502  0.00000000000E+00  0.00000000000E+00  0.26772023723E+03  0.26772023723E+03  0.00000000000E+00 0.  1.
         21   -1    0    0  501  503 -0.00000000000E+00 -0.00000000000E+00 -0.12085183570E+03  0.12085183570E+03  0.00000000000E+00 0.  1.
          6    2    1    2  501    0 -0.15127836663E+02 -0.46899002618E+02  0.57911987024E+02  0.18901982708E+03  0.17305007628E+03 0.  0.
         24    2    3    3    0    0  0.22629492344E+02  0.19917819984E+02 -0.62745962349E+01  0.88859400034E+02  0.83353517861E+02 0.  0.
         -6    2    1    2    0  502  0.15127836663E+02  0.46899002618E+02  0.88956414499E+02  0.19955224585E+03  0.17169591508E+03 0.  0.
        -24    2    5    5    0    0 -0.33820981223E+01 -0.37960920013E+01 -0.14961990686E+02  0.82361225541E+02  0.80831067079E+02 0.  0.
          5    1    3    3  501    0 -0.37757329007E+02 -0.66816822602E+02  0.64186583259E+02  0.10016042705E+03  0.47000000000E+01 0. -1.
        -13    1    4    4    0    0 -0.26265295102E+02  0.11348129959E+02 -0.22752620770E+02  0.36555813933E+02  0.00000000000E+00 0.  1.
         14    1    4    4    0    0  0.48894787446E+02  0.85696900255E+01  0.16478024535E+02  0.52303586102E+02  0.00000000000E+00 0. -1.
         -5    1    5    5    0  502  0.18509934786E+02  0.50695094619E+02  0.10391840519E+03  0.11719102031E+03  0.47000000000E+01 0.  1.
         11    1    6    6    0    0 -0.18553320114E+01  0.38117824659E+02 -0.10673458612E+01  0.38177873707E+02  0.00000000000E+00 0. -1.
        -12    1    6    6    0    0 -0.15267661109E+01 -0.41913916660E+02 -0.13894644825E+02  0.44183351835E+02  0.00000000000E+00 0.  1.
</event>
<event>
12    1  0.8053217E-002  0.1901070E+03  0.7818608E-02  0.1159002E+00
         21   -1    0    0  501  502  0.00000000000E+00  0.00000000000E+00  0.88794715735E+02  0.88794715735E+02  0.00000000000E+00 0.  1.
         21   -1    0    0  502  503 -0.00000000000E+00 -0.00000000000E+00 -0.41728239889E+03  0.41728239889E+03  0.00000000000E+00 0. -1.
         -6    2    1    2    0  503  0.66087726288E+02  0.46305135184E+02 -0.21301182449E+03  0.28364658381E+03  0.16902542420E+03 0.  0.
        -24    2    3    3    0    0  0.13440475626E+02  0.15263076658E+02 -0.20623194471E+03  0.22197487904E+03  0.79546363913E+02 0.  0.
          6    2    1    2  501    0 -0.66087726288E+02 -0.46305135184E+02 -0.11547585867E+03  0.22243053082E+03  0.17213051442E+03 0.  0.
         24    2    5    5    0    0  0.10089268787E+02 -0.44183318447E+02 -0.79584352311E+01  0.90561190076E+02  0.78000214635E+02 0.  0.
          5    1    5    5  501    0 -0.76176995075E+02 -0.21218167373E+01 -0.10751742344E+03  0.13186934074E+03  0.47000000000E+01 0. -1.
        -13    1    6    6    0    0 -0.14229293585E+02  0.18261987016E+02 -0.77875947028E+00  0.23164184251E+02  0.00000000000E+00 0.  1.
         14    1    6    6    0    0  0.24318562372E+02 -0.62445305463E+02 -0.71796757608E+01  0.67397005825E+02  0.00000000000E+00 0. -1.
         -5    1    3    3    0  503  0.52647250661E+02  0.31042058526E+02 -0.67798797809E+01  0.61671704773E+02  0.47000000000E+01 0.  1.
         11    1    4    4    0    0  0.62420359183E+01 -0.21244006444E+02 -0.16482315826E+03  0.16630377122E+03  0.00000000000E+00 0. -1.
        -12    1    4    4    0    0  0.71984397078E+01  0.36507083102E+02 -0.41408786443E+02  0.55671107817E+02  0.00000000000E+00 0.  1.
</event>
<event>
12    1  0.8053217E-002  0.1937288E+03  0.7818608E-02  0.1155364E+00
         21   -1    0    0  503  502  0.00000000000E+00  0.00000000000E+00  0.28671080449E+03  0.28671080449E+03  0.00000000000E+00 0.  1.
         21   -1    0    0  501  503 -0.00000000000E+00 -0.00000000000E+00 -0.14192672747E+03  0.14192672747E+03  0.00000000000E+00 0.  1.
          6    2    1    2  501    0 -0.73591829686E+02 -0.48356682890E+02  0.10662341224E+02  0.19301176351E+03  0.17142266232E+03 0.  0.
         24    2    3    3    0    0 -0.11065734848E+03 -0.49031162956E+02  0.37513775062E+02  0.14699658009E+03  0.74509110346E+02 0.  0.
         -6    2    1    2    0  502  0.73591829686E+02  0.48356682890E+02  0.13412173579E+03  0.23562576845E+03  0.17255937114E+03 0.  0.
        -24    2    5    5    0    0 -0.15260346589E+02  0.20227589497E+02  0.13651567391E+02  0.83241036280E+02  0.78106794032E+02 0.  0.
          5    1    3    3  501    0  0.37065518793E+02  0.67448006658E+00 -0.26851433837E+02  0.46015183428E+02  0.47000000000E+01 0. -1.
        -11    1    4    4    0    0 -0.42801516003E+02 -0.38578566586E+02 -0.16165550600E+02  0.59846475236E+02  0.00000000000E+00 0.  1.
         12    1    4    4    0    0 -0.67855832476E+02 -0.10452596370E+02  0.53679325662E+02  0.87150104850E+02  0.00000000000E+00 0. -1.
         -5    1    5    5    0  502  0.88852176275E+02  0.28129093392E+02  0.12047016840E+03  0.15238473217E+03  0.47000000000E+01 0.  1.
         13    1    6    6    0    0  0.26938964108E+01 -0.20321863926E+02 -0.19172620855E+02  0.28068213726E+02  0.00000000000E+00 0. -1.
        -14    1    6    6    0    0 -0.17954243000E+02  0.40549453423E+02  0.32824188246E+02  0.55172822555E+02  0.00000000000E+00 0.  1.
</event>
<event>
12    1  0.8053217E-002  0.1834205E+03  0.7818608E-02  0.1164648E+00
         21   -1    0    0  501  502  0.00000000000E+00  0.00000000000E+00  0.93783407453E+02  0.93783407453E+02  0.00000000000E+00 0.  1.
         21   -1    0    0  502  503 -0.00000000000E+00 -0.00000000000E+00 -0.36458535071E+03  0.36458535071E+03  0.00000000000E+00 0.  1.
         -6    2    1    2    0  503  0.60525691252E+02  0.14106572534E+02 -0.16652768742E+03  0.24738010127E+03  0.17205548272E+03 0.  0.
        -24    2    3    3    0    0  0.97696885173E+02  0.42800603617E+02 -0.10651345129E+03  0.17103323745E+03  0.80812622545E+02 0.  0.
          6    2    1    2  501    0 -0.60525691252E+02 -0.14106572534E+02 -0.10427425584E+03  0.21098865690E+03  0.17257096575E+03 0.  0.
         24    2    5    5    0    0 -0.50935851322E+02  0.54925311467E+02 -0.88670510012E+02  0.13941399013E+03  0.77217553116E+02 0.  0.
          5    1    5    5  501    0 -0.95898399299E+01 -0.69031884001E+02 -0.15603745828E+02  0.71574666765E+02  0.47000000000E+01 0. -1.
        -11    1    6    6    0    0 -0.65197936469E+02  0.18654908335E+02 -0.64275039698E+02  0.93434775394E+02  0.00000000000E+00 0.  1.
         12    1    6    6    0    0  0.14262085147E+02  0.36270403132E+02 -0.24395470314E+02  0.45979214738E+02  0.00000000000E+00 0. -1.
         -5    1    3    3    0  503 -0.37171193921E+02 -0.28694031083E+02 -0.60014236126E+02  0.76346863819E+02  0.47000000000E+01 0.  1.
         11    1    4    4    0    0  0.18492093573E+02  0.33371360904E+02 -0.77091680569E+02  0.86015884964E+02  0.00000000000E+00 0. -1.
        -12    1    4    4    0    0  0.79204791600E+02  0.94292427136E+01 -0.29421770724E+02  0.85017352482E+02  0.00000000000E+00 0.  1.
</event>
<event>
12    1  0.8053217E-002  0.1836494E+03  0.7818608E-02  0.1164564E+00
         21   -1    0    0  503  502  0.00000000000E+00  0.00000000000E+00  0.47810328962E+02  0.47810328962E+02  0.00000000000E+00 0. -1.
         21   -1    0    0  501  503 -0.00000000000E+00 -0.00000000000E+00 -0.18596199399E+04  0.18596199399E+04  0.00000000000E+00 0. -1.
          6    2    1    2  501    0  0.54504616094E+02  0.26716326875E+02 -0.16575858764E+04  0.16676135544E+04  0.17221937759E+03 0.  0.
         24    2    3    3    0    0  0.69493392860E+02  0.29168524021E+02 -0.59240954063E+03  0.60231857511E+03  0.78475904907E+02 0.  0.
         -6    2    1    2    0  502 -0.54504616094E+02 -0.26716326875E+02 -0.15422373456E+03  0.23981671444E+03  0.17332795772E+03 0.  0.
        -24    2    5    5    0    0 -0.54913110583E+02 -0.36452651675E+01 -0.14669037332E+02  0.98289175516E+02  0.80105203921E+02 0.  0.
          5    1    3    3  501    0 -0.14988776766E+02 -0.24521971458E+01 -0.10651763357E+04  0.10652949793E+04  0.47000000000E+01 0. -1.
        -13    1    4    4    0    0  0.65291773065E+02 -0.45707520220E+01 -0.25751759577E+03  0.26570513645E+03  0.00000000000E+00 0.  1.
         14    1    4    4    0    0  0.42016197955E+01  0.33739276043E+02 -0.33489194486E+03  0.33661343866E+03  0.00000000000E+00 0. -1.
         -5    1    5    5    0  502  0.40849448841E+00 -0.23071061708E+02 -0.13955469722E+03  0.14152753892E+03  0.47000000000E+01 0.  1.
         11    1    6    6    0    0 -0.37585934666E+02 -0.15225681484E+02 -0.45580084375E+02  0.61008753085E+02  0.00000000000E+00 0. -1.
        -12    1    6    6    0    0 -0.17327175916E+02  0.11580416317E+02  0.30911047043E+02  0.37280422430E+02  0.00000000000E+00 0.  1.
</event>
<event>
12    1  0.8053217E-002  0.1775171E+03  0.7818608E-02  0.1170865E+00
         21   -1    0    0  501  502  0.00000000000E+00  0.00000000000E+00  0.13464732783E+02  0.13464732783E+02  0.00000000000E+00 0. -1.
         21   -1    0    0  502  503 -0.00000000000E+00 -0.00000000000E+00 -0.23113531976E+04  0.23113531976E+04  0.00000000000E+00 0. -1.
         -6    2    1    2    0  503 -0.41423699968E+02 -0.12181457252E+02 -0.11047459163E+04  0.11189172701E+04  0.17218596591E+03 0.  0.
        -24    2    3    3    0    0 -0.51924261131E+02 -0.25169297247E+02 -0.10942005831E+04  0.10986135801E+04  0.79669693289E+02 0.  0.
          6    2    1    2  501    0  0.41423699968E+02  0.12181457252E+02 -0.11931425485E+04  0.12059006603E+04  0.16953746089E+03 0.  0.
         24    2    5    5    0    0 -0.14188944908E+02 -0.37334531734E+02 -0.88794347088E+03  0.89171414497E+03  0.71521433428E+02 0.  0.
          5    1    5    5  501    0  0.55612644876E+02  0.49515988987E+02 -0.30519907764E+03  0.31418651535E+03  0.47000000000E+01 0. -1.
        -11    1    6    6    0    0 -0.26921480676E+02  0.11192847018E+02 -0.22613327877E+03  0.22800505634E+03  0.00000000000E+00 0.  1.
         12    1    6    6    0    0  0.12732535768E+02 -0.48527378753E+02 -0.66181019211E+03  0.66370908863E+03  0.00000000000E+00 0. -1.
         -5    1    3    3    0  503  0.10500561163E+02  0.12987839995E+02 -0.10545333238E+02  0.20303689950E+02  0.47000000000E+01 0.  1.
         11    1    4    4    0    0 -0.53553699734E+02 -0.45479694815E+01 -0.34796563533E+03  0.35209198535E+03  0.00000000000E+00 0. -1.
        -12    1    4    4    0    0  0.16294386027E+01 -0.20621327766E+02 -0.74623494773E+03  0.74652159476E+03  0.00000000000E+00 0.  1.
</event>
<event>
12    1  0.8053217E-002  0.2353710E+03  0.7818608E-02  0.1122983E+00
         21   -1    0    0  503  502  0.00000000000E+00  0.00000000000E+00  0.68963646363E+03  0.68963646363E+03  0.00000000000E+00 0. -1.
         21   -1    0    0  501  503 -0.00000000000E+00 -0.00000000000E+00 -0.23032872134E+03  0.23032872134E+03  0.00000000000E+00 0.  1.
          6    2    1    2  501    0 -0.11534829225E+03  0.11234600303E+03 -0.14164617448E+03  0.27470555946E+03  0.17167601093E+03 0.  0.
         24    2    3    3    0    0 -0.76945959563E+02  0.14532595573E+03 -0.12372012081E+03  0.22079962438E+03  0.80034315946E+02 0.  0.
         -6    2    1    2    0  502  0.11534829225E+03 -0.11234600303E+03  0.60095391677E+03  0.64525962552E+03  0.17113597319E+03 0.  0.
        -24    2    5    5    0    0  0.43260589441E+02 -0.10571684072E+03  0.24760662467E+03  0.28454231027E+03  0.81288109458E+02 0.  0.
          5    1    3    3  501    0 -0.38402332690E+02 -0.32979952705E+02 -0.17926053669E+02  0.53905935078E+02  0.47000000000E+01 0. -1.
        -13    1    4    4    0    0 -0.72298911976E+02  0.13035365599E+03 -0.13530055704E+03  0.20130933669E+03  0.00000000000E+00 0.  1.
         14    1    4    4    0    0 -0.46470475869E+01  0.14972299747E+02  0.11580436230E+02  0.19490287690E+02  0.00000000000E+00 0. -1.
         -5    1    5    5    0  502  0.72087702812E+02 -0.66291623073E+01  0.35334729210E+03  0.36071731525E+03  0.47000000000E+01 0.  1.
         13    1    6    6    0    0  0.67216559939E+02 -0.70560962021E+02  0.17926695330E+03  0.20404302447E+03  0.00000000000E+00 0. -1.
        -14    1    6    6    0    0 -0.23955970498E+02 -0.35155878701E+02  0.68339671373E+02  0.80499285793E+02  0.00000000000E+00 0.  1.
</event>
<event>
12    1  0.8053217E-002  0.1884347E+03  0.7818608E-02  0.1160141E+00
         21   -1    0    0  503  502  0.00000000000E+00  0.00000000000E+00  0.44907455378E+03  0.44907455378E+03  0.00000000000E+00 0.  1.
         21   -1    0    0  501  503 -0.00000000000E+00 -0.00000000000E+00 -0.87549781789E+02  0.87549781789E+02  0.00000000000E+00 0.  1.
          6    2    1    2  501    0 -0.86757502740E+01  0.75719130338E+02  0.95425126558E+02  0.21121927295E+03  0.17233389436E+03 0.  0.
         24    2    3    3    0    0 -0.65999888177E+02  0.80375813670E+01  0.56609472303E+02  0.11428840134E+03  0.73733427777E+02 0.  0.
         -6    2    1    2    0  502  0.86757502740E+01 -0.75719130338E+02  0.26609964543E+03  0.32540506261E+03  0.17108704841E+03 0.  0.
        -24    2    5    5    0    0 -0.15728606938E+02  0.15849054969E+02  0.77367369402E+02  0.11416522919E+03  0.80928413348E+02 0.  0.
          5    1    3    3  501    0  0.57324137903E+02  0.67681548971E+02  0.38815654255E+02  0.96930871619E+02  0.47000000000E+01 0. -1.
        -11    1    4    4    0    0 -0.29108516537E+02  0.29933477797E+02 -0.18298812724E+01  0.41793148882E+02  0.00000000000E+00 0.  1.
         12    1    4    4    0    0 -0.36891371640E+02 -0.21895896430E+02  0.58439353575E+02  0.72495252453E+02  0.00000000000E+00 0. -1.
         -5    1    5    5    0  502  0.24404357212E+02 -0.91568185307E+02  0.18873227603E+03  0.21123983343E+03  0.47000000000E+01 0.  1.
         13    1    6    6    0    0  0.18530886138E+02  0.22483226820E+02 -0.17107073019E+00  0.29136205904E+02  0.00000000000E+00 0. -1.
        -14    1    6    6    0    0 -0.34259493075E+02 -0.66341718514E+01  0.77538440132E+02  0.85029023281E+02  0.00000000000E+00 0.  1.
</event>
<event>
12    1  0.8053217E-002  0.2193305E+03  0.7818608E-02  0.1134414E+00
         21   -1    0    0  501  502  0.00000000000E+00  0.00000000000E+00  0.21074104658E+03  0.21074104658E+03  0.00000000000E+00 0.  1.
         21   -1    0    0  502  503 -0.00000000000E+00 -0.00000000000E+00 -0.23902530638E+03  0.23902530638E+03  0.00000000000E+00 0. -1.
         -6    2    1    2    0  503  0.27109684525E+01  0.13554545802E+03  0.33933721296E+02  0.22194001554E+03  0.17241215884E+03 0.  0.
        -24    2    3    3    0    0  0.12819330017E+02  0.42658493794E+02 -0.40821903541E+02  0.10218751852E+03  0.82412249202E+02 0.  0.
          6    2    1    2  501    0 -0.27109684525E+01 -0.13554545802E+03 -0.62217981093E+02  0.22782633742E+03  0.17220291029E+03 0.  0.
         24    2    5    5    0    0 -0.16894511832E+02 -0.43749923306E+02  0.32188730588E+02  0.95303470312E+02  0.76466703586E+02 0.  0.
          5    1    5    5  501    0  0.14183543380E+02 -0.91795534712E+02 -0.94406711681E+02  0.13252286711E+03  0.47000000000E+01 0. -1.
        -11    1    6    6    0    0  0.19432407803E+02 -0.34389880019E+02 -0.80266902508E+01  0.40307692530E+02  0.00000000000E+00 0.  1.
         12    1    6    6    0    0 -0.36326919635E+02 -0.93600432873E+01  0.40215420838E+02  0.54995777781E+02  0.00000000000E+00 0. -1.
         -5    1    3    3    0  503 -0.10108361564E+02  0.92886964224E+02  0.74755624837E+02  0.11975249701E+03  0.47000000000E+01 0.  1.
         11    1    4    4    0    0 -0.34967620731E+02  0.13322109060E+02 -0.13194010793E+02  0.39677386635E+02  0.00000000000E+00 0. -1.
        -12    1    4    4    0    0  0.47786950748E+02  0.29336384734E+02 -0.27627892748E+02  0.62510131889E+02  0.00000000000E+00 0.  1.
</event>
<event>
12    1  0.8053217E-002  0.2028366E+03  0.7818608E-02  0.1147640E+00
         21   -1    0    0  503  502  0.00000000000E+00  0.00000000000E+00  0.12164009472E+03  0.12164009472E+03  0.00000000000E+00 0.  1.
         21   -1    0    0  501  503 -0.00000000000E+00 -0.00000000000E+00 -0.43498951851E+03  0.43498951851E+03  0.00000000000E+00 0. -1.
          6    2    1    2  501    0 -0.10513972297E+03 -0.15110054776E+02 -0.28979911172E+03  0.35373182567E+03  0.17280047521E+03 0.  0.
         24    2    3    3    0    0 -0.96651992052E+02 -0.43919718746E+02 -0.29678708938E+03  0.32253951658E+03  0.68400395244E+02 0.  0.
         -6    2    1    2    0  502  0.10513972297E+03  0.15110054776E+02 -0.23550312061E+02  0.20289778757E+03  0.17126067820E+03 0.  0.
        -24    2    5    5    0    0  0.14037447735E+03  0.16406422820E+02 -0.35555686214E+02  0.16535597761E+03  0.78129558473E+02 0.  0.
          5    1    3    3  501    0 -0.84877309227E+01  0.28809663970E+02  0.69879776603E+01  0.31192309085E+02  0.47000000000E+01 0. -1.
        -11    1    4    4    0    0 -0.26139088635E+02 -0.30494546873E+02 -0.43187899416E+02  0.58977656783E+02  0.00000000000E+00 0.  1.
         12    1    4    4    0    0 -0.70512903417E+02 -0.13425171872E+02 -0.25359918997E+03  0.26356185980E+03  0.00000000000E+00 0. -1.
         -5    1    5    5    0  502 -0.35234754379E+02 -0.12963680441E+01  0.12005374153E+02  0.37541809956E+02  0.47000000000E+01 0.  1.
         11    1    6    6    0    0 -0.11874913101E+01  0.19665769628E+02 -0.69827872855E+01  0.20902438828E+02  0.00000000000E+00 0. -1.
        -12    1    6    6    0    0  0.14156196866E+03 -0.32593468081E+01 -0.28572898929E+02  0.14445353878E+03  0.00000000000E+00 0.  1.
</event>
<event>
12    1  0.8053217E-002  0.1725479E+03  0.7818608E-02  0.1175563E+00
         21   -1    0    0  501  502  0.00000000000E+00  0.00000000000E+00  0.10907076044E+03  0.10907076044E+03  0.00000000000E+00 0.  1.
         21   -1    0    0  502  503 -0.00000000000E+00 -0.00000000000E+00 -0.50880488530E+03  0.50880488530E+03  0.00000000000E+00 0.  1.
         -6    2    1    2    0  503 -0.11043484477E+02 -0.73007523735E+01 -0.41156014630E+03  0.44626733361E+03  0.17203929635E+03 0.  0.
        -24    2    3    3    0    0 -0.15391456423E+02  0.10820850051E+02 -0.42094529363E+03  0.42487882443E+03  0.54526025828E+02 0.  0.
          6    2    1    2  501    0  0.11043484477E+02  0.73007523735E+01  0.11826021444E+02  0.17160831213E+03  0.17068772210E+03 0.  0.
         24    2    5    5    0    0  0.46527512751E+02  0.19460606060E+02  0.59737871454E+02  0.11057869903E+03  0.78201731198E+02 0.  0.
          5    1    5    5  501    0 -0.35484028273E+02 -0.12159853687E+02 -0.47911850011E+02  0.61029613104E+02  0.47000000000E+01 0. -1.
        -11    1    6    6    0    0  0.21629535127E+02  0.16550704032E+02  0.75976918128E+02  0.80710932853E+02  0.00000000000E+00 0.  1.
         12    1    6    6    0    0  0.24897977623E+02  0.29099020281E+01 -0.16239046674E+02  0.29867766177E+02  0.00000000000E+00 0. -1.
         -5    1    3    3    0  503  0.43479719460E+01 -0.18121602425E+02  0.93851473306E+01  0.21388509179E+02  0.47000000000E+01 0.  1.
         11    1    4    4    0    0  0.17261680796E+02  0.25040255055E+01 -0.63601325007E+02  0.65949710464E+02  0.00000000000E+00 0. -1.
        -12    1    4    4    0    0 -0.32653137219E+02  0.83168245458E+01 -0.35734396862E+03  0.35892911396E+03  0.00000000000E+00 0.  1.
</event>
<event>
12    1  0.8053217E-002  0.2084734E+03  0.7818608E-02  0.1142942E+00
         21   -1    0    0  501  502  0.00000000000E+00  0.00000000000E+00  0.51192620284E+03  0.51192620284E+03  0.00000000000E+00 0. -1.
         21   -1    0    0  502  503 -0.00000000000E+00 -0.00000000000E+00 -0.87030729681E+02  0.87030729681E+02  0.00000000000E+00 0. -1.
         -6    2    1    2    0  503 -0.74791149584E+02  0.91181625616E+02  0.26241822462E+03  0.33464648368E+03  0.17093021828E+03 0.  0.
        -24    2    3    3    0    0  0.17839013631E+01  0.89371476161E+02  0.20922067717E+03  0.24127044755E+03  0.80297534525E+02 0.  0.
          6    2    1    2  501    0  0.74791149584E+02 -0.91181625616E+02  0.16247724854E+03  0.26431044884E+03  0.17191088438E+03 0.  0.
         24    2    5    5    0    0  0.85740226945E+01  0.12888551887E+02  0.87336720724E+02  0.11979920824E+03  0.80526510375E+02 0.  0.
          5    1    5    5  501    0  0.66217126889E+02 -0.10407017750E+03  0.75140527816E+02  0.14451124060E+03  0.47000000000E+01 0. -1.
        -13    1    6    6    0    0  0.36725668447E+02  0.19633167643E+01  0.12081823761E+02  0.38711752750E+02  0.00000000000E+00 0.  1.
         14    1    6    6    0    0 -0.28151645752E+02  0.10925235123E+02  0.75254896963E+02  0.81087455490E+02  0.00000000000E+00 0. -1.
         -5    1    3    3    0  503 -0.76575050947E+02  0.18101494553E+01  0.53197547448E+02  0.93376036128E+02  0.47000000000E+01 0.  1.
         11    1    4    4    0    0  0.55917750283E+01  0.88079802597E+01  0.12211220115E+03  0.12255708112E+03  0.00000000000E+00 0. -1.
        -12    1    4    4    0    0 -0.38078736652E+01  0.80563495901E+02  0.87108476020E+02  0.11871336643E+03  0.00000000000E+00 0.  1.
</event>
<event>
12    1  0.8053217E-002  0.1730432E+03  0.7818608E-02  0.1175414E+00
         21   -1    0    0  501  502  0.00000000000E+00  0.00000000000E+00  0.11574730267E+04  0.11574730267E+04  0.00000000000E+00 0. -1.
         21   -1    0    0  502  503 -0.00000000000E+00 -0.00000000000E+00 -0.25808938712E+02  0.25808938712E+02  0.00000000000E+00 0. -1.
         -6    2    1    2    0  503 -0.11352901397E+02 -0.18967485543E+01  0.63878666441E+03  0.66180991861E+03  0.17266001192E+03 0.  0.
        -24    2    3    3    0    0  0.29055811965E+02 -0.34400852888E+02  0.56005232506E+03  0.56741411835E+03  0.79199217206E+02 0.  0.
          6    2    1    2  501    0  0.11352901397E+02  0.18967485543E+01  0.49287742355E+03  0.52147204677E+03  0.16991896568E+03 0.  0.
         24    2    5    5    0    0  0.71164754264E+02 -0.26524878877E+02  0.29505317079E+03  0.31280539484E+03  0.70872067836E+02 0.  0.
          5    1    5    5  501    0 -0.59811852866E+02  0.28421627431E+02  0.19782425276E+03  0.20866665193E+03  0.47000000000E+01 0. -1.
        -11    1    6    6    0    0  0.69809588281E+02 -0.26804042069E+02  0.29921601019E+03  0.30841863763E+03  0.00000000000E+00 0.  1.
         12    1    6    6    0    0  0.13551659830E+01  0.27916319242E+00 -0.41628393985E+01  0.43867572064E+01  0.00000000000E+00 0. -1.
         -5    1    3    3    0  503 -0.40408713362E+02  0.32504104334E+02  0.78734339349E+02  0.94395800261E+02  0.47000000000E+01 0.  1.
         11    1    4    4    0    0  0.35127537557E+02 -0.55847703640E+02  0.34845421550E+03  0.35464524556E+03  0.00000000000E+00 0. -1.
        -12    1    4    4    0    0 -0.60717255927E+01  0.21446850752E+02  0.21159810955E+03  0.21276887278E+03  0.00000000000E+00 0.  1.
</event>
<event>
12    1  0.8053217E-002  0.1871667E+03  0.7818608E-02  0.1161051E+00
         21   -1    0    0  503  502  0.00000000000E+00  0.00000000000E+00  0.17821558629E+03  0.17821558629E+03  0.00000000000E+00 0.  1.
         21   -1    0    0  501  503 -0.00000000000E+00 -0.00000000000E+00 -0.76405738212E+03  0.76405738212E+03  0.00000000000E+00 0.  1.
          6    2    1    2  501    0 -0.74458332581E+02 -0.49857819754E+00 -0.69896207226E+03  0.72357778537E+03  0.17167568600E+03 0.  0.
         24    2    3    3    0    0 -0.32688185427E+02 -0.59505920103E+02 -0.50172422153E+03  0.51345527027E+03  0.85437978152E+02 0.  0.
         -6    2    1    2    0  502  0.74458332581E+02  0.49857819754E+00  0.11312027642E+03  0.21869518303E+03  0.17171806624E+03 0.  0.
        -24    2    5    5    0    0  0.51009484839E+02 -0.13517940491E+02 -0.84690861600E+01  0.93986023990E+02  0.77310704474E+02 0.  0.
          5    1    3    3  501    0 -0.41770147153E+02  0.59007341905E+02 -0.19723785073E+03  0.21012251510E+03  0.47000000000E+01 0. -1.
        -13    1    4    4    0    0 -0.15524202799E+01  0.17817582114E+02 -0.18789925205E+03  0.18874852360E+03  0.00000000000E+00 0.  1.
         14    1    4    4    0    0 -0.31135765147E+02 -0.77323502217E+02 -0.31382496948E+03  0.32470674667E+03  0.00000000000E+00 0. -1.
         -5    1    5    5    0  502  0.23448847741E+02  0.14016518689E+02  0.12158936258E+03  0.12470915904E+03  0.47000000000E+01 0.  1.
         11    1    6    6    0    0  0.90598702625E+01  0.30430144828E+02  0.38862854926E+01  0.31987156459E+02  0.00000000000E+00 0. -1.
        -12    1    6    6    0    0  0.41949614577E+02 -0.43948085319E+02 -0.12355371653E+02  0.61998867530E+02  0.00000000000E+00 0.  1.
</event>
<event>
12    1  0.8053217E-002  0.1850514E+03  0.7818608E-02  0.1164125E+00
         21   -1    0    0  503  502  0.00000000000E+00  0.00000000000E+00  0.75801662704E+02  0.75801662704E+02  0.00000000000E+00 0.  1.
         21   -1    0    0  501  503 -0.00000000000E+00 -0.00000000000E+00 -0.56734817239E+03  0.56734817239E+03  0.00000000000E+00 0.  1.
          6    2    1    2  501    0 -0.49190184255E+02  0.28729733464E+02 -0.39549077482E+03  0.43465348243E+03  0.17107198780E+03 0.  0.
         24    2    3    3    0    0 -0.33540226420E+02  0.85169660633E+02 -0.27356391029E+03  0.29930712358E+03  0.79804281427E+02 0.  0.
         -6    2    1    2    0  502  0.49190184255E+02 -0.28729733464E+02 -0.96055734866E+02  0.20849635266E+03  0.17606519548E+03 0.  0.
        -24    2    5    5    0    0  0.59972990136E+02  0.45220589789E+02 -0.62753208678E+02  0.12654473607E+03  0.80211867829E+02 0.  0.
          5    1    3    3  501    0 -0.15649957834E+02 -0.56439927169E+02 -0.12192686453E+03  0.13534635885E+03  0.47000000000E+01 0. -1.
        -13    1    4    4    0    0 -0.16098231327E+02  0.93559501882E+02 -0.25649852367E+03  0.27350324695E+03  0.00000000000E+00 0.  1.
         14    1    4    4    0    0 -0.17441995093E+02 -0.83898412488E+01 -0.17065386612E+02  0.25803876632E+02  0.00000000000E+00 0. -1.
         -5    1    5    5    0  502 -0.10782805881E+02 -0.73950323253E+02 -0.33302526189E+02  0.81951616595E+02  0.47000000000E+01 0.  1.
         13    1    6    6    0    0  0.55810203982E+02  0.25337607885E+02 -0.74842326567E+00  0.61297091115E+02  0.00000000000E+00 0. -1.
        -14    1    6    6    0    0  0.41627861540E+01  0.19882981904E+02 -0.62004785412E+02  0.65247644953E+02  0.00000000000E+00 0.  1.
</event>
<event>
12    1  0.8053217E-002  0.1756894E+03  0.7818608E-02  0.1173094E+00
         21   -1    0    0  503  502  0.00000000000E+00  0.00000000000E+00  0.56202986652E+02  0.56202986652E+02  0.00000000000E+00 0. -1.
         21   -1    0    0  501  503 -0.00000000000E+00 -0.00000000000E+00 -0.83950086182E+03  0.83950086182E+03  0.00000000000E+00 0.  1.
          6    2    1    2  501    0  0.49172574311E+01 -0.33522935115E+02 -0.66379349653E+03  0.68665026485E+03  0.17239145450E+03 0.  0.
         24    2    3    3    0    0  0.10113137646E+02  0.34477127954E+02 -0.19513799085E+03  0.21303535930E+03  0.77551795189E+02 0.  0.
         -6    2    1    2    0  502 -0.49172574311E+01  0.33522935115E+02 -0.11950437863E+03  0.20905358362E+03  0.16814915317E+03 0.  0.
        -24    2    5    5    0    0  0.24367570650E+02  0.66271963445E+02 -0.32978013155E+02  0.11189905755E+03  0.80300050379E+02 0.  0.
          5    1    3    3  501    0 -0.51958802152E+01 -0.68000063069E+02 -0.46865550569E+03  0.47361490555E+03  0.47000000000E+01 0. -1.
        -13    1    4    4    0    0  0.33691834840E+02 -0.51412711810E+01 -0.48185928358E+02  0.59020810702E+02  0.00000000000E+00 0.  1.
         14    1    4    4    0    0 -0.23578697193E+02  0.39618399135E+02 -0.14695206249E+03  0.15401454860E+03  0.00000000000E+00 0. -1.
         -5    1    5    5    0  502 -0.29284828081E+02 -0.32749028330E+02 -0.86526365478E+02  0.97154526066E+02  0.47000000000E+01 0.  1.
         13    1    6    6    0    0  0.13702493621E+01 -0.34321424043E+00  0.22292625431E+02  0.22337334844E+02  0.00000000000E+00 0. -1.
        -14    1    6    6    0    0  0.22997321288E+02  0.66615177686E+02 -0.55270638586E+02  0.89561722707E+02  0.00000000000E+00 0.  1.
</event>
<event>
12    1  0.8053217E-002  0.1812867E+03  0.7818608E-02  0.1167106E+00
         21   -1    0    0  503  502  0.00000000000E+00  0.00000000000E+00  0.50023586300E+03  0.50023586300E+03  0.00000000000E+00 0. -1.
         21   -1    0    0  501  503 -0.00000000000E+00 -0.00000000000E+00 -0.65509154621E+02  0.65509154621E+02  0.00000000000E+00 0.  1.
          6    2    1    2  501    0 -0.37286902667E+02 -0.44439806344E+02  0.18845296394E+03  0.25994175856E+03  0.16938119355E+03 0.  0.
         24    2    3    3    0    0 -0.26866093650E+02 -0.92194611092E+02  0.10905231431E+03  0.16658401760E+03  0.81462840358E+02 0.  0.
         -6    2    1    2    0  502  0.37286902667E+02  0.44439806344E+02  0.24627374444E+03  0.30580325906E+03  0.17175466967E+03 0.  0.
        -24    2    5    5    0    0  0.66001734913E+02 -0.20018827264E+02  0.15668104421E+03  0.19166124675E+03  0.86186434184E+02 0.  0.
          5    1    3    3  501    0 -0.10420809017E+02  0.47754804748E+02  0.79400649622E+02  0.93357740962E+02  0.47000000000E+01 0. -1.
        -13    1    4    4    0    0 -0.51044416209E+02 -0.35385589370E+02  0.39616771878E+02  0.73669267508E+02  0.00000000000E+00 0.  1.
         14    1    4    4    0    0  0.24178322558E+02 -0.56809021722E+02  0.69435542436E+02  0.92914750089E+02  0.00000000000E+00 0. -1.
         -5    1    5    5    0  502 -0.28714832246E+02  0.64458633609E+02  0.89592700234E+02  0.11414201230E+03  0.47000000000E+01 0.  1.
         11    1    6    6    0    0 -0.74101900011E+00  0.21314868918E+01  0.10342291048E+03  0.10344752659E+03  0.00000000000E+00 0. -1.
        -12    1    6    6    0    0  0.66742753913E+02 -0.22150314156E+02  0.53258133726E+02  0.88213720164E+02  0.00000000000E+00 0.  1.
</event>
<event>
12    1  0.8053217E-002  0.2360864E+03  0.7818608E-02  0.1122641E+00
         21   -1    0    0  501  502  0.00000000000E+00  0.00000000000E+00  0.59411250550E+02  0.59411250550E+02  0.00000000000E+00 0.  1.
         21   -1    0    0  502  503 -0.00000000000E+00 -0.00000000000E+00 -0.12562553340E+04  0.12562553340E+04  0.00000000000E+00 0.  1.
         -6    2    1    2    0  503  0.50014483375E+02  0.15284648946E+03 -0.93083570164E+03  0.96000208624E+03  0.17112978772E+03 0.  0.
        -24    2    3    3    0    0 -0.15843497458E+02  0.14765585647E+03 -0.68608147972E+03  0.70644551374E+03  0.79398984285E+02 0.  0.
          6    2    1    2  501    0 -0.50014483375E+02 -0.15284648946E+03 -0.26600838180E+03  0.35566449831E+03  0.17283887953E+03 0.  0.
         24    2    5    5    0    0 -0.48128645666E+01 -0.19495056385E+02 -0.16166573657E+03  0.18034972808E+03  0.77375662501E+02 0.  0.
          5    1    5    5  501    0 -0.45201618808E+02 -0.13335143308E+03 -0.10434264523E+03  0.17531477023E+03  0.47000000000E+01 0. -1.
        -13    1    6    6    0    0 -0.17244291639E+02  0.17362109821E+02 -0.15200240623E+02  0.28807217265E+02  0.00000000000E+00 0.  1.
         14    1    6    6    0    0  0.12431427072E+02 -0.36857166206E+02 -0.14646549595E+03  0.15154251081E+03  0.00000000000E+00 0. -1.
         -5    1    3    3    0  503  0.65857980833E+02  0.51906329962E+01 -0.24475422192E+03  0.25355657250E+03  0.47000000000E+01 0.  1.
         13    1    4    4    0    0 -0.30563948983E+02  0.37474154833E+02 -0.32686258847E+03  0.33042036711E+03  0.00000000000E+00 0. -1.
        -14    1    4    4    0    0  0.14720451525E+02  0.11018170163E+03 -0.35921889125E+03  0.37602514663E+03  0.00000000000E+00 0.  1.
</event>
<event>
12    1  0.8053217E-002  0.1769810E+03  0.7818608E-02  0.1170874E+00
         21   -1    0    0  501  502  0.00000000000E+00  0.00000000000E+00  0.69315415899E+03  0.69315415899E+03  0.00000000000E+00 0. -1.
         21   -1    0    0  502  503 -0.00000000000E+00 -0.00000000000E+00 -0.97449886649E+02  0.97449886649E+02  0.00000000000E+00 0. -1.
         -6    2    1    2    0  503 -0.90746441156E+01  0.36915853774E+02  0.82148763853E+01  0.17717155475E+03  0.17285006854E+03 0.  0.
        -24    2    3    3    0    0  0.45857757888E+02  0.42238579199E+02 -0.34745708156E+02  0.10707446480E+03  0.79816321927E+02 0.  0.
          6    2    1    2  501    0  0.90746441156E+01 -0.36915853774E+02  0.58748939596E+03  0.61343249089E+03  0.17236734345E+03 0.  0.
         24    2    5    5    0    0  0.14392375621E+02  0.25074101733E+02  0.49320563361E+03  0.50037254796E+03  0.79278235809E+02 0.  0.
          5    1    5    5  501    0 -0.53177315054E+01 -0.61989955508E+02  0.94283762345E+02  0.11305994292E+03  0.47000000000E+01 0. -1.
        -13    1    6    6    0    0  0.41877225576E+02  0.10637487985E+02  0.16024976412E+03  0.16597242263E+03  0.00000000000E+00 0.  1.
         14    1    6    6    0    0 -0.27484849955E+02  0.14436613748E+02  0.33295586949E+03  0.33440012533E+03  0.00000000000E+00 0. -1.
         -5    1    3    3    0  503 -0.54932402004E+02 -0.53227254246E+01  0.42960584541E+02  0.70097089953E+02  0.47000000000E+01 0.  1.
         13    1    4    4    0    0 -0.13507295922E+02  0.38829273157E+02 -0.20451819071E+02  0.45917713362E+02  0.00000000000E+00 0. -1.
        -14    1    4    4    0    0  0.59365053810E+02  0.34093060418E+01 -0.14293889084E+02  0.61156751440E+02  0.00000000000E+00 0.  1.
</event>
<event>
12    1  0.8053217E-002  0.1786502E+03  0.7818608E-02  0.1169214E+00
         21   -1    0    0  501  502  0.00000000000E+00  0.00000000000E+00  0.36017310838E+03  0.36017310838E+03  0.00000000000E+00 0.  1.
         21   -1    0    0  502  503 -0.00000000000E+00 -0.00000000000E+00 -0.14207967524E+03  0.14207967524E+03  0.00000000000E+00 0.  1.
         -6    2    1    2    0  503 -0.37822233996E+02  0.25994066565E+02 -0.45216714924E+02  0.18428363972E+03  0.17265484552E+03 0.  0.
        -24    2    3    3    0    0 -0.24862890125E+02 -0.34718397284E+02  0.22751130855E+02  0.92111702997E+02  0.78379981236E+02 0.  0.
          6    2    1    2  501    0  0.37822233996E+02 -0.25994066565E+02  0.26331014806E+03  0.31796914389E+03  0.17223800254E+03 0.  0.
         24    2    5    5    0    0  0.19548630574E+02  0.26999268905E+02  0.57521227604E+02  0.10463047425E+03  0.80794399788E+02 0.  0.
          5    1    5    5  501    0  0.18273603421E+02 -0.52993335471E+02  0.20578892045E+03  0.21333866965E+03  0.47000000000E+01 0. -1.
        -11    1    6    6    0    0  0.43261996509E+02  0.22401066203E+02  0.77807439793E+01  0.49335059398E+02  0.00000000000E+00 0.  1.
         12    1    6    6    0    0 -0.23713365934E+02  0.45982027021E+01  0.49740483624E+02  0.55295414848E+02  0.00000000000E+00 0. -1.
         -5    1    3    3    0  503 -0.12959343870E+02  0.60712463849E+02 -0.67967845779E+02  0.92171936727E+02  0.47000000000E+01 0.  1.
         13    1    4    4    0    0  0.20001668000E+02  0.81906269659E+01 -0.77264262351E+01  0.22953229735E+02  0.00000000000E+00 0. -1.
        -14    1    4    4    0    0 -0.44864558126E+02 -0.42909024250E+02  0.30477557091E+02  0.69158473263E+02  0.00000000000E+00 0.  1.
</event>
<event>
12    1  0.8053217E-002  0.2155736E+03  0.7818608E-02  0.1137381E+00
         21   -1    0    0  501  502  0.00000000000E+00  0.00000000000E+00  0.11327812838E+04  0.11327812838E+04  0.00000000000E+00 0.  1.
         21   -1    0    0  502  503 -0.00000000000E+00 -0.00000000000E+00 -0.17488480968E+03  0.17488480968E+03  0.00000000000E+00 0.  1.
         -6    2    1    2    0  503 -0.12849951720E+03 -0.15314963350E+02 -0.93195978904E+02  0.23485626380E+03  0.17241026692E+03 0.  0.
        -24    2    3    3    0    0 -0.78911227579E+02 -0.59740711906E+02 -0.98763605442E+02  0.16788064087E+03  0.92917841781E+02 0.  0.
          6    2    1    2  501    0  0.12849951720E+03  0.15314963350E+02  0.10510924530E+04  0.10728098296E+04  0.17140277663E+03 0.  0.
         24    2    5    5    0    0  0.32617742879E+02 -0.12358675857E+02  0.24310421926E+03  0.25866842867E+03  0.81197540266E+02 0.  0.
          5    1    5    5  501    0  0.95881774320E+02  0.27673639207E+02  0.80798823372E+03  0.81414140097E+03  0.47000000000E+01 0. -1.
        -13    1    6    6    0    0 -0.12717507785E+02  0.17996055321E+02  0.14276111251E+03  0.14445181985E+03  0.00000000000E+00 0.  1.
         14    1    6    6    0    0  0.45335250664E+02 -0.30354731178E+02  0.10034310675E+03  0.11421660882E+03  0.00000000000E+00 0. -1.
         -5    1    3    3    0  503 -0.49588289619E+02  0.44425748556E+02  0.55676265379E+01  0.66975622934E+02  0.47000000000E+01 0.  1.
         11    1    4    4    0    0 -0.48494232049E+02 -0.27082645456E+02  0.41579038062E+01  0.55699626488E+02  0.00000000000E+00 0. -1.
        -12    1    4    4    0    0 -0.30416995531E+02 -0.32658066450E+02 -0.10292150925E+03  0.11218101438E+03  0.00000000000E+00 0.  1.
</event>
<event>
12    1  0.8053217E-002  0.2137775E+03  0.7818608E-02  0.1138611E+00
         21   -1    0    0  503  502  0.00000000000E+00  0.00000000000E+00  0.12063057603E+03  0.12063057603E+03  0.00000000000E+00 0.  1.
         21   -1    0    0  501  503 -0.00000000000E+00 -0.00000000000E+00 -0.43239687359E+03  0.43239687359E+03  0.00000000000E+00 0. -1.
          6    2    1    2  501    0 -0.11278846882E+03 -0.60331583403E+02 -0.25320027621E+03  0.33137280340E+03  0.17127876783E+03 0.  0.
         24    2    3    3    0    0 -0.91058019310E+01 -0.38180111989E+02 -0.18622342405E+03  0.20587869269E+03  0.78525383538E+02 0.  0.
         -6    2    1    2    0  502  0.11278846882E+03  0.60331583403E+02 -0.58566021346E+02  0.22165464621E+03  0.17128825026E+03 0.  0.
        -24    2    5    5    0    0  0.82086393987E+01 -0.27395702169E+01 -0.57045149359E+02  0.99428158938E+02  0.80974827686E+02 0.  0.
          5    1    3    3  501    0 -0.10368266688E+03 -0.22151471413E+02 -0.66976852166E+02  0.12549411071E+03  0.47000000000E+01 0. -1.
        -13    1    4    4    0    0 -0.39686697167E+01 -0.62575011496E+02 -0.12752560946E+03  0.14210616972E+03  0.00000000000E+00 0.  1.
         14    1    4    4    0    0 -0.51371322143E+01  0.24394899507E+02 -0.58697814583E+02  0.63772522971E+02  0.00000000000E+00 0. -1.
         -5    1    5    5    0  502  0.10457982942E+03  0.63071153619E+02 -0.15208719872E+01  0.12222648727E+03  0.47000000000E+01 0.  1.
         11    1    6    6    0    0 -0.30315771310E+02  0.44357539035E+01 -0.51374498010E+00  0.30642875790E+02  0.00000000000E+00 0. -1.
        -12    1    6    6    0    0  0.38524410709E+02 -0.71753241205E+01 -0.56531404379E+02  0.68785283148E+02  0.00000000000E+00 0.  1.
</event>
<event>
12    1  0.8053217E-002  0.1836281E+03  0.7818608E-02  0.1165613E+00
         21   -1    0    0  501  502  0.00000000000E+00  0.00000000000E+00  0.27838339361E+03  0.27838339361E+03  0.00000000000E+00 0.  1.
         21   -1    0    0  502  503 -0.00000000000E+00 -0.00000000000E+00 -0.15753094473E+03  0.15753094473E+03  0.00000000000E+00 0.  1.
         -6    2    1    2    0  503  0.48837885884E+01 -0.45561970024E+02 -0.48584901160E+02  0.18994680858E+03  0.17781887686E+03 0.  0.
        -24    2    3    3    0    0  0.78693168422E+01  0.40579724794E+02  0.73434734134E+00  0.90529590570E+02  0.80538359127E+02 0.  0.
          6    2    1    2  501    0 -0.48837885884E+01  0.45561970024E+02  0.16943735004E+03  0.24596752976E+03  0.17231153648E+03 0.  0.
         24    2    5    5    0    0 -0.10269173305E+02  0.68494987796E+02  0.18818833199E+03  0.21549434488E+03  0.78904658311E+02 0.  0.
          5    1    5    5  501    0  0.53853847162E+01 -0.22933017772E+02 -0.18750981954E+02  0.30473184883E+02  0.47000000000E+01 0. -1.
        -13    1    6    6    0    0 -0.39969957280E+02  0.13665275385E+02  0.85258139872E+02  0.95148765891E+02  0.00000000000E+00 0.  1.
         14    1    6    6    0    0  0.29700783975E+02  0.54829712411E+02  0.10293019212E+03  0.12034557899E+03  0.00000000000E+00 0. -1.
         -5    1    3    3    0  503 -0.29855282537E+01 -0.86141694818E+02 -0.49319248501E+02  0.99417218014E+02  0.47000000000E+01 0.  1.
         13    1    4    4    0    0  0.40997910362E+02  0.34077425235E+02  0.12536338262E+02  0.54765494079E+02  0.00000000000E+00 0. -1.
        -14    1    4    4    0    0 -0.33128593520E+02  0.65022995591E+01 -0.11801990921E+02  0.35764096491E+02  0.00000000000E+00 0.  1.
</event>
<event>
12    1  0.8053217E-002  0.1800074E+03  0.7818608E-02  0.1170347E+00
         21   -1    0    0  501  502  0.00000000000E+00  0.00000000000E+00  0.59808740271E+03  0.59808740271E+03  0.00000000000E+00 0.  1.
         21   -1    0    0  502  503 -0.00000000000E+00 -0.00000000000E+00 -0.51434316689E+02  0.51434316689E+02  0.00000000000E+00 0.  1.
         -6    2    1    2    0  503 -0.27600304327E+02 -0.23726334303E+01  0.30558957766E+03  0.35466553254E+03  0.17786299168E+03 0.  0.
        -24    2    3    3    0    0  0.61649503027E+01 -0.48044722239E+02  0.27428333627E+03  0.28964089977E+03  0.79461942575E+02 0.  0.
          6    2    1    2  501    0  0.27600304327E+02  0.23726334303E+01  0.24106350836E+03  0.29485618686E+03  0.16751462526E+03 0.  0.
         24    2    5    5    0    0  0.18403493344E+02  0.54157097942E+02  0.82901842965E+02  0.12811262777E+03  0.79173543574E+02 0.  0.
          5    1    5    5  501    0  0.91968109830E+01 -0.51784464512E+02  0.15816166539E+03  0.16674355909E+03  0.47000000000E+01 0. -1.
        -11    1    6    6    0    0 -0.37308289735E+00  0.49022851186E+02  0.67194492747E+01  0.49482624504E+02  0.00000000000E+00 0.  1.
         12    1    6    6    0    0  0.18776576241E+02  0.51342467563E+01  0.76182393690E+02  0.78630003265E+02  0.00000000000E+00 0. -1.
         -5    1    3    3    0  503 -0.33765254630E+02  0.45672088809E+02  0.31306241386E+02  0.65024632764E+02  0.47000000000E+01 0.  1.
         11    1    4    4    0    0  0.27079333569E+02  0.91637362612E+01  0.12854582438E+03  0.13168634452E+03  0.00000000000E+00 0. -1.
        -12    1    4    4    0    0 -0.20914383266E+02 -0.57208458500E+02  0.14573751190E+03  0.15795455525E+03  0.00000000000E+00 0.  1.
</event>
<event>
12    1  0.8053217E-002  0.2225922E+03  0.7818608E-02  0.1132057E+00
         21   -1    0    0  501  502  0.00000000000E+00  0.00000000000E+00  0.18904159344E+03  0.18904159344E+03  0.00000000000E+00 0.  1.
         21   -1    0    0  502  503 -0.00000000000E+00 -0.00000000000E+00 -0.38453824774E+03  0.38453824774E+03  0.00000000000E+00 0. -1.
         -6    2    1    2    0  503  0.55877424660E+02 -0.12848541286E+03 -0.26003910802E+03  0.34229759395E+03  0.17296391884E+03 0.  0.
        -24    2    3    3    0    0  0.96749725888E+02 -0.69477310988E+02 -0.19094396600E+03  0.24255427465E+03  0.90473044598E+02 0.  0.
          6    2    1    2  501    0 -0.55877424660E+02  0.12848541286E+03  0.64542453732E+02  0.23128224723E+03  0.17232226103E+03 0.  0.
         24    2    5    5    0    0 -0.36425574706E+02  0.13727491186E+01  0.52659602038E+02  0.10205649162E+03  0.79459340931E+02 0.  0.
          5    1    5    5  501    0 -0.19451849954E+02  0.12711266374E+03  0.11882851694E+02  0.12922575561E+03  0.47000000000E+01 0. -1.
        -13    1    6    6    0    0 -0.12951655879E+02  0.28219555714E+02  0.58202040940E+02  0.65966402693E+02  0.00000000000E+00 0.  1.
         14    1    6    6    0    0 -0.23473918827E+02 -0.26846806595E+02 -0.55424389017E+01  0.36090088923E+02  0.00000000000E+00 0. -1.
         -5    1    3    3    0  503 -0.40872301228E+02 -0.59008101869E+02 -0.69095142027E+02  0.99743319303E+02  0.47000000000E+01 0.  1.
         11    1    4    4    0    0  0.58930892542E+02  0.75433094320E+01 -0.50505924661E+02  0.77978202331E+02  0.00000000000E+00 0. -1.
        -12    1    4    4    0    0  0.37818833346E+02 -0.77020620420E+02 -0.14043804134E+03  0.16457607232E+03  0.00000000000E+00 0.  1.
</event>
<event>
12    1  0.8053217E-002  0.2866182E+03  0.7818608E-02  0.1092133E+00
         21   -1    0    0  501  502  0.00000000000E+00  0.00000000000E+00  0.18617747421E+03  0.18617747421E+03  0.00000000000E+00 0. -1.
         21   -1    0    0  502  503 -0.00000000000E+00 -0.00000000000E+00 -0.44404006159E+03  0.44404006159E+03  0.00000000000E+00 0.  1.
         -6    2    1    2    0  503 -0.15109911846E+03 -0.17242719932E+03 -0.15418645493E+03  0.32542459419E+03  0.17194656425E+03 0.  0.
        -24    2    3    3    0    0 -0.47451850877E+02 -0.15218808307E+03 -0.11400802120E+03  0.21233713052E+03  0.81708857036E+02 0.  0.
          6    2    1    2  501    0  0.15109911846E+03  0.17242719932E+03 -0.10367613245E+03  0.30479294161E+03  0.17201137797E+03 0.  0.
         24    2    5    5    0    0  0.19157942691E+02  0.11254756691E+03 -0.70513695847E+02  0.15607884866E+03  0.79714767213E+02 0.  0.
          5    1    5    5  501    0  0.13194117576E+03  0.59879632416E+02 -0.33162436601E+02  0.14871409295E+03  0.47000000000E+01 0. -1.
        -11    1    6    6    0    0 -0.16629766986E+02  0.97251789357E+02 -0.39353273172E+02  0.10622212478E+03  0.00000000000E+00 0.  1.
         12    1    6    6    0    0  0.35787709677E+02  0.15295777550E+02 -0.31160422674E+02  0.49856723880E+02  0.00000000000E+00 0. -1.
         -5    1    3    3    0  503 -0.10364726758E+03 -0.20239116251E+02 -0.40178433721E+02  0.11308746367E+03  0.47000000000E+01 0.  1.
         11    1    4    4    0    0 -0.41231097551E+02 -0.89052719569E+02 -0.21988375416E+02  0.10056778272E+03  0.00000000000E+00 0. -1.
        -12    1    4    4    0    0 -0.62207533256E+01 -0.63135363503E+02 -0.92019645789E+02  0.11176934780E+03  0.00000000000E+00 0.  1.
</event>
<event>
12    1  0.8053217E-002  0.1972318E+03  0.7818608E-02  0.1152188E+00
         21   -1    0    0  501  502  0.00000000000E+00  0.00000000000E+00  0.27771605117E+03  0.27771605117E+03  0.00000000000E+00 0. -1.
         21   -1    0    0  502  503 -0.00000000000E+00 -0.00000000000E+00 -0.15305567072E+03  0.15305567072E+03  0.00000000000E+00 0. -1.
         -6    2    1    2    0  503  0.51213113530E+02 -0.80877759305E+02 -0.11942579820E+01  0.19680640967E+03  0.17195156786E+03 0.  0.
        -24    2    3    3    0    0 -0.27692726689E+02 -0.35120009490E+01 -0.98162269737E+01  0.85864891132E+02  0.80605210470E+02 0.  0.
          6    2    1    2  501    0 -0.51213113530E+02  0.80877759305E+02  0.12585463843E+03  0.23396531222E+03  0.17244240302E+03 0.  0.
         24    2    5    5    0    0 -0.44334782497E+02  0.79607607482E+02  0.15127081246E+03  0.20718851955E+03  0.10835718630E+03 0.  0.
          5    1    5    5  501    0 -0.68783310333E+01  0.12701518230E+01 -0.25416174026E+02  0.26776792668E+02  0.47000000000E+01 0. -1.
        -11    1    6    6    0    0 -0.50038482624E+02 -0.60495576435E+01  0.30157234251E+02  0.58735897615E+02  0.00000000000E+00 0.  1.
         12    1    6    6    0    0  0.57037001276E+01  0.85657165126E+02  0.12111357821E+03  0.14845262193E+03  0.00000000000E+00 0. -1.
         -5    1    3    3    0  503  0.78905840219E+02 -0.77365758356E+02  0.86219689918E+01  0.11094151854E+03  0.47000000000E+01 0.  1.
         13    1    4    4    0    0  0.10417168100E+01 -0.34710651667E+02  0.13742306044E+02  0.37346559259E+02  0.00000000000E+00 0. -1.
        -14    1    4    4    0    0 -0.28734443499E+02  0.31198650718E+02 -0.23558533018E+02  0.48518331873E+02  0.00000000000E+00 0.  1.
</event>
<event>
12    1  0.8053217E-002  0.2037777E+03  0.7818608E-02  0.1146635E+00
         21   -1    0    0  501  502  0.00000000000E+00  0.00000000000E+00  0.17589276100E+03  0.17589276100E+03  0.00000000000E+00 0.  1.
         21   -1    0    0  502  503 -0.00000000000E+00 -0.00000000000E+00 -0.28520886510E+03  0.28520886510E+03  0.00000000000E+00 0. -1.
         -6    2    1    2    0  503  0.23810274565E+02 -0.10696469617E+03 -0.15056176447E+03  0.25319162259E+03  0.17154817815E+03 0.  0.
        -24    2    3    3    0    0 -0.46876672749E+02 -0.42248049921E+02 -0.10743455939E+03  0.14799212335E+03  0.79857146531E+02 0.  0.
          6    2    1    2  501    0 -0.23810274565E+02  0.10696469617E+03  0.41245660373E+02  0.20791000351E+03  0.17180509206E+03 0.  0.
         24    2    5    5    0    0  0.28122295317E+02  0.84062422677E+02 -0.22101671116E+02  0.12272502624E+03  0.81948726643E+02 0.  0.
          5    1    5    5  501    0 -0.51932569882E+02  0.22902273494E+02  0.63347331490E+02  0.85184977271E+02  0.47000000000E+01 0. -1.
        -13    1    6    6    0    0 -0.36896335442E+01  0.84987056779E+02 -0.20151576163E+01  0.85090975290E+02  0.00000000000E+00 0.  1.
         14    1    6    6    0    0  0.31811928861E+02 -0.92463410140E+00 -0.20086513500E+02  0.37634050947E+02  0.00000000000E+00 0. -1.
         -5    1    3    3    0  503  0.70686947315E+02 -0.64716646250E+02 -0.43127205081E+02  0.10519949924E+03  0.47000000000E+01 0.  1.
         11    1    4    4    0    0 -0.45815585623E+02 -0.48048022325E+02 -0.34499439791E+02  0.74819059612E+02  0.00000000000E+00 0. -1.
        -12    1    4    4    0    0 -0.10610871262E+01  0.57999724037E+01 -0.72935119602E+02  0.73173063740E+02  0.00000000000E+00 0.  1.
</event>
<event>
12    1  0.8053217E-002  0.2091980E+03  0.7818608E-02  0.1142719E+00
         21   -1    0    0  503  502  0.00000000000E+00  0.00000000000E+00  0.32288279355E+03  0.32288279355E+03  0.00000000000E+00 0.  1.
         21   -1    0    0  501  503 -0.00000000000E+00 -0.00000000000E+00 -0.16117698538E+03  0.16117698538E+03  0.00000000000E+00 0.  1.
          6    2    1    2  501    0 -0.75927314175E+02  0.85842429888E+02 -0.19176080575E+02  0.20750587817E+03  0.17192174848E+03 0.  0.
         24    2    3    3    0    0 -0.26391951818E+02  0.76564876729E+02 -0.71256440858E+02  0.13488164638E+03  0.80974457058E+02 0.  0.
         -6    2    1    2    0  502  0.75927314175E+02 -0.85842429888E+02  0.18088188874E+03  0.27655390076E+03  0.17501406385E+03 0.  0.
        -24    2    5    5    0    0  0.18854464448E+02 -0.30634514501E+02  0.83695899442E+01  0.86585989440E+02  0.78314233847E+02 0.  0.
          5    1    3    3  501    0 -0.49535362357E+02  0.92775531585E+01  0.52080360283E+02  0.72624231793E+02  0.47000000000E+01 0. -1.
        -13    1    4    4    0    0 -0.45913253462E+02  0.12672335096E+02 -0.32228500422E+02  0.57509052850E+02  0.00000000000E+00 0.  1.
         14    1    4    4    0    0  0.19521301644E+02  0.63892541633E+02 -0.39027940436E+02  0.77372593525E+02  0.00000000000E+00 0. -1.
         -5    1    5    5    0  502  0.57072849727E+02 -0.55207915387E+02  0.17251229879E+03  0.18996791132E+03  0.47000000000E+01 0.  1.
         11    1    6    6    0    0  0.37554200961E+02 -0.34296253124E+02 -0.18089694090E+02  0.53979514822E+02  0.00000000000E+00 0. -1.
        -12    1    6    6    0    0 -0.18699736513E+02  0.36617386234E+01  0.26459284034E+02  0.32606474618E+02  0.00000000000E+00 0.  1.
</event>
<event>
12    1  0.8053217E-002  0.1842129E+03  0.7818608E-02  0.1164237E+00
         21   -1    0    0  503  502  0.00000000000E+00  0.00000000000E+00  0.31223083970E+03  0.31223083970E+03  0.00000000000E+00 0.  1.
         21   -1    0    0  501  503 -0.00000000000E+00 -0.00000000000E+00 -0.10820930367E+03  0.10820930367E+03  0.00000000000E+00 0.  1.
          6    2    1    2  501    0  0.47232936509E+01  0.60051001373E+02  0.11774959569E+03  0.21702613630E+03  0.17206668557E+03 0.  0.
         24    2    3    3    0    0  0.68872887682E+02  0.45968196900E+02  0.91763174959E+02  0.14623856777E+03  0.78158100292E+02 0.  0.
         -6    2    1    2    0  502 -0.47232936509E+01 -0.60051001373E+02  0.86271940341E+02  0.20341400707E+03  0.17408612326E+03 0.  0.
        -24    2    5    5    0    0 -0.68889568403E+02 -0.17731955385E+02  0.62491648862E+02  0.12281745173E+03  0.78222281965E+02 0.  0.
          5    1    3    3  501    0 -0.64149594031E+02  0.14082804473E+02  0.25986420730E+02  0.70787568531E+02  0.47000000000E+01 0. -1.
        -11    1    4    4    0    0 -0.22314079599E+00  0.42924506597E+02  0.22953253220E+02  0.48676635995E+02  0.00000000000E+00 0.  1.
         12    1    4    4    0    0  0.69096028478E+02  0.30436903029E+01  0.68809921739E+02  0.97561931775E+02  0.00000000000E+00 0. -1.
         -5    1    5    5    0  502  0.64166274752E+02 -0.42319045988E+02  0.23780291480E+02  0.80596555334E+02  0.47000000000E+01 0.  1.
         11    1    6    6    0    0  0.11813589052E+02 -0.17832679309E+01  0.33545263047E+02  0.35609347140E+02  0.00000000000E+00 0. -1.
        -12    1    6    6    0    0 -0.80703157455E+02 -0.15948687455E+02  0.28946385814E+02  0.87208104591E+02  0.00000000000E+00 0.  1.
</event>
<event>
12    1  0.8053217E-002  0.2102035E+03  0.7818608E-02  0.1141482E+00
         21   -1    0    0  503  502  0.00000000000E+00  0.00000000000E+00  0.61158595868E+03  0.61158595868E+03  0.00000000000E+00 0.  1.
         21   -1    0    0  501  503 -0.00000000000E+00 -0.00000000000E+00 -0.10787452744E+03  0.10787452744E+03  0.00000000000E+00 0. -1.
          6    2    1    2  501    0  0.76682475396E+02  0.93307808363E+02  0.44582480317E+02  0.21450019525E+03  0.17156977320E+03 0.  0.
         24    2    3    3    0    0  0.12020344548E+03  0.65533182167E+02  0.38483196326E+02  0.16230061706E+03  0.78211684728E+02 0.  0.
         -6    2    1    2    0  502 -0.76682475396E+02 -0.93307808363E+02  0.45912895093E+03  0.50496029087E+03  0.17204346148E+03 0.  0.
        -24    2    5    5    0    0 -0.11022026359E+03 -0.10002569515E+03  0.32159880812E+03  0.36316274709E+03  0.79421289926E+02 0.  0.
          5    1    3    3  501    0 -0.43520970088E+02  0.27774626196E+02  0.60992839905E+01  0.52199578187E+02  0.47000000000E+01 0. -1.
        -11    1    4    4    0    0  0.15985742628E+02  0.87002377898E+01  0.39607016795E+02  0.43588460450E+02  0.00000000000E+00 0.  1.
         12    1    4    4    0    0  0.10421770286E+03  0.56832944377E+02 -0.11238204686E+01  0.11871215661E+03  0.00000000000E+00 0. -1.
         -5    1    5    5    0  502  0.33537788197E+02  0.67178867899E+01  0.13753014280E+03  0.14179754377E+03  0.47000000000E+01 0.  1.
         11    1    6    6    0    0 -0.19727364740E+02 -0.42003271400E+02  0.38348132118E+02  0.60199858512E+02  0.00000000000E+00 0. -1.
        -12    1    6    6    0    0 -0.90492898854E+02 -0.58022423752E+02  0.28325067600E+03  0.30296288858E+03  0.00000000000E+00 0.  1.
</event>
<event>
12    1  0.8053217E-002  0.2287777E+03  0.7818608E-02  0.1127706E+00
         21   -1    0    0  503  502  0.00000000000E+00  0.00000000000E+00  0.27826925299E+03  0.27826925299E+03  0.00000000000E+00 0. -1.
         21   -1    0    0  501  503 -0.00000000000E+00 -0.00000000000E+00 -0.35736519680E+03  0.35736519680E+03  0.00000000000E+00 0.  1.
          6    2    1    2  501    0 -0.77000329424E+02 -0.12937473170E+03 -0.25883720614E+03  0.34469435142E+03  0.17073554020E+03 0.  0.
         24    2    3    3    0    0 -0.28149597320E+02 -0.13474042770E+02 -0.16855252724E+03  0.18979833157E+03  0.81483142867E+02 0.  0.
         -6    2    1    2    0  502  0.77000329424E+02  0.12937473170E+03  0.17974126233E+03  0.29094009838E+03  0.17225663275E+03 0.  0.
        -24    2    5    5    0    0  0.79356765979E+02  0.10495823067E+03  0.20448425111E+03  0.25578296810E+03  0.79356104518E+02 0.  0.
          5    1    3    3  501    0 -0.48850732104E+02 -0.11590068893E+03 -0.90284678900E+02  0.15489601985E+03  0.47000000000E+01 0. -1.
        -11    1    4    4    0    0 -0.13905077804E+02 -0.42621665659E+02 -0.13850082527E+03  0.14557622118E+03  0.00000000000E+00 0.  1.
         12    1    4    4    0    0 -0.14244519516E+02  0.29147622889E+02 -0.30051701961E+02  0.44222110387E+02  0.00000000000E+00 0. -1.
         -5    1    5    5    0  502 -0.23564365552E+01  0.24416501026E+02 -0.24742988784E+02  0.35157130280E+02  0.47000000000E+01 0.  1.
         11    1    6    6    0    0  0.44523838247E+02  0.42892021321E+02  0.16079547105E+03  0.17227095279E+03  0.00000000000E+00 0. -1.
        -12    1    6    6    0    0  0.34832927732E+02  0.62066209351E+02  0.43688780062E+02  0.83512015309E+02  0.00000000000E+00 0.  1.
</event>
<event>
12    1  0.8053217E-002  0.1828883E+03  0.7818608E-02  0.1165170E+00
         21   -1    0    0  503  502  0.00000000000E+00  0.00000000000E+00  0.39222934358E+02  0.39222934358E+02  0.00000000000E+00 0.  1.
         21   -1    0    0  501  503 -0.00000000000E+00 -0.00000000000E+00 -0.10135540397E+04  0.10135540397E+04  0.00000000000E+00 0. -1.
          6    2    1    2  501    0 -0.50895401200E+02  0.36157793047E+02 -0.69914023968E+03  0.72266533675E+03  0.17190225812E+03 0.  0.
         24    2    3    3    0    0  0.21007842571E+02  0.25002407469E+02 -0.18493551181E+03  0.20331659914E+03  0.77910500778E+02 0.  0.
         -6    2    1    2    0  502  0.50895401200E+02 -0.36157793047E+02 -0.27519086570E+03  0.33011163734E+03  0.17130660431E+03 0.  0.
        -24    2    5    5    0    0  0.26020038741E+02  0.39934137335E+02 -0.19799863658E+03  0.21880352549E+03  0.79998405856E+02 0.  0.
          5    1    3    3  501    0 -0.71903243771E+02  0.11155385578E+02 -0.51420472787E+03  0.51934873761E+03  0.47000000000E+01 0. -1.
        -11    1    4    4    0    0  0.80450746100E+01  0.80040507234E+01 -0.18127324596E+03  0.18162813040E+03  0.00000000000E+00 0.  1.
         12    1    4    4    0    0  0.12962767961E+02  0.16998356746E+02 -0.36622658511E+01  0.21688468743E+02  0.00000000000E+00 0. -1.
         -5    1    5    5    0  502  0.24875362459E+02 -0.76091930383E+02 -0.77192229123E+02  0.11130811185E+03  0.47000000000E+01 0.  1.
         11    1    6    6    0    0 -0.17589124558E+02  0.47955835261E+01 -0.12735669750E+03  0.12865497784E+03  0.00000000000E+00 0. -1.
        -12    1    6    6    0    0  0.43609163299E+02  0.35138553809E+02 -0.70641939081E+02  0.90148547656E+02  0.00000000000E+00 0.  1.
</event>
<event>
12    1  0.8053217E-002  0.2204107E+03  0.7818608E-02  0.1133748E+00
         21   -1    0    0  503  502  0.00000000000E+00  0.00000000000E+00  0.20832528015E+03  0.20832528015E+03  0.00000000000E+00 0.  1.
         21   -1    0    0  501  503 -0.00000000000E+00 -0.00000000000E+00 -0.29068515991E+03  0.29068515991E+03  0.00000000000E+00 0.  1.
          6    2    1    2  501    0  0.13702456345E+03  0.14467267365E+02 -0.15299767995E+03  0.26755721303E+03  0.17086116985E+03 0.  0.
         24    2    3    3    0    0  0.89488360114E+02 -0.42244244170E+02 -0.43689491554E+02  0.13547293607E+03  0.81556127758E+02 0.  0.
         -6    2    1    2    0  502 -0.13702456345E+03 -0.14467267365E+02  0.70637800186E+02  0.23145322703E+03  0.17203448687E+03 0.  0.
        -24    2    5    5    0    0 -0.12421317617E+03 -0.49477275804E+02  0.31667827535E+01  0.15422460197E+03  0.76800295468E+02 0.  0.
          5    1    3    3  501    0  0.47536203332E+02  0.56711511535E+02 -0.10930818840E+03  0.13208427696E+03  0.47000000000E+01 0. -1.
        -13    1    4    4    0    0  0.75390419329E+02 -0.65954789080E+02 -0.38994729131E+02  0.10749110860E+03  0.00000000000E+00 0.  1.
         14    1    4    4    0    0  0.14097940785E+02  0.23710544910E+02 -0.46947624232E+01  0.27981827469E+02  0.00000000000E+00 0. -1.
         -5    1    5    5    0  502 -0.12811387272E+02  0.35010008439E+02  0.67471017432E+02  0.77228625056E+02  0.47000000000E+01 0.  1.
         11    1    6    6    0    0 -0.32519328909E+02 -0.49915125782E+02 -0.13357118850E+02  0.61052757173E+02  0.00000000000E+00 0. -1.
        -12    1    6    6    0    0 -0.91693847265E+02  0.43784997747E+00  0.16523901603E+02  0.93171844798E+02  0.00000000000E+00 0.  1.
</event>
<event>
12    1  0.8053217E-002  0.1990898E+03  0.7818608E-02  0.1150924E+00
         21   -1    0    0  503  502  0.00000000000E+00  0.00000000000E+00  0.71649535018E+03  0.71649535018E+03  0.00000000000E+00 0. -1.
         21   -1    0    0  501  503 -0.00000000000E+00 -0.00000000000E+00 -0.54952405473E+02  0.54952405473E+02  0.00000000000E+00 0. -1.
          6    2    1    2  501    0 -0.11267100930E+02 -0.10220230045E+03  0.30764713083E+03  0.36539480526E+03  0.16820924120E+03 0.  0.
         24    2    3    3    0    0  0.37308922223E+02 -0.84813113312E+02  0.28235335697E+03  0.30774171470E+03  0.79977027404E+02 0.  0.
         -6    2    1    2    0  502  0.11267100930E+02  0.10220230045E+03  0.35389581388E+03  0.40605295039E+03  0.17048311839E+03 0.  0.
        -24    2    5    5    0    0  0.49695403373E+02  0.11705540181E+03  0.26977690753E+03  0.31226899945E+03  0.92524310167E+02 0.  0.
          5    1    3    3  501    0 -0.48576023153E+02 -0.17389187141E+02  0.25293773864E+02  0.57653090559E+02  0.47000000000E+01 0. -1.
        -13    1    4    4    0    0  0.31388208543E+02 -0.29528344881E+02  0.22007590623E+03  0.22425554015E+03  0.00000000000E+00 0.  1.
         14    1    4    4    0    0  0.59207136804E+01 -0.55284768431E+02  0.62277450736E+02  0.83486174551E+02  0.00000000000E+00 0. -1.
         -5    1    5    5    0  502 -0.38428302443E+02 -0.14853101354E+02  0.84118906343E+02  0.93783950935E+02  0.47000000000E+01 0.  1.
         13    1    6    6    0    0  0.38766827929E+02  0.10569915686E+03  0.27376559923E+03  0.29601145591E+03  0.00000000000E+00 0. -1.
        -14    1    6    6    0    0  0.10928575444E+02  0.11356244944E+02 -0.39886916977E+01  0.16257543540E+02  0.00000000000E+00 0.  1.
</event>
<event>
12    1  0.8053217E-002  0.2371414E+03  0.7818608E-02  0.1122188E+00
         21   -1    0    0  503  502  0.00000000000E+00  0.00000000000E+00  0.44753839798E+02  0.44753839798E+02  0.00000000000E+00 0. -1.
         21   -1    0    0  501  503 -0.00000000000E+00 -0.00000000000E+00 -0.13159975135E+04  0.13159975135E+04  0.00000000000E+00 0.  1.
          6    2    1    2  501    0 -0.14151352112E+03  0.82899932318E+02 -0.80074548742E+03  0.83512238358E+03  0.17128217797E+03 0.  0.
         24    2    3    3    0    0 -0.93032761891E+02  0.45219521644E+02 -0.72799297383E+03  0.73980598626E+03  0.81481454579E+02 0.  0.
         -6    2    1    2    0  502  0.14151352112E+03 -0.82899932318E+02 -0.47049818633E+03  0.52562896977E+03  0.16738815694E+03 0.  0.
        -24    2    5    5    0    0  0.94571254358E+01 -0.54807962176E+01 -0.14160967326E+03  0.16283101180E+03  0.79631416509E+02 0.  0.
          5    1    3    3  501    0 -0.48480759227E+02  0.37680410674E+02 -0.72752513595E+02  0.95316397321E+02  0.47000000000E+01 0. -1.
        -11    1    4    4    0    0 -0.65590984131E+02 -0.39473211424E+01 -0.24935839179E+03  0.25787083220E+03  0.00000000000E+00 0.  1.
         12    1    4    4    0    0 -0.27441777760E+02  0.49166842786E+02 -0.47863458203E+03  0.48193515406E+03  0.00000000000E+00 0. -1.
         -5    1    5    5    0  502  0.13205639568E+03 -0.77419136100E+02 -0.32888851307E+03  0.36279795796E+03  0.47000000000E+01 0.  1.
         13    1    6    6    0    0  0.10665988574E+02 -0.10399029561E+02  0.53171476218E+01  0.15816927227E+02  0.00000000000E+00 0. -1.
        -14    1    6    6    0    0 -0.12088631382E+01  0.49182333431E+01 -0.14692682088E+03  0.14701408458E+03  0.00000000000E+00 0.  1.
</event>
<event>
12    1  0.8053217E-002  0.2086575E+03  0.7818608E-02  0.1142865E+00
         21   -1    0    0  503  502  0.00000000000E+00  0.00000000000E+00  0.10625869058E+04  0.10625869058E+04  0.00000000000E+00 0.  1.
         21   -1    0    0  501  503 -0.00000000000E+00 -0.00000000000E+00 -0.45829377172E+02  0.45829377172E+02  0.00000000000E+00 0.  1.
          6    2    1    2  501    0  0.81275123191E+02  0.86937580247E+02  0.69168532884E+03  0.72213934711E+03  0.16997898103E+03 0.  0.
         24    2    3    3    0    0  0.45585070824E+02  0.54063431628E+00  0.18255585848E+03  0.20447814546E+03  0.80039862166E+02 0.  0.
         -6    2    1    2    0  502 -0.81275123191E+02 -0.86937580247E+02  0.32507219981E+03  0.38627693589E+03  0.17138887829E+03 0.  0.
        -24    2    5    5    0    0 -0.10980715068E+03 -0.89597294082E+02  0.31659393660E+03  0.35602595876E+03  0.80233890402E+02 0.  0.
          5    1    3    3  501    0  0.35690052367E+02  0.86396945930E+02  0.50912947036E+03  0.51766120165E+03  0.47000000000E+01 0. -1.
        -13    1    4    4    0    0  0.36004648804E+02  0.18021426599E+02  0.17992074846E+03  0.18437077393E+03  0.00000000000E+00 0.  1.
         14    1    4    4    0    0  0.95804220202E+01 -0.17480792283E+02  0.26351100212E+01  0.20107371528E+02  0.00000000000E+00 0. -1.
         -5    1    5    5    0  502  0.28532027489E+02  0.26597138357E+01  0.84782632066E+01  0.30250977130E+02  0.47000000000E+01 0.  1.
         13    1    6    6    0    0 -0.81844610941E+02 -0.28035363427E+02  0.11856922934E+03  0.14677596564E+03  0.00000000000E+00 0. -1.
        -14    1    6    6    0    0 -0.27962539739E+02 -0.61561930656E+02  0.19802470726E+03  0.20924999312E+03  0.00000000000E+00 0.  1.
</event>
<event>
12    1  0.8053217E-002  0.1809528E+03  0.7818608E-02  0.1166976E+00
         21   -1    0    0  503  502  0.00000000000E+00  0.00000000000E+00  0.91152799835E+02  0.91152799835E+02  0.00000000000E+00 0.  1.
         21   -1    0    0  501  503 -0.00000000000E+00 -0.00000000000E+00 -0.11299499395E+04  0.11299499395E+04  0.00000000000E+00 0.  1.
          6    2    1    2  501    0  0.32777323743E+02 -0.44692459834E+02 -0.10240690420E+04  0.10399333163E+04  0.17225600356E+03 0.  0.
         24    2    3    3    0    0 -0.44002736628E+01  0.95923530314E+01 -0.83179434296E+03  0.83665846658E+03  0.89466111385E+02 0.  0.
         -6    2    1    2    0  502 -0.32777323743E+02  0.44692459834E+02 -0.14728097648E+02  0.18116942296E+03  0.17185364133E+03 0.  0.
        -24    2    5    5    0    0  0.19913815934E+02  0.44974026562E+02  0.40921798720E+02  0.10438767744E+03  0.82480121606E+02 0.  0.
          5    1    3    3  501    0  0.37177597406E+02 -0.54284812865E+02 -0.19227469902E+03  0.20327484975E+03  0.47000000000E+01 0. -1.
        -13    1    4    4    0    0  0.24632522069E+02 -0.26401257314E+02 -0.54164001553E+03  0.54284223671E+03  0.00000000000E+00 0.  1.
         14    1    4    4    0    0 -0.29032795731E+02  0.35993610345E+02 -0.29015432742E+03  0.29381622987E+03  0.00000000000E+00 0. -1.
         -5    1    5    5    0  502 -0.52691139677E+02 -0.28156672797E+00 -0.55649896367E+02  0.76781745526E+02  0.47000000000E+01 0.  1.
         13    1    6    6    0    0 -0.14455461551E+02  0.21360458907E+02 -0.18538151847E+02  0.31763070495E+02  0.00000000000E+00 0. -1.
        -14    1    6    6    0    0  0.34369277486E+02  0.23613567655E+02  0.59459950566E+02  0.72624606943E+02  0.00000000000E+00 0.  1.
</event>
<event>
12    1  0.8053217E-002  0.1899461E+03  0.7818608E-02  0.1158567E+00
         21   -1    0    0  503  502  0.00000000000E+00  0.00000000000E+00  0.19032373517E+03  0.19032373517E+03  0.00000000000E+00 0.  1.
         21   -1    0    0  501  503 -0.00000000000E+00 -0.00000000000E+00 -0.25190917349E+03  0.25190917349E+03  0.00000000000E+00 0.  1.
          6    2    1    2  501    0 -0.49166075415E+02  0.62279146191E+02 -0.14102638208E+03  0.23657547801E+03  0.17257902923E+03 0.  0.
         24    2    3    3    0    0 -0.20761016418E+02 -0.36581954070E+01 -0.14265483747E+03  0.16460796964E+03  0.79378705071E+02 0.  0.
         -6    2    1    2    0  502  0.49166075415E+02 -0.62279146191E+02  0.79440943764E+02  0.20565743065E+03  0.17230240919E+03 0.  0.
        -24    2    5    5    0    0 -0.19273329286E+02 -0.87804514127E+02  0.52475195502E+02  0.12765269936E+03  0.73895003815E+02 0.  0.
          5    1    3    3  501    0 -0.28405058998E+02  0.65937341598E+02  0.16284553902E+01  0.71967508368E+02  0.47000000000E+01 0. -1.
        -13    1    4    4    0    0 -0.42250034332E+02  0.17094526812E+02 -0.51945207591E+02  0.69105664310E+02  0.00000000000E+00 0.  1.
         14    1    4    4    0    0  0.21489017915E+02 -0.20752722219E+02 -0.90709629878E+02  0.95502305329E+02  0.00000000000E+00 0. -1.
         -5    1    5    5    0  502  0.68439404701E+02  0.25525367936E+02  0.26965748262E+02  0.78004731289E+02  0.47000000000E+01 0.  1.
         11    1    6    6    0    0 -0.34617462978E+02 -0.53554539590E+02  0.78344608577E+00  0.63773593607E+02  0.00000000000E+00 0. -1.
        -12    1    6    6    0    0  0.15344133692E+02 -0.34249974537E+02  0.51691749416E+02  0.63879105756E+02  0.00000000000E+00 0.  1.
</event>
<event>
12    1  0.8053217E-002  0.1953584E+03  0.7818608E-02  0.1154021E+00
         21   -1    0    0  501  502  0.00000000000E+00  0.00000000000E+00  0.14091280495E+03  0.14091280495E+03  0.00000000000E+00 0.  1.
         21   -1    0    0  502  503 -0.00000000000E+00 -0.00000000000E+00 -0.27393050166E+03  0.27393050166E+03  0.00000000000E+00 0.  1.
         -6    2    1    2    0  503 -0.14276215610E+02  0.89633739274E+02 -0.94380365003E+02  0.21570073436E+03  0.17140926450E+03 0.  0.
        -24    2    3    3    0    0  0.42192914755E+02  0.19825727782E+02 -0.54002813454E+02  0.11713929250E+03  0.92908602658E+02 0.  0.
          6    2    1    2  501    0  0.14276215610E+02 -0.89633739274E+02 -0.38637331705E+02  0.19914257226E+03  0.17299393959E+03 0.  0.
         24    2    5    5    0    0 -0.53603717824E+02 -0.33704104677E+02 -0.40798320553E+02  0.11103712826E+03  0.81580730911E+02 0.  0.
          5    1    5    5  501    0  0.67879933434E+02 -0.55929634597E+02  0.21609888484E+01  0.88105443997E+02  0.47000000000E+01 0. -1.
        -11    1    6    6    0    0 -0.17963648264E+02 -0.49789058308E+02  0.21257674468E+01  0.52973218454E+02  0.00000000000E+00 0.  1.
         12    1    6    6    0    0 -0.35640069560E+02  0.16084953630E+02 -0.42924088000E+02  0.58063909808E+02  0.00000000000E+00 0. -1.
         -5    1    3    3    0  503 -0.56469130364E+02  0.69808011492E+02 -0.40377551549E+02  0.98561441861E+02  0.47000000000E+01 0.  1.
         13    1    4    4    0    0  0.28821657900E+02 -0.23815793694E+02  0.98370072217E+01  0.38660660942E+02  0.00000000000E+00 0. -1.
        -14    1    4    4    0    0  0.13371256855E+02  0.43641521476E+02 -0.63839820676E+02  0.78478631554E+02  0.00000000000E+00 0.  1.
</event>
<event>
12    1  0.8053217E-002  0.2298254E+03  0.7818608E-02  0.1127226E+00
         21   -1    0    0  501  502  0.00000000000E+00  0.00000000000E+00  0.19008857584E+03  0.19008857584E+03  0.00000000000E+00 0.  1.
         21   -1    0    0  502  503 -0.00000000000E+00 -0.00000000000E+00 -0.43249891579E+03  0.43249891579E+03  0.00000000000E+00 0.  1.
         -6    2    1    2    0  503 -0.11262059204E+02 -0.15116038320E+03 -0.30878415014E+03  0.38336962051E+03  0.16925814345E+03 0.  0.
        -24    2    3    3    0    0  0.49476405661E+02 -0.49354068585E+02 -0.14228108563E+03  0.17892146742E+03  0.82977378677E+02 0.  0.
          6    2    1    2  501    0  0.11262059204E+02  0.15116038320E+03  0.66373810194E+02  0.23921787113E+03  0.17275245804E+03 0.  0.
         24    2    5    5    0    0 -0.26893552769E+02  0.15547320791E+03  0.84790443826E+02  0.19637264296E+03  0.80483625563E+02 0.  0.
          5    1    5    5  501    0  0.38155611973E+02 -0.43128247003E+01 -0.18416633632E+02  0.42845228162E+02  0.47000000000E+01 0. -1.
        -11    1    6    6    0    0  0.16494168618E+02  0.30307121493E+01  0.32344423053E+00  0.16773414402E+02  0.00000000000E+00 0.  1.
         12    1    6    6    0    0 -0.43387721387E+02  0.15244249576E+03  0.84466999595E+02  0.17959922856E+03  0.00000000000E+00 0. -1.
         -5    1    3    3    0  503 -0.60738464866E+02 -0.10180631462E+03 -0.16650306451E+03  0.20444815309E+03  0.47000000000E+01 0.  1.
         11    1    4    4    0    0 -0.80482086963E+01 -0.70259387954E+01  0.74533184979E+01  0.13026489773E+02  0.00000000000E+00 0. -1.
        -12    1    4    4    0    0  0.57524614358E+02 -0.42328129790E+02 -0.14973440413E+03  0.16589497765E+03  0.00000000000E+00 0.  1.
</event>
<event>
12    1  0.8053217E-002  0.2281495E+03  0.7818608E-02  0.1128143E+00
         21   -1    0    0  503  502  0.00000000000E+00  0.00000000000E+00  0.32825291867E+03  0.32825291867E+03  0.00000000000E+00 0. -1.
         21   -1    0    0  501  503 -0.00000000000E+00 -0.00000000000E+00 -0.21087141225E+03  0.21087141225E+03  0.00000000000E+00 0. -1.
          6    2    1    2  501    0 -0.12419208858E+03 -0.81951209252E+02 -0.76411906189E+02  0.24060539059E+03  0.17295230271E+03 0.  0.
         24    2    3    3    0    0 -0.13644961150E+03 -0.15489211479E+02 -0.37403942577E+02  0.16243151234E+03  0.78272147851E+02 0.  0.
         -6    2    1    2    0  502  0.12419208858E+03  0.81951209252E+02  0.19379341261E+03  0.29851894032E+03  0.17151674961E+03 0.  0.
        -24    2    5    5    0    0  0.13540858790E+02  0.33486698662E+01  0.31251935459E+02  0.86707997152E+02  0.79668217337E+02 0.  0.
          5    1    3    3  501    0  0.12257522921E+02 -0.66461997773E+02 -0.39007963613E+02  0.78173878255E+02  0.47000000000E+01 0. -1.
        -11    1    4    4    0    0 -0.40957659723E+00  0.11693014971E+02 -0.19240124994E+02  0.22518364991E+02  0.00000000000E+00 0.  1.
         12    1    4    4    0    0 -0.13604003491E+03 -0.27182226450E+02 -0.18163817583E+02  0.13991314735E+03  0.00000000000E+00 0. -1.
         -5    1    5    5    0  502  0.11065122979E+03  0.78602539386E+02  0.16254147715E+03  0.21181094317E+03  0.47000000000E+01 0.  1.
         11    1    6    6    0    0  0.49678224271E+01  0.46225413713E+01  0.58100352981E+02  0.58495283271E+02  0.00000000000E+00 0. -1.
        -12    1    6    6    0    0  0.85730363632E+01 -0.12738715051E+01 -0.26848417523E+02  0.28212713882E+02  0.00000000000E+00 0.  1.
</event>
<event>
12    1  0.8053217E-002  0.2233709E+03  0.7818608E-02  0.1131570E+00
         21   -1    0    0  501  502  0.00000000000E+00  0.00000000000E+00  0.70976724322E+02  0.70976724322E+02  0.00000000000E+00 0. -1.
         21   -1    0    0  502  503 -0.00000000000E+00 -0.00000000000E+00 -0.13399049669E+04  0.13399049669E+04  0.00000000000E+00 0.  1.
         -6    2    1    2    0  503  0.53789943715E+02 -0.13022080749E+03 -0.11212731320E+04  0.11431194946E+04  0.17209859270E+03 0.  0.
        -24    2    3    3    0    0  0.93561399368E+02 -0.54962254883E+02 -0.60106521549E+03  0.61597247067E+03  0.79800416270E+02 0.  0.
          6    2    1    2  501    0 -0.53789943715E+02  0.13022080749E+03 -0.14765511060E+03  0.26776219666E+03  0.17333131721E+03 0.  0.
         24    2    5    5    0    0 -0.58810381697E+02  0.15591629825E+02 -0.31703661477E+02  0.10456942193E+03  0.78916930604E+02 0.  0.
          5    1    5    5  501    0  0.50204379828E+01  0.11462917766E+03 -0.11595144913E+03  0.16319277473E+03  0.47000000000E+01 0. -1.
        -13    1    6    6    0    0 -0.37880039504E+02 -0.15421555846E+02 -0.48597330171E+02  0.63517102243E+02  0.00000000000E+00 0.  1.
         14    1    6    6    0    0 -0.20930342193E+02  0.31013185671E+02  0.16893668695E+02  0.41052319688E+02  0.00000000000E+00 0. -1.
         -5    1    3    3    0  503 -0.39771455654E+02 -0.75258552605E+02 -0.52020791651E+03  0.52714702391E+03  0.47000000000E+01 0.  1.
         11    1    4    4    0    0 -0.70762096518E+01  0.87164223409E+01 -0.11431598845E+03  0.11486598268E+03  0.00000000000E+00 0. -1.
        -12    1    4    4    0    0  0.10063760902E+03 -0.63678677224E+02 -0.48674922704E+03  0.50110648799E+03  0.00000000000E+00 0.  1.
</event>
<event>
12    1  0.8053217E-002  0.1850498E+03  0.7818608E-02  0.1163059E+00
         21   -1    0    0  503  502  0.00000000000E+00  0.00000000000E+00  0.57596172062E+02  0.57596172062E+02  0.00000000000E+00 0. -1.
         21   -1    0    0  501  503 -0.00000000000E+00 -0.00000000000E+00 -0.12414942851E+04  0.12414942851E+04  0.00000000000E+00 0. -1.
          6    2    1    2  501    0 -0.32715522454E+01  0.68143688536E+02 -0.10612977264E+04  0.10773097528E+04  0.17201503976E+03 0.  0.
         24    2    3    3    0    0 -0.24869186937E+02  0.76449776336E+01 -0.25093876522E+03  0.26439506605E+03  0.79104771774E+02 0.  0.
         -6    2    1    2    0  502  0.32715522454E+01 -0.68143688536E+02 -0.12260038658E+03  0.22178070438E+03  0.17176018370E+03 0.  0.
        -24    2    5    5    0    0  0.32763471188E+02  0.19668253712E+02 -0.81115356285E+02  0.12017456174E+03  0.80012117932E+02 0.  0.
          5    1    3    3  501    0  0.21597634691E+02  0.60498710902E+02 -0.81035896122E+03  0.81291468672E+03  0.47000000000E+01 0. -1.
        -11    1    4    4    0    0  0.23204119673E+02  0.11938998640E+02 -0.38283103230E+02  0.46331057092E+02  0.00000000000E+00 0.  1.
         12    1    4    4    0    0 -0.48073306610E+02 -0.42940210063E+01 -0.21265566199E+03  0.21806400896E+03  0.00000000000E+00 0. -1.
         -5    1    5    5    0  502 -0.29491918943E+02 -0.87811942247E+02 -0.41485030295E+02  0.10160614264E+03  0.47000000000E+01 0.  1.
         11    1    6    6    0    0 -0.20093206097E+02  0.16932564571E+02 -0.39049686410E+01  0.26564966672E+02  0.00000000000E+00 0. -1.
        -12    1    6    6    0    0  0.52856677286E+02  0.27356891404E+01 -0.77210387644E+02  0.93609595068E+02  0.00000000000E+00 0.  1.
</event>
<event>
12    1  0.8053217E-002  0.2122500E+03  0.7818608E-02  0.1139929E+00
         21   -1    0    0  501  502  0.00000000000E+00  0.00000000000E+00  0.15404474952E+04  0.15404474952E+04  0.00000000000E+00 0. -1.
         21   -1    0    0  502  503 -0.00000000000E+00 -0.00000000000E+00 -0.54868867130E+02  0.54868867130E+02  0.00000000000E+00 0. -1.
         -6    2    1    2    0  503  0.10977342120E+03 -0.56482786396E+02  0.19607187937E+03  0.28845841190E+03  0.17182422517E+03 0.  0.
        -24    2    3    3    0    0  0.33453505542E+02 -0.79619313227E+02  0.16771717213E+03  0.20368749812E+03  0.76819105656E+02 0.  0.
          6    2    1    2  501    0 -0.10977342120E+03  0.56482786396E+02  0.12895067488E+04  0.13068579505E+04  0.17265439030E+03 0.  0.
         24    2    5    5    0    0 -0.18511996644E+02  0.21312386671E+02  0.94465001429E+03  0.94836964950E+03  0.79021710712E+02 0.  0.
          5    1    5    5  501    0 -0.91261424555E+02  0.35170399725E+02  0.34485673447E+03  0.35848830098E+03  0.47000000000E+01 0. -1.
        -11    1    6    6    0    0  0.29808938573E+01  0.43201144839E+02  0.75622002298E+03  0.75745887532E+03  0.00000000000E+00 0.  1.
         12    1    6    6    0    0 -0.21492890502E+02 -0.21888758168E+02  0.18842999131E+03  0.19091077419E+03  0.00000000000E+00 0. -1.
         -5    1    3    3    0  503  0.76319915657E+02  0.23136526831E+02  0.28354707238E+02  0.84770913776E+02  0.47000000000E+01 0.  1.
         13    1    4    4    0    0  0.44962200721E+02 -0.86933666399E+02  0.12446699886E+03  0.15833854759E+03  0.00000000000E+00 0. -1.
        -14    1    4    4    0    0 -0.11508695179E+02  0.73143531720E+01  0.43250173264E+02  0.45348950533E+02  0.00000000000E+00 0.  1.
</event>
<event>
12    1  0.8053217E-002  0.2191874E+03  0.7818608E-02  0.1134644E+00
         21   -1    0    0  503  502  0.00000000000E+00  0.00000000000E+00  0.20534541093E+03  0.20534541093E+03  0.00000000000E+00 0.  1.
         21   -1    0    0  501  503 -0.00000000000E+00 -0.00000000000E+00 -0.58507302747E+03  0.58507302747E+03  0.00000000000E+00 0. -1.
          6    2    1    2  501    0 -0.81013490967E+02 -0.10424648358E+03 -0.49625996970E+03  0.54217879264E+03  0.17393496086E+03 0.  0.
         24    2    3    3    0    0 -0.24875513720E+02 -0.36039302645E+02 -0.94346291126E+02  0.13064460567E+03  0.79051678189E+02 0.  0.
         -6    2    1    2    0  502  0.81013490967E+02  0.10424648358E+03  0.11653235315E+03  0.24823964576E+03  0.17496461739E+03 0.  0.
        -24    2    5    5    0    0  0.98941844966E+02  0.80426182488E+02  0.25151079109E+02  0.15200316688E+03  0.78832267802E+02 0.  0.
          5    1    3    3  501    0 -0.56137977248E+02 -0.68207180939E+02 -0.40191367857E+03  0.41153418697E+03  0.47000000000E+01 0. -1.
        -11    1    4    4    0    0  0.23587292135E+02 -0.19568365142E+02 -0.10475404161E+02  0.32388506556E+02  0.00000000000E+00 0.  1.
         12    1    4    4    0    0 -0.48462805855E+02 -0.16470937503E+02 -0.83870886965E+02  0.98256099118E+02  0.00000000000E+00 0. -1.
         -5    1    5    5    0  502 -0.17928353998E+02  0.23820301097E+02  0.91381274039E+02  0.96236478876E+02  0.47000000000E+01 0.  1.
         11    1    6    6    0    0  0.47917692303E+02  0.84584202256E+02  0.61891707692E+01  0.97410976495E+02  0.00000000000E+00 0. -1.
        -12    1    6    6    0    0  0.51024152662E+02 -0.41580197678E+01  0.18961908340E+02  0.54592190387E+02  0.00000000000E+00 0.  1.
</event>
<event>
12    1  0.8053217E-002  0.2117181E+03  0.7818608E-02  0.1141475E+00
         21   -1    0    0  501  502  0.00000000000E+00  0.00000000000E+00  0.47046010487E+03  0.47046010487E+03  0.00000000000E+00 0. -1.
         21   -1    0    0  502  503 -0.00000000000E+00 -0.00000000000E+00 -0.93534123983E+02  0.93534123983E+02  0.00000000000E+00 0. -1.
         -6    2    1    2    0  503 -0.83928711461E+02  0.89407390625E+02  0.15523177597E+03  0.25744429110E+03  0.16475117191E+03 0.  0.
        -24    2    3    3    0    0 -0.10664415459E+03  0.44459214316E+02  0.80596515789E+02  0.16728420031E+03  0.90214233199E+02 0.  0.
          6    2    1    2  501    0  0.83928711461E+02 -0.89407390625E+02  0.22169420492E+03  0.30654993774E+03  0.17258862573E+03 0.  0.
         24    2    5    5    0    0  0.63092048133E+02 -0.10223587237E+03  0.84949909545E+02  0.16755415076E+03  0.80156884728E+02 0.  0.
          5    1    5    5  501    0  0.20836663328E+02  0.12828481741E+02  0.13674429537E+03  0.13899578698E+03  0.47000000000E+01 0. -1.
        -13    1    6    6    0    0  0.13622605475E+02  0.70796064202E+01 -0.65177007275E+01  0.16678627934E+02  0.00000000000E+00 0.  1.
         14    1    6    6    0    0  0.49469442658E+02 -0.10931547879E+03  0.91467610273E+02  0.15087552283E+03  0.00000000000E+00 0. -1.
         -5    1    3    3    0  503  0.22715443127E+02  0.44948176309E+02  0.74635260176E+02  0.90160090791E+02  0.47000000000E+01 0.  1.
         11    1    4    4    0    0 -0.21639486162E+02  0.47271334835E+02  0.60730001544E+02  0.79943602283E+02  0.00000000000E+00 0. -1.
        -12    1    4    4    0    0 -0.85004668426E+02 -0.28121205192E+01  0.19866514245E+02  0.87340598030E+02  0.00000000000E+00 0.  1.
</event>
<event>
12    1  0.8053217E-002  0.2020021E+03  0.7818608E-02  0.1148243E+00
         21   -1    0    0  503  502  0.00000000000E+00  0.00000000000E+00  0.60350834320E+03  0.60350834320E+03  0.00000000000E+00 0. -1.
         21   -1    0    0  501  503 -0.00000000000E+00 -0.00000000000E+00 -0.77994948327E+02  0.77994948327E+02  0.00000000000E+00 0.  1.
          6    2    1    2  501    0  0.73511196194E+02 -0.78566895863E+02  0.13719045881E+03  0.24418448207E+03  0.17096252865E+03 0.  0.
         24    2    3    3    0    0  0.33389539309E+02  0.22317729574E+02  0.39094492498E+02  0.97786518942E+02  0.80130403434E+02 0.  0.
         -6    2    1    2    0  502 -0.73511196194E+02  0.78566895863E+02  0.38832293607E+03  0.43731880946E+03  0.16993053093E+03 0.  0.
        -24    2    5    5    0    0 -0.11690934472E+02 -0.53747603476E+01  0.25861992204E+03  0.27084686512E+03  0.79424141608E+02 0.  0.
          5    1    3    3  501    0  0.40121656885E+02 -0.10088462544E+03  0.98095966313E+02  0.14639796313E+03  0.47000000000E+01 0. -1.
        -13    1    4    4    0    0  0.27833186201E+02  0.17448122622E+02 -0.19849483420E+02  0.38381313541E+02  0.00000000000E+00 0.  1.
         14    1    4    4    0    0  0.55563531084E+01  0.48696069518E+01  0.58943975918E+02  0.59405205401E+02  0.00000000000E+00 0. -1.
         -5    1    5    5    0  502 -0.61820261722E+02  0.83941656211E+02  0.12970301403E+03  0.16647194435E+03  0.47000000000E+01 0.  1.
         11    1    6    6    0    0  0.12079685468E+02  0.31368605924E+02  0.15046073627E+03  0.15416984594E+03  0.00000000000E+00 0. -1.
        -12    1    6    6    0    0 -0.23770619941E+02 -0.36743366272E+02  0.10815918577E+03  0.11667701918E+03  0.00000000000E+00 0.  1.
</event>
<event>
12    1  0.8053217E-002  0.1995163E+03  0.7818608E-02  0.1152489E+00
         21   -1    0    0  503  502  0.00000000000E+00  0.00000000000E+00  0.45859458557E+03  0.45859458557E+03  0.00000000000E+00 0. -1.
         21   -1    0    0  501  503 -0.00000000000E+00 -0.00000000000E+00 -0.25666025660E+03  0.25666025660E+03  0.00000000000E+00 0. -1.
          6    2    1    2  501    0 -0.94491304734E+02 -0.15034729271E+02 -0.19295901555E+03  0.27756065906E+03  0.17507737724E+03 0.  0.
         24    2    3    3    0    0 -0.90575879989E+02 -0.33679034205E+02 -0.52830519140E+02  0.13606498363E+03  0.79902119110E+02 0.  0.
         -6    2    1    2    0  502  0.94491304734E+02  0.15034729271E+02  0.39489334453E+03  0.43769418311E+03  0.16272920643E+03 0.  0.
        -24    2    5    5    0    0  0.83218391549E+02 -0.15318058742E+02  0.38768045604E+03  0.40419065983E+03  0.76902599995E+02 0.  0.
          5    1    3    3  501    0 -0.39154247449E+01  0.18644304934E+02 -0.14012849641E+03  0.14149567542E+03  0.47000000000E+01 0. -1.
        -11    1    4    4    0    0 -0.88351945635E+02  0.32119773267E+01 -0.38403072260E+02  0.96390762290E+02  0.00000000000E+00 0.  1.
         12    1    4    4    0    0 -0.22239343535E+01 -0.36891011531E+02 -0.14427446880E+02  0.39674221345E+02  0.00000000000E+00 0. -1.
         -5    1    5    5    0  502  0.11272913185E+02  0.30352788013E+02  0.72128884851E+01  0.33503523280E+02  0.47000000000E+01 0.  1.
         13    1    6    6    0    0  0.53903359923E+02 -0.45674032531E+02  0.20995611130E+03  0.22152484766E+03  0.00000000000E+00 0. -1.
        -14    1    6    6    0    0  0.29315031626E+02  0.30355973789E+02  0.17772434474E+03  0.18266581217E+03  0.00000000000E+00 0.  1.
</event>
<event>
12    1  0.8053217E-002  0.1736095E+03  0.7818608E-02  0.1174306E+00
         21   -1    0    0  501  502  0.00000000000E+00  0.00000000000E+00  0.11851824484E+03  0.11851824484E+03  0.00000000000E+00 0. -1.
         21   -1    0    0  502  503 -0.00000000000E+00 -0.00000000000E+00 -0.45376930415E+03  0.45376930415E+03  0.00000000000E+00 0. -1.
         -6    2    1    2    0  503 -0.20401788646E+02 -0.10749812563E+02 -0.35762250824E+03  0.39724260051E+03  0.17139438093E+03 0.  0.
        -24    2    3    3    0    0 -0.17753851654E+01 -0.62132469201E+02 -0.30395931428E+03  0.32050311462E+03  0.80420059808E+02 0.  0.
          6    2    1    2  501    0  0.20401788646E+02  0.10749812563E+02  0.22371448920E+02  0.17504494848E+03  0.17207109231E+03 0.  0.
         24    2    5    5    0    0  0.12203143633E+02  0.46174605594E+01 -0.53573951243E+02  0.98268537209E+02  0.81340638655E+02 0.  0.
          5    1    5    5  501    0  0.81986450124E+01  0.61323520035E+01  0.75945400163E+02  0.76776411267E+02  0.47000000000E+01 0. -1.
        -13    1    6    6    0    0  0.40459957404E+02  0.21351997705E+02 -0.45343814538E+02  0.64412556819E+02  0.00000000000E+00 0.  1.
         14    1    6    6    0    0 -0.28256813771E+02 -0.16734537146E+02 -0.82301367055E+01  0.33855980390E+02  0.00000000000E+00 0. -1.
         -5    1    3    3    0  503 -0.18626403480E+02  0.51382656638E+02 -0.53663193953E+02  0.76739485892E+02  0.47000000000E+01 0.  1.
         11    1    4    4    0    0  0.30868371820E+02 -0.52359343984E+02 -0.24479150063E+03  0.25222457466E+03  0.00000000000E+00 0. -1.
        -12    1    4    4    0    0 -0.32643756985E+02 -0.97731252175E+01 -0.59167813658E+02  0.68278539964E+02  0.00000000000E+00 0.  1.
</event>
<event>
12    1  0.8053217E-002  0.2353603E+03  0.7818608E-02  0.1123031E+00
         21   -1    0    0  501  502  0.00000000000E+00  0.00000000000E+00  0.39308310087E+03  0.39308310087E+03  0.00000000000E+00 0. -1.
         21   -1    0    0  502  503 -0.00000000000E+00 -0.00000000000E+00 -0.14681745497E+03  0.14681745497E+03  0.00000000000E+00 0. -1.
         -6    2    1    2    0  503 -0.99633522345E+02  0.12446158778E+03  0.17877202647E+03  0.29505396640E+03  0.17227849557E+03 0.  0.
        -24    2    3    3    0    0 -0.14714768415E+02  0.12732566831E+03  0.12956090917E+03  0.19675227877E+03  0.74142294240E+02 0.  0.
          6    2    1    2  501    0  0.99633522345E+02 -0.12446158778E+03  0.67493619440E+02  0.24484658944E+03  0.17313849395E+03 0.  0.
         24    2    5    5    0    0  0.17960591768E+02 -0.11780689860E+03  0.75367348595E+02  0.16239152236E+03  0.80558805138E+02 0.  0.
          5    1    5    5  501    0  0.81672930576E+02 -0.66546891818E+01 -0.78737291547E+01  0.82455067084E+02  0.47000000000E+01 0. -1.
        -13    1    6    6    0    0  0.16558627811E+02 -0.23911485825E+02  0.60751564001E+02  0.67355028304E+02  0.00000000000E+00 0.  1.
         14    1    6    6    0    0  0.14019639573E+01 -0.93895412770E+02  0.14615784594E+02  0.95036494051E+02  0.00000000000E+00 0. -1.
         -5    1    3    3    0  503 -0.84918753930E+02 -0.28640805309E+01  0.49211117297E+02  0.98301687635E+02  0.47000000000E+01 0.  1.
         11    1    4    4    0    0 -0.21365402113E+01  0.41712394924E+02  0.99619148110E+00  0.41778955131E+02  0.00000000000E+00 0. -1.
        -12    1    4    4    0    0 -0.12578228204E+02  0.85613273384E+02  0.12856471769E+03  0.15497332364E+03  0.00000000000E+00 0.  1.
</event>
<event>
12    1  0.8053217E-002  0.1795683E+03  0.7818608E-02  0.1168613E+00
         21   -1    0    0  503  502  0.00000000000E+00  0.00000000000E+00  0.14966725525E+03  0.14966725525E+03  0.00000000000E+00 0. -1.
         21   -1    0    0  501  503 -0.00000000000E+00 -0.00000000000E+00 -0.21365355652E+03  0.21365355652E+03  0.00000000000E+00 0.  1.
          6    2    1    2  501    0  0.14279803770E+02  0.48652105002E+02 -0.27326287831E+02  0.18004853330E+03  0.17058665897E+03 0.  0.
         24    2    3    3    0    0 -0.25205533005E+02  0.42944845760E+02 -0.74519276314E+02  0.11807327380E+03  0.76867397322E+02 0.  0.
         -6    2    1    2    0  502 -0.14279803770E+02 -0.48652105002E+02 -0.36660013433E+02  0.18327227848E+03  0.17226093973E+03 0.  0.
        -24    2    5    5    0    0  0.11525703136E+02  0.36627424129E+02 -0.66390003575E+01  0.89134754068E+02  0.80165566336E+02 0.  0.
          5    1    3    3  501    0  0.39485336775E+02  0.57072592421E+01  0.47192988483E+02  0.61975259502E+02  0.47000000000E+01 0. -1.
        -11    1    4    4    0    0  0.16516148841E+02 -0.95530865398E+01 -0.35990020764E+02  0.40734828213E+02  0.00000000000E+00 0.  1.
         12    1    4    4    0    0 -0.41721681846E+02  0.52497932300E+02 -0.38529255551E+02  0.77338445583E+02  0.00000000000E+00 0. -1.
         -5    1    5    5    0  502 -0.25805506906E+02 -0.85279529131E+02 -0.30021013075E+02  0.94137524408E+02  0.47000000000E+01 0.  1.
         13    1    6    6    0    0 -0.17932081175E+02 -0.18503993417E+02  0.27967987612E+01  0.25918707354E+02  0.00000000000E+00 0. -1.
        -14    1    6    6    0    0  0.29457784311E+02  0.55131417546E+02 -0.94357991187E+01  0.63216046713E+02  0.00000000000E+00 0.  1.
</event>
<event>
12    1  0.8053217E-002  0.1863037E+03  0.7818608E-02  0.1161840E+00
         21   -1    0    0  501  502  0.00000000000E+00  0.00000000000E+00  0.27079742800E+03  0.27079742800E+03  0.00000000000E+00 0.  1.
         21   -1    0    0  502  503 -0.00000000000E+00 -0.00000000000E+00 -0.12873776169E+03  0.12873776169E+03  0.00000000000E+00 0.  1.
         -6    2    1    2    0  503 -0.27818247273E+01  0.72143716111E+02  0.57733987730E+02  0.19504433912E+03  0.17174581963E+03 0.  0.
        -24    2    3    3    0    0 -0.31448447638E+02  0.56745671582E+02  0.98594432989E+02  0.14259873843E+03  0.80027881914E+02 0.  0.
          6    2    1    2  501    0  0.27818247273E+01 -0.72143716111E+02  0.84325678579E+02  0.20449085058E+03  0.17173594143E+03 0.  0.
         24    2    5    5    0    0  0.14177484876E+02  0.14809221292E+02  0.83252223257E+02  0.11666194475E+03  0.79112341405E+02 0.  0.
          5    1    5    5  501    0 -0.11395660148E+02 -0.86952937403E+02  0.10734553218E+01  0.87828905831E+02  0.47000000000E+01 0. -1.
        -11    1    6    6    0    0 -0.54888775381E+01 -0.30664759360E+02  0.41367008956E+02  0.51784985017E+02  0.00000000000E+00 0.  1.
         12    1    6    6    0    0  0.19666362414E+02  0.45473980652E+02  0.41885214301E+02  0.64876959731E+02  0.00000000000E+00 0. -1.
         -5    1    3    3    0  503  0.28666622911E+02  0.15398044528E+02 -0.40860445259E+02  0.52445600684E+02  0.47000000000E+01 0.  1.
         11    1    4    4    0    0  0.17841304987E+02 -0.96863880153E+01  0.19307963665E+02  0.28016704612E+02  0.00000000000E+00 0. -1.
        -12    1    4    4    0    0 -0.49289752626E+02  0.66432059598E+02  0.79286469323E+02  0.11458203382E+03  0.00000000000E+00 0.  1.
</event>
<event>
12    1  0.8053217E-002  0.1912163E+03  0.7818608E-02  0.1157462E+00
         21   -1    0    0  501  502  0.00000000000E+00  0.00000000000E+00  0.10884074819E+03  0.10884074819E+03  0.00000000000E+00 0. -1.
         21   -1    0    0  502  503 -0.00000000000E+00 -0.00000000000E+00 -0.33775861816E+03  0.33775861816E+03  0.00000000000E+00 0. -1.
         -6    2    1    2    0  503 -0.38978329271E+02  0.74537811530E+02 -0.94916768920E+02  0.21310421538E+03  0.17125716946E+03 0.  0.
        -24    2    3    3    0    0 -0.21806868559E+01  0.82260158443E+02  0.51888059108E+01  0.10606722532E+03  0.66722136640E+02 0.  0.
          6    2    1    2  501    0  0.38978329271E+02 -0.74537811530E+02 -0.13400110105E+03  0.23349515097E+03  0.17172214459E+03 0.  0.
         24    2    5    5    0    0 -0.33187730210E+02 -0.81342063706E+02 -0.88392448336E+02  0.14772524255E+03  0.79319389797E+02 0.  0.
          5    1    5    5  501    0  0.72166059481E+02  0.68042521754E+01 -0.45608652718E+02  0.85769908427E+02  0.47000000000E+01 0. -1.
        -13    1    6    6    0    0 -0.16592765686E+02 -0.24054237433E+02  0.11482352185E+02  0.31396984302E+02  0.00000000000E+00 0.  1.
         14    1    6    6    0    0 -0.16594964524E+02 -0.57287826273E+02 -0.99874800522E+02  0.11632825824E+03  0.00000000000E+00 0. -1.
         -5    1    3    3    0  503 -0.36797642415E+02 -0.77223469129E+01 -0.10010557483E+03  0.10703699006E+03  0.47000000000E+01 0.  1.
         11    1    4    4    0    0 -0.21309646747E+02  0.73211311152E+02 -0.13973215923E+02  0.77519338802E+02  0.00000000000E+00 0. -1.
        -12    1    4    4    0    0  0.19128959891E+02  0.90488472911E+01  0.19162021833E+02  0.28547886517E+02  0.00000000000E+00 0.  1.
</event>
<event>
12    1  0.8053217E-002  0.2215059E+03  0.7818608E-02  0.1132866E+00
         21   -1    0    0  503  502  0.00000000000E+00  0.00000000000E+00  0.83386240982E+02  0.83386240982E+02  0.00000000000E+00 0. -1.
         21   -1    0    0  501  503 -0.00000000000E+00 -0.00000000000E+00 -0.69221508884E+03  0.69221508884E+03  0.00000000000E+00 0. -1.
          6    2    1    2  501    0 -0.11148367005E+01  0.13830908980E+03 -0.45594691440E+03  0.50690477376E+03  0.17301506794E+03 0.  0.
         24    2    3    3    0    0  0.41772770770E+02  0.11648600780E+03 -0.21203913056E+03  0.25825101691E+03  0.80118914460E+02 0.  0.
         -6    2    1    2    0  502  0.11148367005E+01 -0.13830908980E+03 -0.15288193346E+03  0.26869655606E+03  0.17232036001E+03 0.  0.
        -24    2    5    5    0    0  0.27361932923E+02 -0.58745776802E+02 -0.39179346188E+01  0.97724061815E+02  0.73040402385E+02 0.  0.
          5    1    3    3  501    0 -0.42887607470E+02  0.21823082001E+02 -0.24390778383E+03  0.24865375685E+03  0.47000000000E+01 0. -1.
        -13    1    4    4    0    0  0.60769027737E+02  0.69720833185E+02 -0.16552594038E+03  0.18961198867E+03  0.00000000000E+00 0.  1.
         14    1    4    4    0    0 -0.18996256967E+02  0.46765174618E+02 -0.46513190187E+02  0.68639028236E+02  0.00000000000E+00 0. -1.
         -5    1    5    5    0  502 -0.26247096223E+02 -0.79563313002E+02 -0.14896399884E+03  0.17097249424E+03  0.47000000000E+01 0.  1.
         13    1    6    6    0    0 -0.15221338439E+02 -0.51087746111E+02 -0.93403470377E+01  0.54119211278E+02  0.00000000000E+00 0. -1.
        -14    1    6    6    0    0  0.42583271362E+02 -0.76580306913E+01  0.54224124189E+01  0.43604850537E+02  0.00000000000E+00 0.  1.
</event>
<event>
12    1  0.8053217E-002  0.1809303E+03  0.7818608E-02  0.1167363E+00
         21   -1    0    0  501  502  0.00000000000E+00  0.00000000000E+00  0.30436385984E+03  0.30436385984E+03  0.00000000000E+00 0.  1.
         21   -1    0    0  502  503 -0.00000000000E+00 -0.00000000000E+00 -0.16065798755E+03  0.16065798755E+03  0.00000000000E+00 0.  1.
         -6    2    1    2    0  503  0.56753020306E+02 -0.64154859997E+01 -0.63477800892E+02  0.18995668810E+03  0.16968219816E+03 0.  0.
        -24    2    3    3    0    0 -0.27270885439E+02 -0.27221966027E+02 -0.66850459775E+02  0.10320191200E+03  0.68534035645E+02 0.  0.
          6    2    1    2  501    0 -0.56753020306E+02  0.64154859997E+01  0.20718367319E+03  0.27506515929E+03  0.17167907166E+03 0.  0.
         24    2    5    5    0    0 -0.68867531666E+02 -0.10027627824E+02  0.22414514801E+03  0.24810372376E+03  0.80443272762E+02 0.  0.
          5    1    5    5  501    0  0.12114511360E+02  0.16443113824E+02 -0.16961474820E+02  0.26961435529E+02  0.47000000000E+01 0. -1.
        -13    1    6    6    0    0 -0.68117638520E+02 -0.27610679309E+02  0.10803397737E+03  0.13066637883E+03  0.00000000000E+00 0.  1.
         14    1    6    6    0    0 -0.74989314661E+00  0.17583051484E+02  0.11611117063E+03  0.11743734493E+03  0.00000000000E+00 0. -1.
         -5    1    3    3    0  503  0.84023905745E+02  0.20806480027E+02  0.33726588834E+01  0.86754776098E+02  0.47000000000E+01 0.  1.
         13    1    4    4    0    0  0.33207910646E+01 -0.39361105125E+02 -0.56034822815E+02  0.68558191472E+02  0.00000000000E+00 0. -1.
        -14    1    4    4    0    0 -0.30591676503E+02  0.12139139098E+02 -0.10815636961E+02  0.34643720531E+02  0.00000000000E+00 0.  1.
</event>
<event>
12    1  0.8053217E-002  0.1989124E+03  0.7818608E-02  0.1150790E+00
         21   -1    0    0  501  502  0.00000000000E+00  0.00000000000E+00  0.44663489937E+03  0.44663489937E+03  0.00000000000E+00 0.  1.
         21   -1    0    0  502  503 -0.00000000000E+00 -0.00000000000E+00 -0.14584906696E+03  0.14584906696E+03  0.00000000000E+00 0. -1.
         -6    2    1    2    0  503  0.98802017995E+02  0.76084828757E+01  0.33659563145E+03  0.39097667452E+03  0.17247148498E+03 0.  0.
        -24    2    3    3    0    0  0.10752263800E+03 -0.47910785215E+02  0.23615413688E+03  0.27578543277E+03  0.80201418569E+02 0.  0.
          6    2    1    2  501    0 -0.98802017995E+02 -0.76084828757E+01 -0.35809799042E+02  0.20150729181E+03  0.17176472040E+03 0.  0.
         24    2    5    5    0    0 -0.27615433074E+02  0.44807007761E+02 -0.54107621603E+02  0.11110920642E+03  0.81531226824E+02 0.  0.
          5    1    5    5  501    0 -0.71186584921E+02 -0.52415490637E+02  0.18297822561E+02  0.90398085388E+02  0.47000000000E+01 0. -1.
        -13    1    6    6    0    0 -0.22199539240E+02  0.42547853665E+02  0.80617930946E+01  0.48663455507E+02  0.00000000000E+00 0.  1.
         14    1    6    6    0    0 -0.54158938339E+01  0.22591540955E+01 -0.62169414697E+02  0.62445750913E+02  0.00000000000E+00 0. -1.
         -5    1    3    3    0  503 -0.87206200080E+01  0.55519268091E+02  0.10044149457E+03  0.11519124174E+03  0.47000000000E+01 0.  1.
         13    1    4    4    0    0  0.16604248087E+02 -0.48223129036E+02  0.73826142284E+02  0.89729986699E+02  0.00000000000E+00 0. -1.
        -14    1    4    4    0    0  0.90918389916E+02  0.31234382068E+00  0.16232799460E+03  0.18605544608E+03  0.00000000000E+00 0.  1.
</event>
<event>
12    1  0.8053217E-002  0.1935562E+03  0.7818608E-02  0.1155627E+00
         21   -1    0    0  503  502  0.00000000000E+00  0.00000000000E+00  0.76949378780E+02  0.76949378780E+02  0.00000000000E+00 0. -1.
         21   -1    0    0  501  503 -0.00000000000E+00 -0.00000000000E+00 -0.48318704473E+03  0.48318704473E+03  0.00000000000E+00 0.  1.
          6    2    1    2  501    0  0.71045967556E+02 -0.48109646886E+02 -0.19793212425E+03  0.27578595650E+03  0.17181007061E+03 0.  0.
         24    2    3    3    0    0  0.52810388474E+02 -0.84160285672E+02 -0.19737074520E+03  0.23510930414E+03  0.80307428150E+02 0.  0.
         -6    2    1    2    0  502 -0.71045967556E+02  0.48109646886E+02 -0.20830554169E+03  0.28435046701E+03  0.17349905405E+03 0.  0.
        -24    2    5    5    0    0 -0.65472829809E+02  0.34914414980E+02 -0.39939356432E+02  0.11531071917E+03  0.78712781339E+02 0.  0.
          5    1    3    3  501    0  0.18235579082E+02  0.36050638786E+02 -0.56137905669E+00  0.40676652367E+02  0.47000000000E+01 0. -1.
        -13    1    4    4    0    0 -0.11902712334E+02 -0.54518607505E+02 -0.74063298283E+02  0.92732547025E+02  0.00000000000E+00 0.  1.
         14    1    4    4    0    0  0.64713100808E+02 -0.29641678167E+02 -0.12330744691E+03  0.14237675711E+03  0.00000000000E+00 0. -1.
         -5    1    5    5    0  502 -0.55731377477E+01  0.13195231906E+02 -0.16836618526E+03  0.16903974784E+03  0.47000000000E+01 0.  1.
         13    1    6    6    0    0 -0.41911812179E+01  0.42798858899E+02 -0.25223289342E+01  0.43077493733E+02  0.00000000000E+00 0. -1.
        -14    1    6    6    0    0 -0.61281648591E+02 -0.78844439187E+01 -0.37417027498E+02  0.72233225434E+02  0.00000000000E+00 0.  1.
</event>
<event>
12    1  0.8053217E-002  0.2115423E+03  0.7818608E-02  0.1140379E+00
         21   -1    0    0  503  502  0.00000000000E+00  0.00000000000E+00  0.56429941975E+03  0.56429941975E+03  0.00000000000E+00 0. -1.
         21   -1    0    0  501  503 -0.00000000000E+00 -0.00000000000E+00 -0.80142744827E+02  0.80142744827E+02  0.00000000000E+00 0.  1.
          6    2    1    2  501    0  0.12986450368E+02 -0.12293197652E+03  0.20794450692E+03  0.29652937957E+03  0.17148713143E+03 0.  0.
         24    2    3    3    0    0 -0.75463803446E+01 -0.55722186600E+02  0.20443013197E+03  0.22600850444E+03  0.78270398535E+02 0.  0.
         -6    2    1    2    0  502 -0.12986450368E+02  0.12293197652E+03  0.27621216800E+03  0.34791278500E+03  0.17166602889E+03 0.  0.
        -24    2    5    5    0    0  0.55492084885E+02  0.43903526248E+02  0.14009091567E+03  0.17619822220E+03  0.80084066782E+02 0.  0.
          5    1    3    3  501    0  0.20532830713E+02 -0.67209789920E+02  0.35143749577E+01  0.70520875133E+02  0.47000000000E+01 0. -1.
        -13    1    4    4    0    0 -0.49382600085E+01 -0.66105869048E+02  0.93791244987E+02  0.11485281873E+03  0.00000000000E+00 0.  1.
         14    1    4    4    0    0 -0.26081203361E+01  0.10383682447E+02  0.11063888698E+03  0.11115568571E+03  0.00000000000E+00 0. -1.
         -5    1    5    5    0  502 -0.68478535253E+02  0.79028450272E+02  0.13612125233E+03  0.17171456280E+03  0.47000000000E+01 0.  1.
         13    1    6    6    0    0  0.15411255280E+02  0.60441447844E+02  0.69792606153E+02  0.93603863598E+02  0.00000000000E+00 0. -1.
        -14    1    6    6    0    0  0.40080829605E+02 -0.16537921595E+02  0.70298309515E+02  0.82594358604E+02  0.00000000000E+00 0.  1.
</event>
<event>
12    1  0.8053217E-002  0.3934190E+03  0.7818608E-02  0.1046157E+00
         21   -1    0    0  501  502  0.00000000000E+00  0.00000000000E+00  0.10352232301E+03  0.10352232301E+03  0.00000000000E+00 0. -1.
         21   -1    0    0  502  503 -0.00000000000E+00 -0.00000000000E+00 -0.16385524447E+04  0.16385524447E+04  0.00000000000E+00 0. -1.
         -6    2    1    2    0  503 -0.55858872310E+02  0.34897975769E+03 -0.50771073195E+03  0.64229956391E+03  0.17283361235E+03 0.  0.
        -24    2    3    3    0    0 -0.38367628223E+02  0.16998969674E+03 -0.14940222214E+03  0.24136258165E+03  0.74607639994E+02 0.  0.
          6    2    1    2  501    0  0.55858872310E+02 -0.34897975769E+03 -0.10273193898E+04  0.10997752038E+04  0.17091894423E+03 0.  0.
         24    2    5    5    0    0  0.23633715270E+02 -0.34203737004E+03 -0.85969957213E+03  0.92888005833E+03  0.78655536690E+02 0.  0.
          5    1    5    5  501    0  0.32225157041E+02 -0.69423876566E+01 -0.16761981765E+03  0.17089514552E+03  0.47000000000E+01 0.  1.
        -13    1    6    6    0    0 -0.85469114462E+01 -0.21992823886E+03 -0.46469991653E+03  0.51418624288E+03  0.00000000000E+00 0.  1.
         14    1    6    6    0    0  0.32180626716E+02 -0.12210913117E+03 -0.39499965560E+03  0.41469381545E+03  0.00000000000E+00 0. -1.
         -5    1    3    3    0  503 -0.17491244088E+02  0.17899006095E+03 -0.35830850981E+03  0.40093698226E+03  0.47000000000E+01 0.  1.
         11    1    4    4    0    0  0.53064109174E+01  0.12086240753E+03 -0.76192394157E+02  0.14297258646E+03  0.00000000000E+00 0. -1.
        -12    1    4    4    0    0 -0.43674039140E+02  0.49127289208E+02 -0.73209827986E+02  0.98389995190E+02  0.00000000000E+00 0.  1.
</event>
<event>
12    1  0.8053217E-002  0.1824877E+03  0.7818608E-02  0.1165424E+00
         21   -1    0    0  503  502  0.00000000000E+00  0.00000000000E+00  0.20594726131E+04  0.20594726131E+04  0.00000000000E+00 0. -1.
         21   -1    0    0  501  503 -0.00000000000E+00 -0.00000000000E+00 -0.30587201447E+02  0.30587201447E+02  0.00000000000E+00 0. -1.
          6    2    1    2  501    0  0.48710135089E+02  0.38208829911E+02  0.29696010597E+03  0.34854996601E+03  0.17166590320E+03 0.  0.
         24    2    3    3    0    0  0.22693858261E+02  0.79999533270E+02  0.26658276913E+03  0.29051392427E+03  0.80106372211E+02 0.  0.
         -6    2    1    2    0  502 -0.48710135089E+02 -0.38208829911E+02  0.17319253057E+04  0.17415098486E+04  0.17163535813E+03 0.  0.
        -24    2    5    5    0    0  0.15823435366E+02 -0.52058376101E+02  0.13847397088E+04  0.13880748187E+04  0.79291774600E+02 0.  0.
          5    1    3    3  501    0  0.26016276828E+02 -0.41790703359E+02  0.30377336838E+02  0.58036041738E+02  0.47000000000E+01 0. -1.
        -11    1    4    4    0    0 -0.18174725084E+01 -0.14792679992E+02  0.61178058816E+02  0.62967304756E+02  0.00000000000E+00 0.  1.
         12    1    4    4    0    0  0.24511330770E+02  0.94792213262E+02  0.20540471032E+03  0.22754661951E+03  0.00000000000E+00 0. -1.
         -5    1    5    5    0  502 -0.64533570455E+02  0.13849546190E+02  0.34718559692E+03  0.35343502989E+03  0.47000000000E+01 0.  1.
         11    1    6    6    0    0 -0.24919052814E+02 -0.26302037641E+02  0.28708825992E+03  0.28936555662E+03  0.00000000000E+00 0. -1.
        -12    1    6    6    0    0  0.40742488179E+02 -0.25756338460E+02  0.10976514489E+04  0.10987092621E+04  0.00000000000E+00 0.  1.
</event>
<event>
12    1  0.8053217E-002  0.1779232E+03  0.7818608E-02  0.1171184E+00
         21   -1    0    0  503  502  0.00000000000E+00  0.00000000000E+00  0.93545467622E+02  0.93545467622E+02  0.00000000000E+00 0. -1.
         21   -1    0    0  501  503 -0.00000000000E+00 -0.00000000000E+00 -0.38109931328E+03  0.38109931328E+03  0.00000000000E+00 0. -1.
          6    2    1    2  501    0 -0.79147521823E+01  0.13566276846E+01 -0.23030011691E+03  0.28773666356E+03  0.17230716748E+03 0.  0.
         24    2    3    3    0    0 -0.27177962799E+02 -0.28746076092E+02 -0.23526244020E+03  0.25135042013E+03  0.79143157497E+02 0.  0.
         -6    2    1    2    0  502  0.79147521823E+01 -0.13566276846E+01 -0.57253728749E+02  0.18690811734E+03  0.17774186657E+03 0.  0.
        -24    2    5    5    0    0 -0.31482373781E+02 -0.29262732502E+02 -0.89310298936E+02  0.12876520795E+03  0.82199160034E+02 0.  0.
          5    1    3    3  501    0  0.19263210617E+02  0.30102703776E+02  0.49623232966E+01  0.36386243423E+02  0.47000000000E+01 0. -1.
        -13    1    4    4    0    0 -0.49831063661E+02  0.24898366318E+01 -0.13315746330E+03  0.14219790513E+03  0.00000000000E+00 0.  1.
         14    1    4    4    0    0  0.22653100862E+02 -0.31235912724E+02 -0.10210497691E+03  0.10915251500E+03  0.00000000000E+00 0. -1.
         -5    1    5    5    0  502  0.39397125964E+02  0.27906104817E+02  0.32056570187E+02  0.58142909391E+02  0.47000000000E+01 0.  1.
         11    1    6    6    0    0 -0.38918134410E+02 -0.16550056131E+02 -0.43230892512E+01  0.42511347245E+02  0.00000000000E+00 0. -1.
        -12    1    6    6    0    0  0.74357606292E+01 -0.12712676370E+02 -0.84987209685E+02  0.86253860706E+02  0.00000000000E+00 0.  1.
</event>
<event>
12    1  0.8053217E-002  0.2196684E+03  0.7818608E-02  0.1134905E+00
         21   -1    0    0  503  502  0.00000000000E+00  0.00000000000E+00  0.34971775761E+03  0.34971775761E+03  0.00000000000E+00 0. -1.
         21   -1    0    0  501  503 -0.00000000000E+00 -0.00000000000E+00 -0.13601546092E+03  0.13601546092E+03  0.00000000000E+00 0.  1.
          6    2    1    2  501    0  0.31313307048E+02  0.12041199231E+03  0.91706766545E+02  0.23804267592E+03  0.18103760228E+03 0.  0.
         24    2    3    3    0    0  0.66740823442E+02  0.14016708420E+03  0.91890782918E+02  0.19720768559E+03  0.79660569077E+02 0.  0.
         -6    2    1    2    0  502 -0.31313307048E+02 -0.12041199231E+03  0.12199553015E+03  0.24769054261E+03  0.17603444104E+03 0.  0.
        -24    2    5    5    0    0  0.27271591905E+02 -0.12861238981E+02  0.84372055424E+02  0.11948379249E+03  0.79047971112E+02 0.  0.
          5    1    3    3  501    0 -0.35427516394E+02 -0.19755091885E+02 -0.18401637260E+00  0.40834990330E+02  0.47000000000E+01 0. -1.
        -13    1    4    4    0    0 -0.45096217775E+01 -0.81964070740E+01  0.16273873573E+01  0.94955867175E+01  0.00000000000E+00 0.  1.
         14    1    4    4    0    0  0.71250445220E+02  0.14836349127E+03  0.90263395561E+02  0.18771209887E+03  0.00000000000E+00 0. -1.
         -5    1    5    5    0  502 -0.58584898953E+02 -0.10755075333E+03  0.37623474721E+02  0.12820675012E+03  0.47000000000E+01 0.  1.
         13    1    6    6    0    0 -0.34221740662E+01 -0.41842724533E+02  0.47922598114E+02  0.63711068753E+02  0.00000000000E+00 0. -1.
        -14    1    6    6    0    0  0.30693765971E+02  0.28981485552E+02  0.36449457310E+02  0.55772723732E+02  0.00000000000E+00 0.  1.
</event>
<event>
12    1  0.8053217E-002  0.2685875E+03  0.7818608E-02  0.1102241E+00
         21   -1    0    0  503  502  0.00000000000E+00  0.00000000000E+00  0.20729226784E+03  0.20729226784E+03  0.00000000000E+00 0. -1.
         21   -1    0    0  501  503 -0.00000000000E+00 -0.00000000000E+00 -0.41937559689E+03  0.41937559689E+03  0.00000000000E+00 0.  1.
          6    2    1    2  501    0  0.66477159535E+02  0.19553350805E+03 -0.23668603270E+03  0.35799376405E+03  0.17171689350E+03 0.  0.
         24    2    3    3    0    0  0.68123966454E+02  0.70550539832E+02 -0.18280678740E+03  0.22180082227E+03  0.78479486244E+02 0.  0.
         -6    2    1    2    0  502 -0.66477159535E+02 -0.19553350805E+03  0.24602703652E+02  0.26867410067E+03  0.17008207970E+03 0.  0.
        -24    2    5    5    0    0 -0.36561350788E+02 -0.21428526150E+02  0.22469425790E+02  0.91942266501E+02  0.78438454661E+02 0.  0.
          5    1    3    3  501    0 -0.16468069187E+01  0.12498296822E+03 -0.53879245298E+02  0.13619294178E+03  0.47000000000E+01 0. -1.
        -11    1    4    4    0    0  0.19940174920E+02 -0.14244971928E+01 -0.53717562519E+00  0.19998208063E+02  0.00000000000E+00 0.  1.
         12    1    4    4    0    0  0.48183791534E+02  0.71975037024E+02 -0.18226961178E+03  0.20180261420E+03  0.00000000000E+00 0. -1.
         -5    1    5    5    0  502 -0.29915808747E+02 -0.17410498190E+03  0.21332778619E+01  0.17673183417E+03  0.47000000000E+01 0.  1.
         11    1    6    6    0    0 -0.35589369487E+00 -0.21975594483E+02  0.44447506741E+02  0.49584617259E+02  0.00000000000E+00 0. -1.
        -12    1    6    6    0    0 -0.36205457093E+02  0.54706833319E+00 -0.21978080951E+02  0.42357649243E+02  0.00000000000E+00 0.  1.
</event>
<event>
12    1  0.8053217E-002  0.1834064E+03  0.7818608E-02  0.1165176E+00
         21   -1    0    0  501  502  0.00000000000E+00  0.00000000000E+00  0.10014112915E+03  0.10014112915E+03  0.00000000000E+00 0.  1.
         21   -1    0    0  502  503 -0.00000000000E+00 -0.00000000000E+00 -0.38194484340E+03  0.38194484340E+03  0.00000000000E+00 0.  1.
         -6    2    1    2    0  503  0.12229111992E+01  0.62419935122E+02 -0.22975287518E+03  0.29398009020E+03  0.17245337330E+03 0.  0.
        -24    2    3    3    0    0  0.63356886891E+01  0.22612042179E+02 -0.27364625437E+02  0.87597187634E+02  0.79831066343E+02 0.  0.
          6    2    1    2  501    0 -0.12229111992E+01 -0.62419935122E+02 -0.52050839069E+02  0.18810588235E+03  0.16963722857E+03 0.  0.
         24    2    5    5    0    0  0.46748869673E+02 -0.83864896816E+02 -0.20402261082E+02  0.12658433628E+03  0.79928494303E+02 0.  0.
          5    1    5    5  501    0 -0.47971780872E+02  0.21444961694E+02 -0.31648577987E+02  0.61521546069E+02  0.47000000000E+01 0. -1.
        -13    1    6    6    0    0  0.18050732911E+02 -0.77561516284E+02  0.14518478275E+02  0.80946920746E+02  0.00000000000E+00 0.  1.
         14    1    6    6    0    0  0.28698136762E+02 -0.63033805320E+01 -0.34920739357E+02  0.45637415538E+02  0.00000000000E+00 0. -1.
         -5    1    3    3    0  503 -0.51127774900E+01  0.39807892943E+02 -0.20238824975E+03  0.20638290256E+03  0.47000000000E+01 0.  1.
         11    1    4    4    0    0  0.36975016777E+02 -0.48844538371E+01  0.14863986513E+01  0.37325850773E+02  0.00000000000E+00 0. -1.
        -12    1    4    4    0    0 -0.30639328088E+02  0.27496496016E+02 -0.28851024088E+02  0.50271336861E+02  0.00000000000E+00 0.  1.
</event>
<event>
12    1  0.8053217E-002  0.2154566E+03  0.7818608E-02  0.1137556E+00
         21   -1    0    0  501  502  0.00000000000E+00  0.00000000000E+00  0.70121104071E+02  0.70121104071E+02  0.00000000000E+00 0.  1.
         21   -1    0    0  502  503 -0.00000000000E+00 -0.00000000000E+00 -0.65841757168E+03  0.65841757168E+03  0.00000000000E+00 0.  1.
         -6    2    1    2    0  503  0.18802092345E+02  0.12644010468E+03 -0.30175207991E+03  0.37077735537E+03  0.17343849279E+03 0.  0.
        -24    2    3    3    0    0  0.65271891606E+02  0.40547515639E+02 -0.18406423480E+03  0.21777572799E+03  0.87419130118E+02 0.  0.
          6    2    1    2  501    0 -0.18802092345E+02 -0.12644010468E+03 -0.28654438770E+03  0.35776132037E+03  0.17188617596E+03 0.  0.
         24    2    5    5    0    0 -0.30649759539E+02 -0.14159899539E+03 -0.16230481128E+03  0.23195304746E+03  0.80434328526E+02 0.  0.
          5    1    5    5  501    0  0.11847667194E+02  0.15158890706E+02 -0.12423957642E+03  0.12580827292E+03  0.47000000000E+01 0. -1.
        -13    1    6    6    0    0 -0.33388346776E+02 -0.12211891145E+03 -0.16901126217E+03  0.21116964028E+03  0.00000000000E+00 0.  1.
         14    1    6    6    0    0  0.27385872374E+01 -0.19480083941E+02  0.67064508940E+01  0.20783407180E+02  0.00000000000E+00 0. -1.
         -5    1    3    3    0  503 -0.46469799261E+02  0.85892589045E+02 -0.11768784511E+03  0.15300162739E+03  0.47000000000E+01 0.  1.
         13    1    4    4    0    0  0.31100946134E+02 -0.25277550909E+02 -0.85476661825E+02  0.94405948685E+02  0.00000000000E+00 0. -1.
        -14    1    4    4    0    0  0.34170945471E+02  0.65825066548E+02 -0.98587572971E+02  0.12336977930E+03  0.00000000000E+00 0.  1.
</event>
<event>
12    1  0.8053217E-002  0.1853594E+03  0.7818608E-02  0.1163125E+00
         21   -1    0    0  501  502  0.00000000000E+00  0.00000000000E+00  0.45424978124E+03  0.45424978124E+03  0.00000000000E+00 0. -1.
         21   -1    0    0  502  503 -0.00000000000E+00 -0.00000000000E+00 -0.15546507470E+03  0.15546507470E+03  0.00000000000E+00 0. -1.
         -6    2    1    2    0  503 -0.21547509991E+02 -0.62948443860E+02 -0.70375016412E+02  0.19663255069E+03  0.17112835909E+03 0.  0.
        -24    2    3    3    0    0 -0.40293652894E+02 -0.36337858515E+02 -0.10915368536E+03  0.14578556168E+03  0.79968021981E+02 0.  0.
          6    2    1    2  501    0  0.21547509991E+02  0.62948443860E+02  0.36915972295E+03  0.41308230524E+03  0.17300661284E+03 0.  0.
         24    2    5    5    0    0  0.20526083862E+02  0.37995307092E+02  0.37605502265E+03  0.38675100251E+03  0.79334698567E+02 0.  0.
          5    1    5    5  501    0  0.10214261290E+01  0.24953136768E+02 -0.68952997031E+01  0.26331302738E+02  0.47000000000E+01 0. -1.
        -11    1    6    6    0    0 -0.26453861922E+02  0.30137321843E+02  0.12695210688E+03  0.13313490308E+03  0.00000000000E+00 0.  1.
         12    1    6    6    0    0  0.46979945784E+02  0.78579852486E+01  0.24910291578E+03  0.25361609942E+03  0.00000000000E+00 0. -1.
         -5    1    3    3    0  503  0.18746142903E+02 -0.26610585345E+02  0.38778668951E+02  0.50846989014E+02  0.47000000000E+01 0.  1.
         13    1    4    4    0    0 -0.10096332237E+02 -0.70698742485E+01  0.12205748568E+02  0.17346450491E+02  0.00000000000E+00 0. -1.
        -14    1    4    4    0    0 -0.30197320657E+02 -0.29267984267E+02 -0.12135943393E+03  0.12843911118E+03  0.00000000000E+00 0.  1.
</event>
<event>
12    1  0.8053217E-002  0.3093828E+03  0.7818608E-02  0.1080855E+00
         21   -1    0    0  501  502  0.00000000000E+00  0.00000000000E+00  0.12600631742E+03  0.12600631742E+03  0.00000000000E+00 0.  1.
         21   -1    0    0  502  503 -0.00000000000E+00 -0.00000000000E+00 -0.78355269143E+03  0.78355269143E+03  0.00000000000E+00 0. -1.
         -6    2    1    2    0  503  0.20860637673E+03 -0.14968776683E+03 -0.24331435556E+03  0.39359826761E+03  0.17261133420E+03 0.  0.
        -24    2    3    3    0    0  0.49831270857E+02 -0.32760453509E+02 -0.32223977582E+02  0.10469903168E+03  0.79794107767E+02 0.  0.
          6    2    1    2  501    0 -0.20860637673E+03  0.14968776683E+03 -0.41423201845E+03  0.51596074124E+03  0.16942335566E+03 0.  0.
         24    2    5    5    0    0 -0.19780997229E+03  0.17331726411E+03 -0.40137526813E+03  0.48659577029E+03  0.80657787112E+02 0.  0.
          5    1    5    5  501    0 -0.10796404438E+02 -0.23629497272E+02 -0.12856750312E+02  0.29364970947E+02  0.47000000000E+01 0. -1.
        -13    1    6    6    0    0 -0.29103841346E+02 -0.96369315403E+00 -0.22819397099E+02  0.36995772320E+02  0.00000000000E+00 0.  1.
         14    1    6    6    0    0 -0.16870613094E+03  0.17428095726E+03 -0.37855587103E+03  0.44959999797E+03  0.00000000000E+00 0. -1.
         -5    1    3    3    0  503  0.15877510587E+03 -0.11692731333E+03 -0.21109037798E+03  0.28889923593E+03  0.47000000000E+01 0.  1.
         11    1    4    4    0    0 -0.22083232553E+02 -0.61504947537E+01 -0.66990388942E+01  0.23882522225E+02  0.00000000000E+00 0. -1.
        -12    1    4    4    0    0  0.71914503410E+02 -0.26609958755E+02 -0.25524938688E+02  0.80816509456E+02  0.00000000000E+00 0.  1.
</event>
<event>
12    1  0.8053217E-002  0.2159089E+03  0.7818608E-02  0.1137984E+00
         21   -1    0    0  501  502  0.00000000000E+00  0.00000000000E+00  0.21530606882E+03  0.21530606882E+03  0.00000000000E+00 0.  1.
         21   -1    0    0  502  503 -0.00000000000E+00 -0.00000000000E+00 -0.24729109479E+03  0.24729109479E+03  0.00000000000E+00 0. -1.
         -6    2    1    2    0  503 -0.14740204371E+02 -0.12937207079E+03  0.72086267122E+02  0.22762485964E+03  0.17222729311E+03 0.  0.
        -24    2    3    3    0    0  0.44960065263E+01 -0.16010668807E+03  0.62754633953E+02  0.18989134818E+03  0.80412775037E+02 0.  0.
          6    2    1    2  501    0  0.14740204371E+02  0.12937207079E+03 -0.10407129309E+03  0.23497230397E+03  0.16561021485E+03 0.  0.
         24    2    5    5    0    0 -0.10715087608E+02  0.94497161374E+02 -0.30173391743E+01  0.12498038245E+03  0.81033727870E+02 0.  0.
          5    1    5    5  501    0  0.25455291979E+02  0.34874909415E+02 -0.10105395392E+03  0.10999192152E+03  0.47000000000E+01 0. -1.
        -13    1    6    6    0    0  0.14281330513E+02  0.98526053382E+02 -0.40774668159E+01  0.99639175689E+02  0.00000000000E+00 0.  1.
         14    1    6    6    0    0 -0.24996418121E+02 -0.40288920085E+01  0.10601276415E+01  0.25341206765E+02  0.00000000000E+00 0. -1.
         -5    1    3    3    0  503 -0.19236210897E+02  0.30734617287E+02  0.93316331690E+01  0.37733511459E+02  0.47000000000E+01 0.  1.
         11    1    4    4    0    0  0.41065132135E+02 -0.60551487943E+02  0.25604192115E+02  0.77513885357E+02  0.00000000000E+00 0. -1.
        -12    1    4    4    0    0 -0.36569125609E+02 -0.99555200132E+02  0.37150441838E+02  0.11237746282E+03  0.00000000000E+00 0.  1.
</event>
<event>
12    1  0.8053217E-002  0.2124557E+03  0.7818608E-02  0.1140780E+00
         21   -1    0    0  501  502  0.00000000000E+00  0.00000000000E+00  0.54410180179E+03  0.54410180179E+03  0.00000000000E+00 0.  1.
         21   -1    0    0  502  503 -0.00000000000E+00 -0.00000000000E+00 -0.10330286237E+03  0.10330286237E+03  0.00000000000E+00 0. -1.
         -6    2    1    2    0  503 -0.97031554491E+02 -0.77604265305E+02  0.66674773093E+02  0.21716481950E+03  0.16515898068E+03 0.  0.
        -24    2    3    3    0    0 -0.42382415548E+02 -0.55793386575E+02  0.10059616378E+03  0.14908403245E+03  0.84836840061E+02 0.  0.
          6    2    1    2  501    0  0.97031554491E+02  0.77604265305E+02  0.37412416633E+03  0.43023984466E+03  0.17233655313E+03 0.  0.
         24    2    5    5    0    0  0.60429382380E+02  0.21316196600E+02  0.85838997228E+02  0.13420184980E+03  0.80843753943E+02 0.  0.
          5    1    5    5  501    0  0.36602172111E+02  0.56288068705E+02  0.28828516910E+03  0.29603799487E+03  0.47000000000E+01 0. -1.
        -13    1    6    6    0    0  0.42866827014E+02  0.50747186842E+02  0.69812043073E+02  0.96366815806E+02  0.00000000000E+00 0.  1.
         14    1    6    6    0    0  0.17562555366E+02 -0.29430990242E+02  0.16026954156E+02  0.37835033992E+02  0.00000000000E+00 0. -1.
         -5    1    3    3    0  503 -0.54649138943E+02 -0.21810878730E+02 -0.33921390690E+02  0.68080787044E+02  0.47000000000E+01 0.  1.
         11    1    4    4    0    0  0.42641369566E+01 -0.15904843701E+02 -0.12320057598E+02  0.20565279876E+02  0.00000000000E+00 0. -1.
        -12    1    4    4    0    0 -0.46646552504E+02 -0.39888542874E+02  0.11291622138E+03  0.12851875258E+03  0.00000000000E+00 0.  1.
</event>
<event>
12    1  0.8053217E-002  0.1866908E+03  0.7818608E-02  0.1161536E+00
         21   -1    0    0  503  502  0.00000000000E+00  0.00000000000E+00  0.39353209710E+03  0.39353209710E+03  0.00000000000E+00 0. -1.
         21   -1    0    0  501  503 -0.00000000000E+00 -0.00000000000E+00 -0.13151936918E+03  0.13151936918E+03  0.00000000000E+00 0. -1.
          6    2    1    2  501    0 -0.27113247618E+01 -0.70787890351E+02 -0.19166979465E+02  0.18767210105E+03  0.17272859551E+03 0.  0.
         24    2    3    3    0    0 -0.35227661163E+02 -0.41398146526E+02  0.48201124293E+02  0.10716358858E+03  0.78777482112E+02 0.  0.
         -6    2    1    2    0  502  0.27113247618E+01  0.70787890351E+02  0.28117970738E+03  0.33737936524E+03  0.17246603011E+03 0.  0.
        -24    2    5    5    0    0  0.67289658103E+00  0.11667605592E+03  0.19736872569E+03  0.24169107138E+03  0.76461789740E+02 0.  0.
          5    1    3    3  501    0  0.32516336401E+02 -0.29389743825E+02 -0.67368103758E+02  0.80508512463E+02  0.47000000000E+01 0. -1.
        -11    1    4    4    0    0  0.69121514566E+01  0.19983425723E+02  0.85409792230E+01  0.22804900076E+02  0.00000000000E+00 0.  1.
         12    1    4    4    0    0 -0.42139812620E+02 -0.61381572250E+02  0.39660145070E+02  0.84358688506E+02  0.00000000000E+00 0. -1.
         -5    1    5    5    0  502  0.20384281808E+01 -0.45888165569E+02  0.83810981695E+02  0.95688293858E+02  0.47000000000E+01 0.  1.
         11    1    6    6    0    0  0.28084192050E+02  0.73169489267E+02  0.72975325684E+02  0.10708825408E+03  0.00000000000E+00 0. -1.
        -12    1    6    6    0    0 -0.27411295469E+02  0.43506566654E+02  0.12439340001E+03  0.13460281730E+03  0.00000000000E+00 0.  1.
</event>
<event>
12    1  0.8053217E-002  0.2087804E+03  0.7818608E-02  0.1142585E+00
         21   -1    0    0  503  502  0.00000000000E+00  0.00000000000E+00  0.41631719358E+02  0.41631719358E+02  0.00000000000E+00 0. -1.
         21   -1    0    0  501  503 -0.00000000000E+00 -0.00000000000E+00 -0.10512768746E+04  0.10512768746E+04  0.00000000000E+00 0. -1.
          6    2    1    2  501    0  0.10543097060E+03  0.53634481557E+02 -0.46559026752E+03  0.51025830246E+03  0.17203746931E+03 0.  0.
         24    2    3    3    0    0  0.91031243559E+00  0.45203180939E+02 -0.30389881376E+03  0.31748415732E+03  0.79984654236E+02 0.  0.
         -6    2    1    2    0  502 -0.10543097060E+03 -0.53634481557E+02 -0.54405488773E+03  0.58265029151E+03  0.17173611779E+03 0.  0.
        -24    2    5    5    0    0 -0.76102247140E+02  0.21124181464E+02 -0.19911842307E+03  0.22845784895E+03  0.79416996136E+02 0.  0.
          5    1    3    3  501    0  0.10452065817E+03  0.84313006177E+01 -0.16169145377E+03  0.19277414514E+03  0.47000000000E+01 0. -1.
        -11    1    4    4    0    0 -0.25495764711E+02  0.33576300354E+02 -0.69291045790E+02  0.81108883548E+02  0.00000000000E+00 0.  1.
         12    1    4    4    0    0  0.26406077147E+02  0.11626880584E+02 -0.23460776797E+03  0.23637527378E+03  0.00000000000E+00 0. -1.
         -5    1    5    5    0  502 -0.29328723462E+02 -0.74758663021E+02 -0.34493646466E+03  0.35419244256E+03  0.47000000000E+01 0.  1.
         11    1    6    6    0    0 -0.89209776044E+02  0.16357052136E+02 -0.19295782354E+03  0.21321036316E+03  0.00000000000E+00 0. -1.
        -12    1    6    6    0    0  0.13107528904E+02  0.47671293288E+01 -0.61605995368E+01  0.15247485782E+02  0.00000000000E+00 0.  1.
</event>
<event>
12    1  0.8053217E-002  0.2050377E+03  0.7818608E-02  0.1146017E+00
         21   -1    0    0  501  502  0.00000000000E+00  0.00000000000E+00  0.10526000070E+04  0.10526000070E+04  0.00000000000E+00 0.  1.
         21   -1    0    0  502  503 -0.00000000000E+00 -0.00000000000E+00 -0.46824684773E+02  0.46824684773E+02  0.00000000000E+00 0.  1.
         -6    2    1    2    0  503  0.10406453928E+03  0.22262535392E+02  0.28786771252E+03  0.35342365725E+03  0.17525813183E+03 0.  0.
        -24    2    3    3    0    0  0.12662636614E+03 -0.17099085602E+02  0.25816889728E+03  0.29899496202E+03  0.80126103477E+02 0.  0.
          6    2    1    2  501    0 -0.10406453928E+03 -0.22262535392E+02  0.71790760966E+03  0.74600103448E+03  0.17263012082E+03 0.  0.
         24    2    5    5    0    0 -0.10699839605E+03 -0.70738391280E+02  0.48531754195E+03  0.50834846092E+03  0.80202646082E+02 0.  0.
          5    1    5    5  501    0  0.29338567697E+01  0.48475855888E+02  0.23259006771E+03  0.23765257356E+03  0.47000000000E+01 0. -1.
        -13    1    6    6    0    0 -0.81778502515E+02 -0.81489622735E+02  0.44398958625E+03  0.45875378449E+03  0.00000000000E+00 0.  1.
         14    1    6    6    0    0 -0.25219893538E+02  0.10751231455E+02  0.41327955699E+02  0.49594676429E+02  0.00000000000E+00 0. -1.
         -5    1    3    3    0  503 -0.22561826852E+02  0.39361620993E+02  0.29698815234E+02  0.54428695230E+02  0.47000000000E+01 0.  1.
         13    1    4    4    0    0  0.39496575569E+02 -0.42246346752E+02  0.12678299731E+03  0.13935085827E+03  0.00000000000E+00 0. -1.
        -14    1    4    4    0    0  0.87129790566E+02  0.25147261151E+02  0.13138589998E+03  0.15964410374E+03  0.00000000000E+00 0.  1.
</event>
<event>
12    1  0.8053217E-002  0.3367756E+03  0.7818608E-02  0.1068801E+00
         21   -1    0    0  503  502  0.00000000000E+00  0.00000000000E+00  0.11208939170E+03  0.11208939170E+03  0.00000000000E+00 0.  1.
         21   -1    0    0  501  503 -0.00000000000E+00 -0.00000000000E+00 -0.21448851279E+04  0.21448851279E+04  0.00000000000E+00 0. -1.
          6    2    1    2  501    0  0.66289167765E+02  0.27505506092E+03 -0.18467975080E+04  0.18772529969E+04  0.18266975350E+03 0.  0.
         24    2    3    3    0    0  0.47989298571E+02  0.29422307380E+03 -0.17207291641E+04  0.17483436673E+04  0.83225795857E+02 0.  0.
         -6    2    1    2    0  502 -0.66289167765E+02 -0.27505506092E+03 -0.18599822830E+03  0.37972152270E+03  0.17188238295E+03 0.  0.
        -24    2    5    5    0    0 -0.33561134383E+02 -0.27325555424E+03 -0.12882899220E+03  0.31365508683E+03  0.77379949586E+02 0.  0.
          5    1    3    3  501    0  0.18299869194E+02 -0.19168012879E+02 -0.12606834387E+03  0.12890932960E+03  0.47000000000E+01 0. -1.
        -11    1    4    4    0    0  0.74300094502E+00  0.75878843758E+02 -0.26790991894E+03  0.27844905395E+03  0.00000000000E+00 0.  1.
         12    1    4    4    0    0  0.47246297626E+02  0.21834423004E+03 -0.14528192451E+04  0.14698946134E+04  0.00000000000E+00 0. -1.
         -5    1    5    5    0  502 -0.32728033382E+02 -0.17995066845E+01 -0.57169236091E+02  0.66066435870E+02  0.47000000000E+01 0.  1.
         11    1    6    6    0    0 -0.48364655382E+02 -0.24414630380E+03 -0.13035780152E+03  0.28096212194E+03  0.00000000000E+00 0. -1.
        -12    1    6    6    0    0  0.14803520999E+02 -0.29109250442E+02  0.15288093171E+01  0.32692964889E+02  0.00000000000E+00 0.  1.
</event>
<event>
12    1  0.8053217E-002  0.2078427E+03  0.7818608E-02  0.1143537E+00
         21   -1    0    0  503  502  0.00000000000E+00  0.00000000000E+00  0.47166297860E+03  0.47166297860E+03  0.00000000000E+00 0.  1.
         21   -1    0    0  501  503 -0.00000000000E+00 -0.00000000000E+00 -0.16203119220E+03  0.16203119220E+03  0.00000000000E+00 0.  1.
          6    2    1    2  501    0 -0.11585178220E+03  0.33594942655E+00 -0.54648964632E+02  0.21490721026E+03  0.17255970383E+03 0.  0.
         24    2    3    3    0    0 -0.10331135265E+03 -0.14711820856E+02 -0.99273897407E+02  0.16594628309E+03  0.82420803849E+02 0.  0.
         -6    2    1    2    0  502  0.11585178220E+03 -0.33594942655E+00  0.36428075102E+03  0.41878696054E+03  0.17105643646E+03 0.  0.
        -24    2    5    5    0    0  0.91865427489E+01  0.35604655411E+02  0.11905753563E+03  0.14892455903E+03  0.81558221147E+02 0.  0.
          5    1    3    3  501    0 -0.12540429548E+02  0.15047770283E+02  0.44624932775E+02  0.48960927165E+02  0.47000000000E+01 0. -1.
        -11    1    4    4    0    0 -0.77433575303E+02 -0.14906821331E+02 -0.18318372325E+02  0.80955139867E+02  0.00000000000E+00 0.  1.
         12    1    4    4    0    0 -0.25877777347E+02  0.19500047449E+00 -0.80955525082E+02  0.84991143226E+02  0.00000000000E+00 0. -1.
         -5    1    5    5    0  502  0.10666523945E+03 -0.35940604837E+02  0.24522321540E+03  0.26986240151E+03  0.47000000000E+01 0.  1.
         13    1    6    6    0    0 -0.70246491956E+00 -0.22777790961E+02  0.10121586004E+02  0.24935270628E+02  0.00000000000E+00 0. -1.
        -14    1    6    6    0    0  0.98890076685E+01  0.58382446372E+02  0.10893594962E+03  0.12398928840E+03  0.00000000000E+00 0.  1.
</event>
<event>
12    1  0.8053217E-002  0.2966767E+03  0.7818608E-02  0.1088555E+00
         21   -1    0    0  503  502  0.00000000000E+00  0.00000000000E+00  0.83735579082E+02  0.83735579082E+02  0.00000000000E+00 0.  1.
         21   -1    0    0  501  503 -0.00000000000E+00 -0.00000000000E+00 -0.10182368403E+04  0.10182368403E+04  0.00000000000E+00 0.  1.
          6    2    1    2  501    0 -0.47009353538E+02 -0.22193860271E+03 -0.53570203847E+03  0.61236730647E+03  0.19118164482E+03 0.  0.
         24    2    3    3    0    0 -0.29921547339E+02 -0.44976453690E+02 -0.31201480051E+03  0.32659525442E+03  0.79956513741E+02 0.  0.
         -6    2    1    2    0  502  0.47009353538E+02  0.22193860271E+03 -0.39879922279E+03  0.48960511295E+03  0.17089682220E+03 0.  0.
        -24    2    5    5    0    0  0.27833136570E+02  0.10536691761E+03 -0.96657217548E+02  0.16515393574E+03  0.77822451567E+02 0.  0.
          5    1    3    3  501    0 -0.17087806199E+02 -0.17696214902E+03 -0.22368723796E+03  0.28577205205E+03  0.47000000000E+01 0. -1.
        -11    1    4    4    0    0  0.23772493126E+02 -0.15677251216E+02 -0.50049336013E+02  0.57583362792E+02  0.00000000000E+00 0.  1.
         12    1    4    4    0    0 -0.53694040465E+02 -0.29299202474E+02 -0.26196546450E+03  0.26901189163E+03  0.00000000000E+00 0. -1.
         -5    1    5    5    0  502  0.19176216968E+02  0.11657168510E+03 -0.30214200524E+03  0.32445117722E+03  0.47000000000E+01 0.  1.
         13    1    6    6    0    0  0.26749181466E+02 -0.28728000623E+00 -0.30143626888E+02  0.40301854558E+02  0.00000000000E+00 0. -1.
        -14    1    6    6    0    0  0.10839551040E+01  0.10565419762E+03 -0.66513590660E+02  0.12485208118E+03  0.00000000000E+00 0.  1.
</event>
<event>
12    1  0.8053217E-002  0.1885304E+03  0.7818608E-02  0.1161019E+00
         21   -1    0    0  503  502  0.00000000000E+00  0.00000000000E+00  0.16752556646E+02  0.16752556646E+02  0.00000000000E+00 0.  1.
         21   -1    0    0  501  503 -0.00000000000E+00 -0.00000000000E+00 -0.21028952403E+04  0.21028952403E+04  0.00000000000E+00 0. -1.
          6    2    1    2  501    0 -0.66564781360E+02 -0.37985535071E+02 -0.12046023938E+04  0.12192664408E+04  0.17224968926E+03 0.  0.
         24    2    3    3    0    0 -0.95346193215E+01  0.33217772869E+02 -0.38487482958E+03  0.39446481614E+03  0.79243468702E+02 0.  0.
         -6    2    1    2    0  502  0.66564781360E+02  0.37985535071E+02 -0.88154028986E+03  0.90038135618E+03  0.16643176656E+03 0.  0.
        -24    2    5    5    0    0  0.49572460590E+02  0.28229809114E+02 -0.24933030864E+03  0.26785035812E+03  0.79522704724E+02 0.  0.
          5    1    3    3  501    0 -0.57030162039E+02 -0.71203307940E+02 -0.81972756426E+03  0.82480162467E+03  0.47000000000E+01 0. -1.
        -13    1    4    4    0    0 -0.43582130830E+02  0.13996067525E+02 -0.16962091829E+03  0.17568878153E+03  0.00000000000E+00 0.  1.
         14    1    4    4    0    0  0.34047511509E+02  0.19221705344E+02 -0.21525391128E+03  0.21877603461E+03  0.00000000000E+00 0. -1.
         -5    1    5    5    0  502  0.16992320770E+02  0.97557259571E+01 -0.63220998122E+03  0.63253099806E+03  0.47000000000E+01 0.  1.
         13    1    6    6    0    0  0.54558225394E+02 -0.51657821324E+01 -0.20456496382E+03  0.21177844481E+03  0.00000000000E+00 0. -1.
        -14    1    6    6    0    0 -0.49857648041E+01  0.33395591246E+02 -0.44765344819E+02  0.56071913309E+02  0.00000000000E+00 0.  1.
</event>
<event>
12    1  0.8053217E-002  0.1812395E+03  0.7818608E-02  0.1166748E+00
         21   -1    0    0  501  502  0.00000000000E+00  0.00000000000E+00  0.28006510424E+02  0.28006510424E+02  0.00000000000E+00 0. -1.
         21   -1    0    0  502  503 -0.00000000000E+00 -0.00000000000E+00 -0.12415720805E+04  0.12415720805E+04  0.00000000000E+00 0. -1.
         -6    2    1    2    0  503  0.22289311387E+02  0.11213555594E+02 -0.75922710828E+03  0.78042503942E+03  0.17892703257E+03 0.  0.
        -24    2    3    3    0    0  0.76542826217E+02 -0.27125487670E+02 -0.44772751561E+03  0.46188554055E+03  0.79269969150E+02 0.  0.
          6    2    1    2  501    0 -0.22289311387E+02 -0.11213555594E+02 -0.45433846184E+03  0.48915355154E+03  0.17951379292E+03 0.  0.
         24    2    5    5    0    0  0.70215627826E+01  0.84892858165E+01 -0.82852678232E+02  0.11596310857E+03  0.80383492965E+02 0.  0.
          5    1    5    5  501    0 -0.29310874169E+02 -0.19702841411E+02 -0.37148578361E+03  0.37319044297E+03  0.47000000000E+01 0. -1.
        -11    1    6    6    0    0  0.40967646662E+02  0.19150397308E+02 -0.51527799895E+02  0.68558004289E+02  0.00000000000E+00 0.  1.
         12    1    6    6    0    0 -0.33946083880E+02 -0.10661111491E+02 -0.31324878337E+02  0.47405104280E+02  0.00000000000E+00 0. -1.
         -5    1    3    3    0  503 -0.54253514830E+02  0.38339043264E+02 -0.31149959266E+03  0.31853949887E+03  0.47000000000E+01 0.  1.
         13    1    4    4    0    0  0.49758652902E+02 -0.25271658620E+02 -0.41847480368E+03  0.42217975033E+03  0.00000000000E+00 0. -1.
        -14    1    4    4    0    0  0.26784173315E+02 -0.18538290496E+01 -0.29252711928E+02  0.39705790226E+02  0.00000000000E+00 0.  1.
</event>
<event>
12    1  0.8053217E-002  0.2159861E+03  0.7818608E-02  0.1138978E+00
         21   -1    0    0  501  502  0.00000000000E+00  0.00000000000E+00  0.42864428235E+02  0.42864428235E+02  0.00000000000E+00 0.  1.
         21   -1    0    0  502  503 -0.00000000000E+00 -0.00000000000E+00 -0.10783595138E+04  0.10783595138E+04  0.00000000000E+00 0. -1.
         -6    2    1    2    0  503 -0.12211913850E+03 -0.41077268553E+02 -0.61656686796E+03  0.64989513960E+03  0.16002675972E+03 0.  0.
        -24    2    3    3    0    0 -0.88089443156E+02 -0.90630035341E+01 -0.57670529186E+03  0.58829994028E+03  0.75272425534E+02 0.  0.
          6    2    1    2  501    0  0.12211913850E+03  0.41077268553E+02 -0.41892821763E+03  0.47132880246E+03  0.17334809640E+03 0.  0.
         24    2    5    5    0    0  0.10118883702E+03 -0.29693804065E+02 -0.18683244827E+03  0.22773660556E+03  0.76398265988E+02 0.  0.
          5    1    5    5  501    0  0.20930301480E+02  0.70771072618E+02 -0.23209576935E+03  0.24359219690E+03  0.47000000000E+01 0. -1.
        -13    1    6    6    0    0  0.45165389635E+02 -0.52256243918E+02 -0.87381524685E+02  0.11138293543E+03  0.00000000000E+00 0.  1.
         14    1    6    6    0    0  0.56023447384E+02  0.22562439854E+02 -0.99450923588E+02  0.11635367012E+03  0.00000000000E+00 0. -1.
         -5    1    3    3    0  503 -0.34029695342E+02 -0.32014265019E+02 -0.39861576101E+02  0.61595199318E+02  0.47000000000E+01 0.  1.
         11    1    4    4    0    0 -0.90585522661E+02  0.15135671979E+02 -0.44842664557E+03  0.45773494725E+03  0.00000000000E+00 0. -1.
        -12    1    4    4    0    0  0.24960795050E+01 -0.24198675513E+02 -0.12827864630E+03  0.13056499303E+03  0.00000000000E+00 0.  1.
</event>
<event>
12    1  0.8053217E-002  0.1873580E+03  0.7818608E-02  0.1161190E+00
         21   -1    0    0  503  502  0.00000000000E+00  0.00000000000E+00  0.20002061741E+02  0.20002061741E+02  0.00000000000E+00 0. -1.
         21   -1    0    0  501  503 -0.00000000000E+00 -0.00000000000E+00 -0.17721182812E+04  0.17721182812E+04  0.00000000000E+00 0. -1.
          6    2    1    2  501    0  0.68962574663E+02 -0.14074326493E+02 -0.76217623239E+03  0.78486663286E+03  0.17363495843E+03 0.  0.
         24    2    3    3    0    0 -0.26375822475E+02 -0.16512150955E+01 -0.45085004251E+03  0.45899882198E+03  0.81949662735E+02 0.  0.
         -6    2    1    2    0  502 -0.68962574663E+02  0.14074326493E+02 -0.98993998709E+03  0.10072537101E+04  0.17211895626E+03 0.  0.
        -24    2    5    5    0    0 -0.70792439354E+02  0.84447081256E+01 -0.32877336733E+03  0.34604388706E+03  0.81065172163E+02 0.  0.
          5    1    3    3  501    0  0.95338397138E+02 -0.12423111397E+02 -0.31132618988E+03  0.32586781088E+03  0.47000000000E+01 0. -1.
        -11    1    4    4    0    0  0.18728538650E+02 -0.22656495457E+02 -0.88630366946E+02  0.93377817983E+02  0.00000000000E+00 0.  1.
         12    1    4    4    0    0 -0.45104361124E+02  0.21005280362E+02 -0.36221967557E+03  0.36562100400E+03  0.00000000000E+00 0. -1.
         -5    1    5    5    0  502  0.18298646908E+01  0.56296183670E+01 -0.66116661976E+03  0.66120982305E+03  0.47000000000E+01 0.  1.
         13    1    6    6    0    0 -0.84627422192E+02 -0.96339719450E+01 -0.25691839233E+03  0.27066893860E+03  0.00000000000E+00 0. -1.
        -14    1    6    6    0    0  0.13834982838E+02  0.18078680071E+02 -0.71854975001E+02  0.75374948462E+02  0.00000000000E+00 0.  1.
</event>
<event>
12    1  0.8053217E-002  0.2067531E+03  0.7818608E-02  0.1145358E+00
         21   -1    0    0  503  502  0.00000000000E+00  0.00000000000E+00  0.95012324664E+02  0.95012324664E+02  0.00000000000E+00 0.  1.
         21   -1    0    0  501  503 -0.00000000000E+00 -0.00000000000E+00 -0.45469658282E+03  0.45469658282E+03  0.00000000000E+00 0.  1.
          6    2    1    2  501    0  0.61547580412E+02  0.83357960179E+02 -0.23603613439E+03  0.31378323049E+03  0.17891395927E+03 0.  0.
         24    2    3    3    0    0  0.91641489398E+02  0.94211049488E+02 -0.23714129521E+03  0.28142980276E+03  0.75451014338E+02 0.  0.
         -6    2    1    2    0  502 -0.61547580412E+02 -0.83357960179E+02 -0.12364812377E+03  0.23592567700E+03  0.17214938970E+03 0.  0.
        -24    2    5    5    0    0 -0.55109289739E+02  0.22462581725E+01 -0.11420603935E+03  0.14943419334E+03  0.79028344432E+02 0.  0.
          5    1    3    3  501    0 -0.30093908986E+02 -0.10853089309E+02  0.11051608207E+01  0.32353427733E+02  0.47000000000E+01 0. -1.
        -13    1    4    4    0    0  0.68612095040E+02  0.38465786776E+02 -0.18743922886E+03  0.20327493907E+03  0.00000000000E+00 0.  1.
         14    1    4    4    0    0  0.23029394358E+02  0.55745262712E+02 -0.49702066345E+02  0.78154863689E+02  0.00000000000E+00 0. -1.
         -5    1    5    5    0  502 -0.64382906723E+01 -0.85604218351E+02 -0.94420844210E+01  0.86491483653E+02  0.47000000000E+01 0.  1.
         13    1    6    6    0    0  0.18196848454E+02  0.12237835199E+02 -0.20277314580E+02  0.29867363302E+02  0.00000000000E+00 0. -1.
        -14    1    6    6    0    0 -0.73306138193E+02 -0.99915770270E+01 -0.93928724773E+02  0.11956683004E+03  0.00000000000E+00 0.  1.
</event>
<event>
12    1  0.8053217E-002  0.2454127E+03  0.7818608E-02  0.1116281E+00
         21   -1    0    0  503  502  0.00000000000E+00  0.00000000000E+00  0.19367521203E+03  0.19367521203E+03  0.00000000000E+00 0. -1.
         21   -1    0    0  501  503 -0.00000000000E+00 -0.00000000000E+00 -0.31571471347E+03  0.31571471347E+03  0.00000000000E+00 0.  1.
          6    2    1    2  501    0  0.22838615734E+02 -0.17334075952E+03 -0.93337598814E+02  0.26256296776E+03  0.17221725641E+03 0.  0.
         24    2    3    3    0    0 -0.18465903888E+02 -0.13458348656E+03 -0.12055340875E+03  0.19954725655E+03  0.82657599611E+02 0.  0.
         -6    2    1    2    0  502 -0.22838615734E+02  0.17334075952E+03 -0.28701902624E+02  0.24682695773E+03  0.17184622943E+03 0.  0.
        -24    2    5    5    0    0  0.20301800591E+02  0.20683187761E+02 -0.22075092812E+02  0.87982901044E+02  0.80085727757E+02 0.  0.
          5    1    3    3  501    0  0.41304519622E+02 -0.38757272968E+02  0.27215809936E+02  0.63015711212E+02  0.47000000000E+01 0. -1.
        -13    1    4    4    0    0 -0.51142136412E+02 -0.86175098017E+02 -0.82930626300E+02  0.13007364996E+03  0.00000000000E+00 0.  1.
         14    1    4    4    0    0  0.32676232523E+02 -0.48408388540E+02 -0.37622782450E+02  0.69473606588E+02  0.00000000000E+00 0. -1.
         -5    1    5    5    0  502 -0.43140416325E+02  0.15265757176E+03 -0.66268098118E+01  0.15884405669E+03  0.47000000000E+01 0.  1.
         13    1    6    6    0    0  0.14694491770E+02 -0.29907845426E+02 -0.15178951658E+02  0.36617043571E+02  0.00000000000E+00 0. -1.
        -14    1    6    6    0    0  0.56073088205E+01  0.50591033187E+02 -0.68961411535E+01  0.51365857473E+02  0.00000000000E+00 0.  1.
</event>
<event>
12    1  0.8053217E-002  0.1857009E+03  0.7818608E-02  0.1162475E+00
         21   -1    0    0  503  502  0.00000000000E+00  0.00000000000E+00  0.31722343384E+02  0.31722343384E+02  0.00000000000E+00 0. -1.
         21   -1    0    0  501  503 -0.00000000000E+00 -0.00000000000E+00 -0.17936346086E+04  0.17936346086E+04  0.00000000000E+00 0. -1.
          6    2    1    2  501    0 -0.48208111206E+02 -0.50169708698E+02 -0.14550655821E+04  0.14668676391E+04  0.17217375189E+03 0.  0.
         24    2    3    3    0    0  0.11198169055E+02 -0.10003082462E+02 -0.10660031929E+04  0.10712237378E+04  0.10455634086E+03 0.  0.
         -6    2    1    2    0  502  0.48208111206E+02  0.50169708698E+02 -0.30684668310E+03  0.35848931285E+03  0.17181000797E+03 0.  0.
        -24    2    5    5    0    0  0.56338578631E+02  0.79745375267E+02 -0.14419680436E+03  0.19290580640E+03  0.82985368805E+02 0.  0.
          5    1    3    3  501    0 -0.59406280261E+02 -0.40166626236E+02 -0.38906238912E+03  0.39564390129E+03  0.47000000000E+01 0. -1.
        -13    1    4    4    0    0 -0.66719480514E+01  0.36872436819E+02 -0.18301535634E+03  0.18681197002E+03  0.00000000000E+00 0.  1.
         14    1    4    4    0    0  0.17870117106E+02 -0.46875519281E+02 -0.88298783660E+03  0.88441176778E+03  0.00000000000E+00 0. -1.
         -5    1    5    5    0  502 -0.81304674249E+01 -0.29575666568E+02 -0.16264987874E+03  0.16558350645E+03  0.47000000000E+01 0.  1.
         11    1    6    6    0    0  0.67072985155E+02  0.47055200842E+02 -0.13392177659E+03  0.15699687738E+03  0.00000000000E+00 0. -1.
        -12    1    6    6    0    0 -0.10734406524E+02  0.32690174425E+02 -0.10275027777E+02  0.35908929017E+02  0.00000000000E+00 0.  1.
</event>
<event>
12    1  0.8053217E-002  0.1742151E+03  0.7818608E-02  0.1173842E+00
         21   -1    0    0  501  502  0.00000000000E+00  0.00000000000E+00  0.30280165093E+02  0.30280165093E+02  0.00000000000E+00 0. -1.
         21   -1    0    0  502  503 -0.00000000000E+00 -0.00000000000E+00 -0.12843171403E+04  0.12843171403E+04  0.00000000000E+00 0. -1.
         -6    2    1    2    0  503 -0.67197105823E+00  0.13577847568E+02 -0.93717701607E+03  0.95300204104E+03  0.17241612830E+03 0.  0.
        -24    2    3    3    0    0 -0.59080101707E+02 -0.26963478334E+02 -0.51517501915E+03  0.52502670970E+03  0.77654735637E+02 0.  0.
          6    2    1    2  501    0  0.67197105823E+00 -0.13577847568E+02 -0.31685995910E+03  0.36159526430E+03  0.17368388526E+03 0.  0.
         24    2    5    5    0    0 -0.62435930676E+01  0.52829841401E+02 -0.24849308547E+03  0.26591911477E+03  0.78321053836E+02 0.  0.
          5    1    5    5  501    0  0.69155641258E+01 -0.66407688969E+02 -0.68366873622E+02  0.95676149537E+02  0.47000000000E+01 0. -1.
        -11    1    6    6    0    0 -0.32905691715E+01 -0.18951094174E+02 -0.88043781028E+02  0.90120359485E+02  0.00000000000E+00 0.  1.
         12    1    6    6    0    0 -0.29530238961E+01  0.71780935575E+02 -0.16044930444E+03  0.17579875528E+03  0.00000000000E+00 0. -1.
         -5    1    3    3    0  503  0.58408130648E+02  0.40541325902E+02 -0.42200199692E+03  0.42797533134E+03  0.47000000000E+01 0.  1.
         13    1    4    4    0    0 -0.88318635264E+01  0.73175527451E+01 -0.32831508705E+03  0.32851536460E+03  0.00000000000E+00 0. -1.
        -14    1    4    4    0    0 -0.50248238180E+02 -0.34281031079E+02 -0.18685993209E+03  0.19651134510E+03  0.00000000000E+00 0.  1.
</event>
<event>
12    1  0.8053217E-002  0.1771325E+03  0.7818608E-02  0.1170729E+00
         21   -1    0    0  501  502  0.00000000000E+00  0.00000000000E+00  0.10871008755E+03  0.10871008755E+03  0.00000000000E+00 0. -1.
         21   -1    0    0  502  503 -0.00000000000E+00 -0.00000000000E+00 -0.29004530706E+03  0.29004530706E+03  0.00000000000E+00 0. -1.
         -6    2    1    2    0  503  0.17154893489E+02 -0.40057863032E+02 -0.10825437958E+03  0.20759316924E+03  0.17168864394E+03 0.  0.
        -24    2    3    3    0    0  0.24219326999E+02  0.11297844522E+02 -0.12672395717E+03  0.15236156402E+03  0.80255017159E+02 0.  0.
          6    2    1    2  501    0 -0.17154893489E+02  0.40057863032E+02 -0.73080839932E+02  0.19116222537E+03  0.17118196307E+03 0.  0.
         24    2    5    5    0    0  0.65083938415E+01 -0.36396887929E+02 -0.68112294453E+02  0.11083753081E+03  0.79237497050E+02 0.  0.
          5    1    5    5  501    0 -0.23663287331E+02  0.76454750961E+02 -0.49685454791E+01  0.80324694559E+02  0.47000000000E+01 0. -1.
        -13    1    6    6    0    0  0.39083214295E+02 -0.17249953630E+02 -0.57419329097E+02  0.71568414079E+02  0.00000000000E+00 0.  1.
         14    1    6    6    0    0 -0.32574820453E+02 -0.19146934299E+02 -0.10692965356E+02  0.39269116730E+02  0.00000000000E+00 0. -1.
         -5    1    3    3    0  503 -0.70644335099E+01 -0.51355707554E+02  0.18469577588E+02  0.55231605222E+02  0.47000000000E+01 0.  1.
         13    1    4    4    0    0 -0.13501051311E+02  0.20225151615E+02 -0.10530252872E+03  0.10807385299E+03  0.00000000000E+00 0. -1.
        -14    1    4    4    0    0  0.37720378310E+02 -0.89273070930E+01 -0.21421428444E+02  0.44287711031E+02  0.00000000000E+00 0.  1.
</event>
<event>
12    1  0.8053217E-002  0.1861124E+03  0.7818608E-02  0.1163800E+00
         21   -1    0    0  501  502  0.00000000000E+00  0.00000000000E+00  0.19273271868E+04  0.19273271868E+04  0.00000000000E+00 0. -1.
         21   -1    0    0  502  503 -0.00000000000E+00 -0.00000000000E+00 -0.22732814085E+02  0.22732814085E+02  0.00000000000E+00 0. -1.
         -6    2    1    2    0  503  0.40038776409E+02  0.19542408137E+02  0.48853828661E+03  0.52278818638E+03  0.18070091590E+03 0.  0.
        -24    2    3    3    0    0 -0.48992440659E+02  0.16197338884E+02  0.20918103977E+03  0.22953009449E+03  0.79150134851E+02 0.  0.
          6    2    1    2  501    0 -0.40038776409E+02 -0.19542408137E+02  0.14160560861E+04  0.14272718145E+04  0.17293057609E+03 0.  0.
         24    2    5    5    0    0 -0.86192141844E+02 -0.38789268477E+02  0.88040893368E+03  0.88927503322E+03  0.82197941170E+02 0.  0.
          5    1    5    5  501    0  0.46153365435E+02  0.19246860340E+02  0.53564715242E+03  0.53799678128E+03  0.47000000000E+01 0. -1.
        -13    1    6    6    0    0  0.69797126748E+01  0.50959103784E+01  0.12042288494E+02  0.14822327880E+02  0.00000000000E+00 0.  1.
         14    1    6    6    0    0 -0.93171854519E+02 -0.43885178855E+02  0.86836664519E+03  0.87445270534E+03  0.00000000000E+00 0. -1.
         -5    1    3    3    0  503  0.89031217068E+02  0.33450692532E+01  0.27935724683E+03  0.29325809189E+03  0.47000000000E+01 0.  1.
         11    1    4    4    0    0 -0.12926577320E+02  0.43235030279E+02  0.70481341831E+02  0.83689806970E+02  0.00000000000E+00 0. -1.
        -12    1    4    4    0    0 -0.36065863339E+02 -0.27037691395E+02  0.13869969794E+03  0.14584028752E+03  0.00000000000E+00 0.  1.
</event>
<event>
12    1  0.8053217E-002  0.2205118E+03  0.7818608E-02  0.1136768E+00
         21   -1    0    0  501  502  0.00000000000E+00  0.00000000000E+00  0.64323267441E+03  0.64323267441E+03  0.00000000000E+00 0.  1.
         21   -1    0    0  502  503 -0.00000000000E+00 -0.00000000000E+00 -0.70353742139E+02  0.70353742139E+02  0.00000000000E+00 0. -1.
         -6    2    1    2    0  503  0.19231159306E+02  0.13608075478E+03  0.24747325885E+03  0.32050334558E+03  0.15030492798E+03 0.  0.
        -24    2    3    3    0    0  0.45756861668E+02  0.13944325049E+03  0.16777440239E+03  0.23630763913E+03  0.78453423878E+02 0.  0.
          6    2    1    2  501    0 -0.19231159306E+02 -0.13608075478E+03  0.32540567342E+03  0.39308307097E+03  0.17244604686E+03 0.  0.
         24    2    5    5    0    0  0.44548916035E+02 -0.38800864959E+02  0.18475330969E+03  0.21050034342E+03  0.81770997912E+02 0.  0.
          5    1    5    5  501    0 -0.63780075340E+02 -0.97279889816E+02  0.14065236373E+03  0.18258272754E+03  0.47000000000E+01 0. -1.
        -11    1    6    6    0    0  0.25833676403E+02 -0.52945399350E+02  0.17577038843E+03  0.18538021361E+03  0.00000000000E+00 0.  1.
         12    1    6    6    0    0  0.18715239632E+02  0.14144534391E+02  0.89829212583E+01  0.25120129815E+02  0.00000000000E+00 0. -1.
         -5    1    3    3    0  503 -0.26525702362E+02 -0.33624957170E+01  0.79698856461E+02  0.84195706449E+02  0.47000000000E+01 0.  1.
         13    1    4    4    0    0  0.58781117072E+02  0.13785912657E+03  0.13781350965E+03  0.20359990655E+03  0.00000000000E+00 0. -1.
        -14    1    4    4    0    0 -0.13024255404E+02  0.15841239211E+01  0.29960892734E+02  0.32707732585E+02  0.00000000000E+00 0.  1.
</event>
<event>
12    1  0.8053217E-002  0.1757378E+03  0.7818608E-02  0.1172197E+00
         21   -1    0    0  503  502  0.00000000000E+00  0.00000000000E+00  0.29162889589E+02  0.29162889589E+02  0.00000000000E+00 0.  1.
         21   -1    0    0  501  503 -0.00000000000E+00 -0.00000000000E+00 -0.10772719835E+04  0.10772719835E+04  0.00000000000E+00 0.  1.
          6    2    1    2  501    0  0.32529787099E+02 -0.85577320402E+01 -0.60400498937E+03  0.62882392133E+03  0.17165685254E+03 0.  0.
         24    2    3    3    0    0 -0.44002693333E+02 -0.20169549086E+01 -0.41252355110E+03  0.42245717612E+03  0.79712485302E+02 0.  0.
         -6    2    1    2    0  502 -0.32529787099E+02  0.85577320402E+01 -0.44410410450E+03  0.47761095172E+03  0.17248867714E+03 0.  0.
        -24    2    5    5    0    0 -0.17379245424E+02 -0.52314361245E+02 -0.36047321792E+03  0.37296313357E+03  0.78241469817E+02 0.  0.
          5    1    3    3  501    0  0.76532480433E+02 -0.65407771316E+01 -0.19148143827E+03  0.20636674521E+03  0.47000000000E+01 0. -1.
        -13    1    4    4    0    0  0.16897988173E+02 -0.17495621591E+02 -0.17828903805E+03  0.17994060094E+03  0.00000000000E+00 0.  1.
         14    1    4    4    0    0 -0.60900681506E+02  0.15478666683E+02 -0.23423451306E+03  0.24251657518E+03  0.00000000000E+00 0. -1.
         -5    1    5    5    0  502 -0.15150541675E+02  0.60872093285E+02 -0.83630886581E+02  0.10464781815E+03  0.47000000000E+01 0.  1.
         13    1    6    6    0    0  0.28414023383E+02 -0.69620484271E+01 -0.80029774439E+02  0.85209105381E+02  0.00000000000E+00 0. -1.
        -14    1    6    6    0    0 -0.45793268808E+02 -0.45352312818E+02 -0.28044344348E+03  0.28775402819E+03  0.00000000000E+00 0.  1.
</event>
<event>
12    1  0.8053217E-002  0.1834880E+03  0.7818608E-02  0.1164620E+00
         21   -1    0    0  503  502  0.00000000000E+00  0.00000000000E+00  0.82581919364E+02  0.82581919364E+02  0.00000000000E+00 0.  1.
         21   -1    0    0  501  503 -0.00000000000E+00 -0.00000000000E+00 -0.46685026031E+03  0.46685026031E+03  0.00000000000E+00 0.  1.
          6    2    1    2  501    0  0.38791804413E+02 -0.46329749169E+02 -0.29079811692E+03  0.34350861678E+03  0.17257860600E+03 0.  0.
         24    2    3    3    0    0  0.45797662671E+02 -0.89673198472E+02 -0.25471052041E+03  0.28648106844E+03  0.83995505466E+02 0.  0.
         -6    2    1    2    0  502 -0.38791804413E+02  0.46329749169E+02 -0.93470224029E+02  0.20592356290E+03  0.17325294003E+03 0.  0.
        -24    2    5    5    0    0 -0.10062372774E+02  0.56950778649E+02 -0.12656992475E+03  0.16058189666E+03  0.80137114684E+02 0.  0.
          5    1    3    3  501    0 -0.70058582582E+01  0.43343449303E+02 -0.36087596509E+02  0.57027548336E+02  0.47000000000E+01 0. -1.
        -11    1    4    4    0    0 -0.20972383275E+02 -0.49613482237E+01 -0.61987837050E+02  0.65627340176E+02  0.00000000000E+00 0.  1.
         12    1    4    4    0    0  0.66770045946E+02 -0.84711850248E+02 -0.19272268336E+03  0.22085372827E+03  0.00000000000E+00 0. -1.
         -5    1    5    5    0  502 -0.28729431639E+02 -0.10621029480E+02  0.33099700717E+02  0.45341666237E+02  0.47000000000E+01 0.  1.
         13    1    6    6    0    0 -0.33735987482E+02  0.29448188038E+02 -0.21997063289E+02  0.49891716982E+02  0.00000000000E+00 0. -1.
        -14    1    6    6    0    0  0.23673614708E+02  0.27502590611E+02 -0.10457286146E+03  0.11069017968E+03  0.00000000000E+00 0.  1.
</event>
<event>
12    1  0.8053217E-002  0.2138368E+03  0.7818608E-02  0.1138661E+00
         21   -1    0    0  501  502  0.00000000000E+00  0.00000000000E+00  0.50459593877E+02  0.50459593877E+02  0.00000000000E+00 0.  1.
         21   -1    0    0  502  503 -0.00000000000E+00 -0.00000000000E+00 -0.14937777547E+04  0.14937777547E+04  0.00000000000E+00 0.  1.
         -6    2    1    2    0  503 -0.12571076896E+02 -0.12642995745E+03 -0.12073074558E+04  0.12260984771E+04  0.17199888557E+03 0.  0.
        -24    2    3    3    0    0 -0.38967727404E+02 -0.68764399640E+02 -0.38529876177E+03  0.40163350953E+03  0.81285384406E+02 0.  0.
          6    2    1    2  501    0  0.12571076896E+02  0.12642995745E+03 -0.23601070501E+03  0.31813887145E+03  0.17137305078E+03 0.  0.
         24    2    5    5    0    0 -0.42210447976E+02  0.87337551622E+02 -0.21184344320E+03  0.24647731827E+03  0.80398097940E+02 0.  0.
          5    1    5    5  501    0  0.54781524871E+02  0.39092405829E+02 -0.24167261807E+02  0.71661553179E+02  0.47000000000E+01 0. -1.
        -13    1    6    6    0    0 -0.46006053698E+02  0.80631100656E+02 -0.10827802055E+03  0.14262559765E+03  0.00000000000E+00 0.  1.
         14    1    6    6    0    0  0.37956057227E+01  0.67064509659E+01 -0.10356542265E+03  0.10385172062E+03  0.00000000000E+00 0. -1.
         -5    1    3    3    0  503  0.26396650508E+02 -0.57665557812E+02 -0.82200869400E+03  0.82446496756E+03  0.47000000000E+01 0.  1.
         13    1    4    4    0    0  0.15727088869E+02 -0.28460501071E+02 -0.50879753430E+02  0.60382868055E+02  0.00000000000E+00 0. -1.
        -14    1    4    4    0    0 -0.54694816273E+02 -0.40303898569E+02 -0.33441900834E+03  0.34125064147E+03  0.00000000000E+00 0.  1.
</event>
<event>
12    1  0.8053217E-002  0.1759597E+03  0.7818608E-02  0.1172645E+00
         21   -1    0    0  503  502  0.00000000000E+00  0.00000000000E+00  0.82476974776E+03  0.82476974776E+03  0.00000000000E+00 0. -1.
         21   -1    0    0  501  503 -0.00000000000E+00 -0.00000000000E+00 -0.43432744747E+02  0.43432744747E+02  0.00000000000E+00 0. -1.
          6    2    1    2  501    0  0.32124988471E+02  0.16838201400E+02  0.21778979891E+03  0.27782358163E+03  0.16863572009E+03 0.  0.
         24    2    3    3    0    0 -0.15405087527E+02  0.46246984663E+02  0.60150791606E+02  0.11050313673E+03  0.78846212236E+02 0.  0.
         -6    2    1    2    0  502 -0.32124988471E+02 -0.16838201400E+02  0.56354720410E+03  0.59037891087E+03  0.17218091430E+03 0.  0.
        -24    2    5    5    0    0  0.33685251287E+02  0.25414180170E+02  0.32166136024E+03  0.33612096535E+03  0.87924376403E+02 0.  0.
          5    1    3    3  501    0  0.47530075998E+02 -0.29408783263E+02  0.15763900731E+03  0.16732044490E+03  0.47000000000E+01 0. -1.
        -13    1    4    4    0    0  0.14607519152E+02  0.48016879582E+02  0.62719418999E+02  0.80328860692E+02  0.00000000000E+00 0.  1.
         14    1    4    4    0    0 -0.30012606679E+02 -0.17698949190E+01 -0.25686273924E+01  0.30174276037E+02  0.00000000000E+00 0. -1.
         -5    1    5    5    0  502 -0.65810239758E+02 -0.42252381570E+02  0.24188584386E+03  0.25425794553E+03  0.47000000000E+01 0.  1.
         11    1    6    6    0    0 -0.21076501379E+02 -0.33895041891E+01  0.24101919617E+02  0.32196431142E+02  0.00000000000E+00 0. -1.
        -12    1    6    6    0    0  0.54761752666E+02  0.28803684359E+02  0.29755944062E+03  0.30392453421E+03  0.00000000000E+00 0.  1.
</event>
<event>
12    1  0.8053217E-002  0.1870414E+03  0.7818608E-02  0.1162828E+00
         21   -1    0    0  501  502  0.00000000000E+00  0.00000000000E+00  0.57171444101E+03  0.57171444101E+03  0.00000000000E+00 0.  1.
         21   -1    0    0  502  503 -0.00000000000E+00 -0.00000000000E+00 -0.80191807761E+02  0.80191807761E+02  0.00000000000E+00 0.  1.
         -6    2    1    2    0  503 -0.51779436321E+02 -0.41215857743E+02  0.41024516079E+03  0.44796869275E+03  0.16731706663E+03 0.  0.
        -24    2    3    3    0    0  0.24210591469E+02  0.19467923069E+02  0.15006775646E+03  0.17017132542E+03  0.73978346142E+02 0.  0.
          6    2    1    2  501    0  0.51779436321E+02  0.41215857743E+02  0.81277472462E+02  0.20393755601E+03  0.17494182538E+03 0.  0.
         24    2    5    5    0    0  0.70217125668E+02 -0.25336030037E+02  0.19522314955E+02  0.11117500088E+03  0.80039995534E+02 0.  0.
          5    1    5    5  501    0 -0.18437689346E+02  0.66551887781E+02  0.61755157507E+02  0.92762555130E+02  0.47000000000E+01 0. -1.
        -11    1    6    6    0    0  0.49703753195E+02 -0.52355070920E+02  0.25824246967E+02  0.76670778424E+02  0.00000000000E+00 0.  1.
         12    1    6    6    0    0  0.20513372473E+02  0.27019040883E+02 -0.63019320121E+01  0.34504222459E+02  0.00000000000E+00 0. -1.
         -5    1    3    3    0  503 -0.75990027791E+02 -0.60683780813E+02  0.26017740432E+03  0.27779736733E+03  0.47000000000E+01 0.  1.
         13    1    4    4    0    0  0.44498723633E+02  0.12518084510E+02  0.51097421615E+02  0.68904175058E+02  0.00000000000E+00 0. -1.
        -14    1    4    4    0    0 -0.20288132164E+02  0.69498385591E+01  0.98970334849E+02  0.10126715036E+03  0.00000000000E+00 0.  1.
</event>
<event>
12    1  0.8053217E-002  0.2077469E+03  0.7818608E-02  0.1143632E+00
         21   -1    0    0  503  502  0.00000000000E+00  0.00000000000E+00  0.87487458797E+03  0.87487458797E+03  0.00000000000E+00 0.  1.
         21   -1    0    0  501  503 -0.00000000000E+00 -0.00000000000E+00 -0.66065591282E+02  0.66065591282E+02  0.00000000000E+00 0. -1.
          6    2    1    2  501    0  0.42618705185E+02  0.10723921303E+03  0.64244863411E+03  0.67479260224E+03  0.17113797275E+03 0.  0.
         24    2    3    3    0    0 -0.23825315422E+02  0.82187083507E+02  0.52103293977E+03  0.53405782366E+03  0.80125353904E+02 0.  0.
         -6    2    1    2    0  502 -0.42618705185E+02 -0.10723921303E+03  0.16636036257E+03  0.26614757701E+03  0.17274883407E+03 0.  0.
        -24    2    5    5    0    0  0.10578984723E+02 -0.64759459574E+02  0.18851538199E+02  0.10361921969E+03  0.77947800963E+02 0.  0.
          5    1    3    3  501    0  0.66444020607E+02  0.25052129525E+02  0.12141569434E+03  0.14073477857E+03  0.47000000000E+01 0. -1.
        -11    1    4    4    0    0  0.19113782309E+02  0.69174843554E+02  0.29386685650E+03  0.30250326445E+03  0.00000000000E+00 0.  1.
         12    1    4    4    0    0 -0.42939097731E+02  0.13012239954E+02  0.22716608328E+03  0.23155455922E+03  0.00000000000E+00 0. -1.
         -5    1    5    5    0  502 -0.53197689908E+02 -0.42479753459E+02  0.14750882437E+03  0.16252835732E+03  0.47000000000E+01 0.  1.
         11    1    6    6    0    0  0.48776581180E+01  0.15788871707E+02 -0.82142607298E+01  0.18454107885E+02  0.00000000000E+00 0. -1.
        -12    1    6    6    0    0  0.57013266046E+01 -0.80548331281E+02  0.27065798929E+02  0.85165111806E+02  0.00000000000E+00 0.  1.
</event>
<event>
12    1  0.8053217E-002  0.2800106E+03  0.7818608E-02  0.1096730E+00
         21   -1    0    0  501  502  0.00000000000E+00  0.00000000000E+00  0.18954055149E+04  0.18954055149E+04  0.00000000000E+00 0.  1.
         21   -1    0    0  502  503 -0.00000000000E+00 -0.00000000000E+00 -0.31776213810E+03  0.31776213810E+03  0.00000000000E+00 0. -1.
         -6    2    1    2    0  503  0.20342606610E+03  0.81832492884E+02 -0.24664714667E+03  0.36751279926E+03  0.16171617543E+03 0.  0.
        -24    2    3    3    0    0  0.12975733368E+03  0.36806039298E+02 -0.23196879480E+03  0.27980870772E+03  0.79320495348E+02 0.  0.
          6    2    1    2  501    0 -0.20342606610E+03 -0.81832492884E+02  0.18242905234E+04  0.18456548537E+04  0.17414707544E+03 0.  0.
         24    2    5    5    0    0 -0.91312715093E+02 -0.92608280927E+02  0.75552027970E+03  0.77095608431E+03  0.81535791233E+02 0.  0.
          5    1    5    5  501    0 -0.11211335101E+03  0.10775788043E+02  0.10687702437E+04  0.10746987694E+04  0.47000000000E+01 0. -1.
        -13    1    6    6    0    0 -0.35980214994E+02 -0.21688374492E+01  0.34829279815E+03  0.35015304222E+03  0.00000000000E+00 0.  1.
         14    1    6    6    0    0 -0.55332500099E+02 -0.90439443477E+02  0.40722748155E+03  0.42080304209E+03  0.00000000000E+00 0. -1.
         -5    1    3    3    0  503  0.73668732422E+02  0.45026453586E+02 -0.14678351870E+02  0.87704091539E+02  0.47000000000E+01 0.  1.
         13    1    4    4    0    0  0.59296955012E+02 -0.94628007010E+00 -0.16564055031E+03  0.17593696663E+03  0.00000000000E+00 0. -1.
        -14    1    4    4    0    0  0.70460378670E+02  0.37752319369E+02 -0.66328244485E+02  0.10387174109E+03  0.00000000000E+00 0.  1.
</event>
<event>
12    1  0.8053217E-002  0.2075503E+03  0.7818608E-02  0.1145126E+00
         21   -1    0    0  501  502  0.00000000000E+00  0.00000000000E+00  0.10793246723E+03  0.10793246723E+03  0.00000000000E+00 0. -1.
         21   -1    0    0  502  503 -0.00000000000E+00 -0.00000000000E+00 -0.51499816303E+03  0.51499816303E+03  0.00000000000E+00 0. -1.
         -6    2    1    2    0  503  0.53564360416E+02 -0.10234848469E+03 -0.36339177848E+03  0.41848621875E+03  0.17243195060E+03 0.  0.
        -24    2    3    3    0    0  0.86537963808E+02 -0.11249797540E+03 -0.33734570868E+03  0.37500336655E+03  0.81736063727E+02 0.  0.
          6    2    1    2  501    0 -0.53564360416E+02  0.10234848469E+03 -0.43673917312E+02  0.20444441151E+03  0.16292867556E+03 0.  0.
         24    2    5    5    0    0  0.23699894105E+02  0.21040019185E+02 -0.21382128100E+02  0.89989855222E+02  0.81465399115E+02 0.  0.
          5    1    5    5  501    0 -0.77264254521E+02  0.81308465501E+02 -0.22291789212E+02  0.11445455629E+03  0.47000000000E+01 0. -1.
        -13    1    6    6    0    0 -0.16886812180E+02 -0.22228913298E+02 -0.42263152310E+01  0.28233858263E+02  0.00000000000E+00 0.  1.
         14    1    6    6    0    0  0.40586706284E+02  0.43268932483E+02 -0.17155812869E+02  0.61755996959E+02  0.00000000000E+00 0. -1.
         -5    1    3    3    0  503 -0.32973603391E+02  0.10149490719E+02 -0.26046069806E+02  0.43482852193E+02  0.47000000000E+01 0.  1.
         11    1    4    4    0    0  0.38454412267E+02 -0.24875257450E+02 -0.19977736253E+03  0.20495978834E+03  0.00000000000E+00 0. -1.
        -12    1    4    4    0    0  0.48083551541E+02 -0.87622717955E+02 -0.13756834614E+03  0.17004357821E+03  0.00000000000E+00 0.  1.
</event>
<event>
12    1  0.8053217E-002  0.1876276E+03  0.7818608E-02  0.1161067E+00
         21   -1    0    0  503  502  0.00000000000E+00  0.00000000000E+00  0.83644907250E+02  0.83644907250E+02  0.00000000000E+00 0.  1.
         21   -1    0    0  501  503 -0.00000000000E+00 -0.00000000000E+00 -0.11651644066E+04  0.11651644066E+04  0.00000000000E+00 0.  1.
          6    2    1    2  501    0  0.65054959329E+02  0.35583533394E+02 -0.10402563388E+04  0.10566980212E+04  0.17023255252E+03 0.  0.
         24    2    3    3    0    0 -0.26816534572E+02  0.12938328322E+02 -0.41005998332E+03  0.41942044180E+03  0.82932443653E+02 0.  0.
         -6    2    1    2    0  502 -0.65054959329E+02 -0.35583533394E+02 -0.41263160564E+02  0.19211129270E+03  0.17235360391E+03 0.  0.
        -24    2    5    5    0    0 -0.83228740312E+02  0.20699961634E+02  0.45525010055E+01  0.11714941590E+03  0.79672760435E+02 0.  0.
          5    1    3    3  501    0  0.91871493902E+02  0.22645205072E+02 -0.63019635551E+03  0.63727757940E+03  0.47000000000E+01 0. -1.
        -11    1    4    4    0    0  0.22779722727E+02 -0.16597213506E+02 -0.18194795430E+03  0.18411800927E+03  0.00000000000E+00 0.  1.
         12    1    4    4    0    0 -0.49596257300E+02  0.29535541828E+02 -0.22811202903E+03  0.23530243253E+03  0.00000000000E+00 0. -1.
         -5    1    5    5    0  502  0.18173780983E+02 -0.56283495028E+02 -0.45815661569E+02  0.74961876796E+02  0.47000000000E+01 0.  1.
         13    1    6    6    0    0  0.59986068606E+01  0.10064728321E+02 -0.20720738028E+02  0.23804012789E+02  0.00000000000E+00 0. -1.
        -14    1    6    6    0    0 -0.89227347173E+02  0.10635233313E+02  0.25273239034E+02  0.93345403113E+02  0.00000000000E+00 0.  1.
</event>
<event>
12    1  0.8053217E-002  0.2836773E+03  0.7818608E-02  0.1093797E+00
         21   -1    0    0  503  502  0.00000000000E+00  0.00000000000E+00  0.46985130524E+03  0.46985130524E+03  0.00000000000E+00 0.  1.
         21   -1    0    0  501  503 -0.00000000000E+00 -0.00000000000E+00 -0.19478092521E+03  0.19478092521E+03  0.00000000000E+00 0. -1.
          6    2    1    2  501    0  0.19815185885E+03  0.10521309773E+03  0.21151182592E+02  0.28446468153E+03  0.17360537840E+03 0.  0.
         24    2    3    3    0    0  0.11453766964E+03  0.59262050548E+02 -0.55717791419E+02  0.16185244502E+03  0.80379557589E+02 0.  0.
         -6    2    1    2    0  502 -0.19815185885E+03 -0.10521309773E+03  0.25391919744E+03  0.38016754893E+03  0.17239040382E+03 0.  0.
        -24    2    5    5    0    0 -0.58880677235E+02 -0.84207911107E+02  0.17611456110E+03  0.21919136643E+03  0.80440102212E+02 0.  0.
          5    1    3    3  501    0  0.83614189214E+02  0.45951047184E+02  0.76868974011E+02  0.12261223650E+03  0.47000000000E+01 0. -1.
        -13    1    4    4    0    0  0.10385301314E+03  0.13632540743E+02 -0.33355898299E+02  0.10992684138E+03  0.00000000000E+00 0.  1.
         14    1    4    4    0    0  0.10684656499E+02  0.45629509804E+02 -0.22361893120E+02  0.51925603640E+02  0.00000000000E+00 0. -1.
         -5    1    5    5    0  502 -0.13927118162E+03 -0.21005186625E+02  0.77804636344E+02  0.16097618250E+03  0.47000000000E+01 0.  1.
         13    1    6    6    0    0 -0.76833734781E+02 -0.78751305144E+02  0.13620959373E+03  0.17509495791E+03  0.00000000000E+00 0. -1.
        -14    1    6    6    0    0  0.17953057546E+02 -0.54566059627E+01  0.39904967366E+02  0.44096408520E+02  0.00000000000E+00 0.  1.
</event>
<event>
12    1  0.8053217E-002  0.1847487E+03  0.7818608E-02  0.1164640E+00
         21   -1    0    0  503  502  0.00000000000E+00  0.00000000000E+00  0.33312562977E+02  0.33312562977E+02  0.00000000000E+00 0. -1.
         21   -1    0    0  501  503 -0.00000000000E+00 -0.00000000000E+00 -0.11702728447E+04  0.11702728447E+04  0.00000000000E+00 0. -1.
          6    2    1    2  501    0  0.44098222667E+02  0.25276462074E+02 -0.79495718753E+03  0.81487190202E+03  0.17168498458E+03 0.  0.
         24    2    3    3    0    0  0.96611065498E+02  0.16019968659E+02 -0.56953869873E+03  0.58318490104E+03  0.78357910125E+02 0.  0.
         -6    2    1    2    0  502 -0.44098222667E+02 -0.25276462074E+02 -0.34200309424E+03  0.38871350570E+03  0.17761903126E+03 0.  0.
        -24    2    5    5    0    0 -0.85630426970E+02 -0.51231089540E+00 -0.15070754035E+03  0.19134515434E+03  0.81039329258E+02 0.  0.
          5    1    3    3  501    0 -0.52512842831E+02  0.92564934143E+01 -0.22541848880E+03  0.23168700099E+03  0.47000000000E+01 0. -1.
        -13    1    4    4    0    0  0.12514036318E+02 -0.27268735949E+02 -0.11034981201E+03  0.11435587468E+03  0.00000000000E+00 0.  1.
         14    1    4    4    0    0  0.84097029180E+02  0.43288704608E+02 -0.45918888672E+03  0.46882902635E+03  0.00000000000E+00 0. -1.
         -5    1    5    5    0  502  0.41532204304E+02 -0.24764151178E+02 -0.19129555389E+03  0.19736835136E+03  0.47000000000E+01 0.  1.
         13    1    6    6    0    0 -0.62100396543E+02 -0.15850809403E+02 -0.15014450100E+03  0.16325158067E+03  0.00000000000E+00 0. -1.
        -14    1    6    6    0    0 -0.23530030427E+02  0.15338498507E+02 -0.56303934457E+00  0.28093573672E+02  0.00000000000E+00 0.  1.
</event>
<event>
12    1  0.8053217E-002  0.1934911E+03  0.7818608E-02  0.1155510E+00
         21   -1    0    0  503  502  0.00000000000E+00  0.00000000000E+00  0.13167601972E+03  0.13167601972E+03  0.00000000000E+00 0. -1.
         21   -1    0    0  501  503 -0.00000000000E+00 -0.00000000000E+00 -0.30480989499E+03  0.30480989499E+03  0.00000000000E+00 0. -1.
          6    2    1    2  501    0 -0.79359509345E+02 -0.40572885606E+02 -0.14444477048E+03  0.24087954186E+03  0.17092270533E+03 0.  0.
         24    2    3    3    0    0 -0.75046167692E+02 -0.63127790296E+02 -0.38792812229E+02  0.13265868008E+03  0.80476070529E+02 0.  0.
         -6    2    1    2    0  502  0.79359509345E+02  0.40572885606E+02 -0.28689104790E+02  0.19560637284E+03  0.17174020377E+03 0.  0.
        -24    2    5    5    0    0  0.11802336654E+03  0.13184160621E+02 -0.29845339462E+02  0.14797798857E+03  0.83086723799E+02 0.  0.
          5    1    3    3  501    0 -0.43133416528E+01  0.22554904690E+02 -0.10565195825E+03  0.10822086178E+03  0.47000000000E+01 0. -1.
        -11    1    4    4    0    0  0.16579572846E+02 -0.20360605876E+01 -0.61080699294E+01  0.17785845404E+02  0.00000000000E+00 0.  1.
         12    1    4    4    0    0 -0.91625740538E+02 -0.61091729708E+02 -0.32684742300E+02  0.11487283468E+03  0.00000000000E+00 0. -1.
         -5    1    5    5    0  502 -0.38663857198E+02  0.27388724985E+02  0.11562346726E+01  0.47628384272E+02  0.47000000000E+01 0.  1.
         11    1    6    6    0    0  0.96024157099E+02 -0.22518303188E+02 -0.37182038039E+02  0.10540501258E+03  0.00000000000E+00 0. -1.
        -12    1    6    6    0    0  0.21999209443E+02  0.35702463808E+02  0.73366985770E+01  0.42572975984E+02  0.00000000000E+00 0.  1.
</event>
<event>
12    1  0.8053217E-002  0.2048831E+03  0.7818608E-02  0.1145741E+00
         21   -1    0    0  503  502  0.00000000000E+00  0.00000000000E+00  0.21291688620E+03  0.21291688620E+03  0.00000000000E+00 0. -1.
         21   -1    0    0  501  503 -0.00000000000E+00 -0.00000000000E+00 -0.33722549745E+03  0.33722549745E+03  0.00000000000E+00 0.  1.
          6    2    1    2  501    0 -0.75215402032E+02 -0.82460639997E+02  0.11532257424E+03  0.23486444679E+03  0.17147856537E+03 0.  0.
         24    2    3    3    0    0 -0.75479575494E+02 -0.12721219828E+02  0.12165147273E+03  0.16468039255E+03  0.80383798880E+02 0.  0.
         -6    2    1    2    0  502  0.75215402032E+02  0.82460639997E+02 -0.23963118550E+03  0.31527793686E+03  0.17181373216E+03 0.  0.
        -24    2    5    5    0    0  0.11457313414E+03  0.85413143440E+02 -0.17228343642E+03  0.23707590582E+03  0.78108863229E+02 0.  0.
          5    1    3    3  501    0  0.26417346295E+00 -0.69739420169E+02 -0.63288984856E+01  0.70184054237E+02  0.47000000000E+01 0. -1.
        -13    1    4    4    0    0  0.15048289104E+02  0.58525991392E+00  0.38988775320E+01  0.15556181412E+02  0.00000000000E+00 0.  1.
         14    1    4    4    0    0 -0.90527864598E+02 -0.13306479742E+02  0.11775259520E+03  0.14912421114E+03  0.00000000000E+00 0. -1.
         -5    1    5    5    0  502 -0.39357732113E+02 -0.29525034430E+01 -0.67347749077E+02  0.78202031044E+02  0.47000000000E+01 0.  1.
         11    1    6    6    0    0  0.65201922757E+00  0.31010226768E+02 -0.12507909347E+02  0.33444089007E+02  0.00000000000E+00 0. -1.
        -12    1    6    6    0    0  0.11392111492E+03  0.54402916672E+02 -0.15977552708E+03  0.20363181681E+03  0.00000000000E+00 0.  1.
</event>
<event>
12    1  0.8053217E-002  0.2017878E+03  0.7818608E-02  0.1148361E+00
         21   -1    0    0  503  502  0.00000000000E+00  0.00000000000E+00  0.31601983226E+03  0.31601983226E+03  0.00000000000E+00 0.  1.
         21   -1    0    0  501  503 -0.00000000000E+00 -0.00000000000E+00 -0.21579424371E+03  0.21579424371E+03  0.00000000000E+00 0.  1.
          6    2    1    2  501    0 -0.67661348450E+02  0.79204231762E+02 -0.11907727714E+03  0.23380053724E+03  0.17213926014E+03 0.  0.
         24    2    3    3    0    0 -0.23477808353E+02  0.75076637233E+02 -0.14425092923E+03  0.18256553933E+03  0.79587289333E+02 0.  0.
         -6    2    1    2    0  502  0.67661348450E+02 -0.79204231762E+02  0.21930286569E+03  0.29801353873E+03  0.17282058316E+03 0.  0.
        -24    2    5    5    0    0 -0.27104028789E+02 -0.28876634296E+02  0.68052426716E+02  0.11250847389E+03  0.80365014345E+02 0.  0.
          5    1    3    3  501    0 -0.44183540097E+02  0.41275945284E+01  0.25173652086E+02  0.51234997916E+02  0.47000000000E+01 0. -1.
        -11    1    4    4    0    0 -0.91280657063E+01 -0.66153076257E+01 -0.71055788640E+02  0.71944485389E+02  0.00000000000E+00 0.  1.
         12    1    4    4    0    0 -0.14349742646E+02  0.81691944859E+02 -0.73195140589E+02  0.11062105394E+03  0.00000000000E+00 0. -1.
         -5    1    5    5    0  502  0.94765377239E+02 -0.50327597466E+02  0.15125043897E+03  0.18550506484E+03  0.47000000000E+01 0.  1.
         13    1    6    6    0    0  0.15017059773E+01 -0.25109479007E+02 -0.11667031708E+02  0.27728337233E+02  0.00000000000E+00 0. -1.
        -14    1    6    6    0    0 -0.28605734766E+02 -0.37671552892E+01  0.79719458424E+02  0.84780136659E+02  0.00000000000E+00 0.  1.
</event>
<event>
12    1  0.8053217E-002  0.1918596E+03  0.7818608E-02  0.1157209E+00
         21   -1    0    0  503  502  0.00000000000E+00  0.00000000000E+00  0.36114982790E+02  0.36114982790E+02  0.00000000000E+00 0. -1.
         21   -1    0    0  501  503 -0.00000000000E+00 -0.00000000000E+00 -0.28205887180E+04  0.28205887180E+04  0.00000000000E+00 0. -1.
          6    2    1    2  501    0  0.58460332299E+02 -0.56838627285E+02 -0.25392154132E+04  0.25464534209E+04  0.17367173138E+03 0.  0.
         24    2    3    3    0    0 -0.19481404683E+02 -0.20766730613E+02 -0.66152968081E+03  0.66679869313E+03  0.78665089683E+02 0.  0.
         -6    2    1    2    0  502 -0.58460332299E+02  0.56838627285E+02 -0.24525832204E+03  0.31025027990E+03  0.17162561477E+03 0.  0.
        -24    2    5    5    0    0 -0.73423867530E+02  0.84957880485E+01 -0.23489292524E+03  0.25838054939E+03  0.78246912005E+02 0.  0.
          5    1    3    3  501    0  0.77941736983E+02 -0.36071896672E+02 -0.18776857324E+04  0.18796547278E+04  0.47000000000E+01 0. -1.
        -11    1    4    4    0    0  0.24477494409E+01 -0.11631329640E+02 -0.12193960042E+02  0.17028563299E+02  0.00000000000E+00 0.  1.
         12    1    4    4    0    0 -0.21929154124E+02 -0.91354009728E+01 -0.64933572077E+03  0.64977012983E+03  0.00000000000E+00 0. -1.
         -5    1    5    5    0  502  0.14963535230E+02  0.48342839236E+02 -0.10365396798E+02  0.51869730506E+02  0.47000000000E+01 0.  1.
         13    1    6    6    0    0 -0.40929875532E+02 -0.20319887104E+02 -0.47074270449E+02  0.65605940747E+02  0.00000000000E+00 0. -1.
        -14    1    6    6    0    0 -0.32493991998E+02  0.28815675152E+02 -0.18781865479E+03  0.19277460865E+03  0.00000000000E+00 0.  1.
</event>
<event>
12    1  0.8053217E-002  0.1818600E+03  0.7818608E-02  0.1166864E+00
         21   -1    0    0  503  502  0.00000000000E+00  0.00000000000E+00  0.15307774764E+04  0.15307774764E+04  0.00000000000E+00 0. -1.
         21   -1    0    0  501  503 -0.00000000000E+00 -0.00000000000E+00 -0.30719760767E+02  0.30719760767E+02  0.00000000000E+00 0. -1.
          6    2    1    2  501    0  0.51003935830E+02 -0.20329971405E+02  0.32022643154E+03  0.36826351149E+03  0.17337340405E+03 0.  0.
         24    2    3    3    0    0 -0.38587954016E+02  0.12825815461E+01  0.13226501103E+03  0.15887059191E+03  0.79089548111E+02 0.  0.
         -6    2    1    2    0  502 -0.51003935830E+02  0.20329971405E+02  0.11798312840E+04  0.11932337256E+04  0.16967662171E+03 0.  0.
        -24    2    5    5    0    0 -0.26651118752E+01  0.22402168997E+02  0.10628158855E+04  0.10665229155E+04  0.85933479093E+02 0.  0.
          5    1    3    3  501    0  0.89591889846E+02 -0.21612552951E+02  0.18796142052E+03  0.20939291959E+03  0.47000000000E+01 0. -1.
        -13    1    4    4    0    0  0.21126218701E+02 -0.57724562736E+01  0.65283292276E+02  0.68858889175E+02  0.00000000000E+00 0.  1.
         14    1    4    4    0    0 -0.59714172717E+02  0.70550378197E+01  0.66981718750E+02  0.90011702731E+02  0.00000000000E+00 0. -1.
         -5    1    5    5    0  502 -0.48338823955E+02 -0.20721975916E+01  0.11701539850E+03  0.12671081008E+03  0.47000000000E+01 0.  1.
         11    1    6    6    0    0 -0.20587379890E+02 -0.21968532781E+02  0.68886322017E+03  0.68952084287E+03  0.00000000000E+00 0. -1.
        -12    1    6    6    0    0  0.17922268015E+02  0.44370701777E+02  0.37395266537E+03  0.37700207268E+03  0.00000000000E+00 0.  1.
</event>
<event>
12    1  0.8053217E-002  0.2205068E+03  0.7818608E-02  0.1134107E+00
         21   -1    0    0  503  502  0.00000000000E+00  0.00000000000E+00  0.37039227416E+02  0.37039227416E+02  0.00000000000E+00 0.  1.
         21   -1    0    0  501  503 -0.00000000000E+00 -0.00000000000E+00 -0.15716328145E+04  0.15716328145E+04  0.00000000000E+00 0.  1.
          6    2    1    2  501    0  0.38178605415E+02  0.13221785946E+03 -0.11101485994E+04  0.11318361852E+04  0.17229065341E+03 0.  0.
         24    2    3    3    0    0  0.87322995086E+02  0.10520258325E+03 -0.91783307779E+03  0.93145568213E+03  0.80617864584E+02 0.  0.
         -6    2    1    2    0  502 -0.38178605415E+02 -0.13221785946E+03 -0.42444498769E+03  0.47683585665E+03  0.16816574665E+03 0.  0.
        -24    2    5    5    0    0 -0.61450599902E+02 -0.23641901938E+02 -0.23385798356E+03  0.25620988261E+03  0.81356202705E+02 0.  0.
          5    1    3    3  501    0 -0.49144389671E+02  0.27015276212E+02 -0.19231552159E+03  0.20038050312E+03  0.47000000000E+01 0. -1.
        -11    1    4    4    0    0  0.62248420982E+02  0.79976668336E+02 -0.83738555103E+03  0.84349611408E+03  0.00000000000E+00 0.  1.
         12    1    4    4    0    0  0.25074574104E+02  0.25225914910E+02 -0.80447526767E+02  0.87959568055E+02  0.00000000000E+00 0. -1.
         -5    1    5    5    0  502  0.23271994487E+02 -0.10857595752E+03 -0.19058700412E+03  0.22062597404E+03  0.47000000000E+01 0.  1.
         11    1    6    6    0    0  0.81767581891E+01  0.15246386697E+02 -0.90711595085E+02  0.92346657572E+02  0.00000000000E+00 0. -1.
        -12    1    6    6    0    0 -0.69627358091E+02 -0.38888288635E+02 -0.14314638848E+03  0.16386322504E+03  0.00000000000E+00 0.  1.
</event>
<event>
12    1  0.8053217E-002  0.1792174E+03  0.7818608E-02  0.1168772E+00
         21   -1    0    0  503  502  0.00000000000E+00  0.00000000000E+00  0.27186440024E+03  0.27186440024E+03  0.00000000000E+00 0. -1.
         21   -1    0    0  501  503 -0.00000000000E+00 -0.00000000000E+00 -0.11766053348E+03  0.11766053348E+03  0.00000000000E+00 0. -1.
          6    2    1    2  501    0 -0.26481779191E+02  0.43663578530E+02  0.71729433093E+02  0.19224111921E+03  0.17089102851E+03 0.  0.
         24    2    3    3    0    0  0.53154395083E+02  0.31651026797E+02  0.44268651860E+02  0.10702136705E+03  0.75277368805E+02 0.  0.
         -6    2    1    2    0  502  0.26481779191E+02 -0.43663578530E+02  0.82474433658E+02  0.19728381451E+03  0.17178788822E+03 0.  0.
        -24    2    5    5    0    0  0.18478592956E+02  0.36067077346E+02  0.94943094750E+01  0.88797792358E+02  0.78438597319E+02 0.  0.
          5    1    3    3  501    0 -0.79636174274E+02  0.12012551733E+02  0.27460781233E+02  0.85219752159E+02  0.47000000000E+01 0. -1.
        -11    1    4    4    0    0  0.17206101094E+02  0.27602789970E+02 -0.16368705901E+02  0.36412888678E+02  0.00000000000E+00 0.  1.
         12    1    4    4    0    0  0.35948293989E+02  0.40482368270E+01  0.60637357761E+02  0.70608478374E+02  0.00000000000E+00 0. -1.
         -5    1    5    5    0  502  0.80031862354E+01 -0.79730655876E+02  0.72980124183E+02  0.10848602215E+03  0.47000000000E+01 0.  1.
         11    1    6    6    0    0  0.10140627001E+02  0.50528809247E+02  0.32085581790E+02  0.60708133217E+02  0.00000000000E+00 0. -1.
        -12    1    6    6    0    0  0.83379659552E+01 -0.14461731901E+02 -0.22591272315E+02  0.28089659141E+02  0.00000000000E+00 0.  1.
</event>
<event>
12    1  0.8053217E-002  0.1825656E+03  0.7818608E-02  0.1166566E+00
         21   -1    0    0  501  502  0.00000000000E+00  0.00000000000E+00  0.10104450849E+03  0.10104450849E+03  0.00000000000E+00 0.  1.
         21   -1    0    0  502  503 -0.00000000000E+00 -0.00000000000E+00 -0.32952940634E+03  0.32952940634E+03  0.00000000000E+00 0.  1.
         -6    2    1    2    0  503 -0.45591063958E+02 -0.10289651070E+02 -0.80687657975E+02  0.19960134149E+03  0.17648165725E+03 0.  0.
        -24    2    3    3    0    0  0.34706172875E+02 -0.21578064468E+02 -0.21602184785E+02  0.99161022586E+02  0.87727548188E+02 0.  0.
          6    2    1    2  501    0  0.45591063958E+02  0.10289651070E+02 -0.14779723987E+03  0.23097257333E+03  0.17123049811E+03 0.  0.
         24    2    5    5    0    0  0.60372012458E+02  0.43543134435E+02 -0.15355507724E+03  0.19383077362E+03  0.91926180238E+02 0.  0.
          5    1    5    5  501    0 -0.14780948500E+02 -0.33253483366E+02  0.57578373618E+01  0.37141799709E+02  0.47000000000E+01 0. -1.
        -13    1    6    6    0    0  0.28037517337E+02  0.70226567374E+02 -0.10892018832E+03  0.13259517551E+03  0.00000000000E+00 0.  1.
         14    1    6    6    0    0  0.32334495121E+02 -0.26683432938E+02 -0.44634888911E+02  0.61235598113E+02  0.00000000000E+00 0. -1.
         -5    1    3    3    0  503 -0.80297236833E+02  0.11288413398E+02 -0.59085473189E+02  0.10044031891E+03  0.47000000000E+01 0.  1.
         11    1    4    4    0    0  0.58096965326E+01 -0.27370236944E+02 -0.50596830630E+02  0.57818005102E+02  0.00000000000E+00 0. -1.
        -12    1    4    4    0    0  0.28896476343E+02  0.57921724762E+01  0.28994645845E+02  0.41343017484E+02  0.00000000000E+00 0.  1.
</event>
<event>
12    1  0.8053217E-002  0.1747860E+03  0.7818608E-02  0.1173351E+00
         21   -1    0    0  503  502  0.00000000000E+00  0.00000000000E+00  0.98993508979E+02  0.98993508979E+02  0.00000000000E+00 0. -1.
         21   -1    0    0  501  503 -0.00000000000E+00 -0.00000000000E+00 -0.14898321878E+04  0.14898321878E+04  0.00000000000E+00 0. -1.
          6    2    1    2  501    0 -0.14378309319E+02  0.15394453775E+02 -0.14042817426E+04  0.14151174323E+04  0.17351198686E+03 0.  0.
         24    2    3    3    0    0  0.39371810207E+02  0.27686787178E+02 -0.11940556329E+04  0.11977300270E+04  0.80446661331E+02 0.  0.
         -6    2    1    2    0  502  0.14378309319E+02 -0.15394453775E+02  0.13443063778E+02  0.17370826449E+03  0.17190148400E+03 0.  0.
        -24    2    5    5    0    0 -0.46540520010E+02  0.26312725972E+02 -0.88682260402E+01  0.96439407486E+02  0.79771764004E+02 0.  0.
          5    1    3    3  501    0 -0.53750119526E+02 -0.12292333403E+02 -0.21022610963E+03  0.21738740529E+03  0.47000000000E+01 0. -1.
        -13    1    4    4    0    0  0.56185151689E+02  0.25326113828E+02 -0.54855259603E+03  0.55200374448E+03  0.00000000000E+00 0.  1.
         14    1    4    4    0    0 -0.16813341483E+02  0.23606733504E+01 -0.64550303692E+03  0.64572628249E+03  0.00000000000E+00 0. -1.
         -5    1    5    5    0  502  0.60918829330E+02 -0.41707179747E+02  0.22311289818E+02  0.77268857004E+02  0.47000000000E+01 0.  1.
         13    1    6    6    0    0 -0.37179356198E+02  0.26916893804E+02  0.31061634387E+02  0.55422457814E+02  0.00000000000E+00 0. -1.
        -14    1    6    6    0    0 -0.93611638124E+01 -0.60416783191E+00 -0.39929860427E+02  0.41016949672E+02  0.00000000000E+00 0.  1.
</event>
<event>
12    1  0.8053217E-002  0.2141010E+03  0.7818608E-02  0.1138389E+00
         21   -1    0    0  503  502  0.00000000000E+00  0.00000000000E+00  0.13602544586E+04  0.13602544586E+04  0.00000000000E+00 0. -1.
         21   -1    0    0  501  503 -0.00000000000E+00 -0.00000000000E+00 -0.40051558060E+02  0.40051558060E+02  0.00000000000E+00 0.  1.
          6    2    1    2  501    0  0.41400897083E+02 -0.12039600067E+03  0.38092054280E+03  0.43696645551E+03  0.17213364592E+03 0.  0.
         24    2    3    3    0    0 -0.80606416340E+01 -0.10707527259E+03  0.15139394467E+03  0.20174648430E+03  0.79065981931E+02 0.  0.
         -6    2    1    2    0  502 -0.41400897083E+02  0.12039600067E+03  0.93928235773E+03  0.96333956114E+03  0.17193757954E+03 0.  0.
        -24    2    5    5    0    0 -0.75490081644E+02  0.26753506310E+02  0.51042378465E+03  0.52302972142E+03  0.81321258114E+02 0.  0.
          5    1    3    3  501    0  0.49461538717E+02 -0.13320728076E+02  0.22952659813E+03  0.23521997121E+03  0.47000000000E+01 0. -1.
        -13    1    4    4    0    0  0.78735917478E+01 -0.37683235792E+02  0.48228892674E+01  0.38797937672E+02  0.00000000000E+00 0.  1.
         14    1    4    4    0    0 -0.15934233382E+02 -0.69392036803E+02  0.14657105541E+03  0.16294854663E+03  0.00000000000E+00 0. -1.
         -5    1    5    5    0  502  0.34089184562E+02  0.93642494361E+02  0.42885857308E+03  0.44030983972E+03  0.47000000000E+01 0.  1.
         13    1    6    6    0    0 -0.36482950652E+02  0.41919617209E+02  0.41665910533E+03  0.42034874813E+03  0.00000000000E+00 0. -1.
        -14    1    6    6    0    0 -0.39007130993E+02 -0.15166110900E+02  0.93764679320E+02  0.10268097329E+03  0.00000000000E+00 0.  1.
</event>
<event>
12    1  0.8053217E-002  0.1774106E+03  0.7818608E-02  0.1170429E+00
         21   -1    0    0  501  502  0.00000000000E+00  0.00000000000E+00  0.17488988481E+03  0.17488988481E+03  0.00000000000E+00 0. -1.
         21   -1    0    0  502  503 -0.00000000000E+00 -0.00000000000E+00 -0.28382116069E+03  0.28382116069E+03  0.00000000000E+00 0. -1.
         -6    2    1    2    0  503 -0.55201238614E+01  0.39470604012E+02 -0.19343043297E+03  0.26220498575E+03  0.17247527883E+03 0.  0.
        -24    2    3    3    0    0  0.38339893160E+02 -0.30427497006E+02 -0.12181451851E+03  0.15284148716E+03  0.78268533257E+02 0.  0.
          6    2    1    2  501    0  0.55201238614E+01 -0.39470604012E+02  0.84499157092E+02  0.19650605975E+03  0.17287603541E+03 0.  0.
         24    2    5    5    0    0  0.33173630589E+02 -0.35331997271E+02  0.11971679445E+03  0.15129304745E+03  0.78794895357E+02 0.  0.
          5    1    5    5  501    0 -0.27653506727E+02 -0.41386067402E+01 -0.35217637361E+02  0.45213012302E+02  0.47000000000E+01 0. -1.
        -11    1    6    6    0    0  0.42352384602E+02  0.11488754373E+02  0.46820167570E+02  0.64170429715E+02  0.00000000000E+00 0.  1.
         12    1    6    6    0    0 -0.91787540129E+01 -0.46820751644E+02  0.72896626883E+02  0.87122617733E+02  0.00000000000E+00 0. -1.
         -5    1    3    3    0  503 -0.43860017022E+02  0.69898101018E+02 -0.71615914464E+02  0.10936349859E+03  0.47000000000E+01 0.  1.
         11    1    4    4    0    0  0.18207107754E+02 -0.41011944748E+01  0.69233070149E+01  0.19906048048E+02  0.00000000000E+00 0. -1.
        -12    1    4    4    0    0  0.20132785406E+02 -0.26326302531E+02 -0.12873782552E+03  0.13293543912E+03  0.00000000000E+00 0.  1.
</event>
<event>
12    1  0.8053217E-002  0.2298665E+03  0.7818608E-02  0.1126938E+00
         21   -1    0    0  503  502  0.00000000000E+00  0.00000000000E+00  0.26158872953E+02  0.26158872953E+02  0.00000000000E+00 0.  1.
         21   -1    0    0  501  503 -0.00000000000E+00 -0.00000000000E+00 -0.20229517040E+04  0.20229517040E+04  0.00000000000E+00 0.  1.
          6    2    1    2  501    0 -0.13103738027E+03 -0.71749131127E+02 -0.91316876979E+03  0.94137427851E+03  0.17317504807E+03 0.  0.
         24    2    3    3    0    0 -0.92989783886E+02 -0.11481946045E+03 -0.62996381786E+03  0.65235904075E+03  0.82989745337E+02 0.  0.
         -6    2    1    2    0  502  0.13103738027E+03  0.71749131127E+02 -0.10836240613E+04  0.11077362985E+04  0.17469936437E+03 0.  0.
        -24    2    5    5    0    0  0.19213984313E+02  0.81888318260E+02 -0.62777497713E+03  0.63823895820E+03  0.78566354061E+02 0.  0.
          5    1    3    3  501    0 -0.38047596384E+02  0.43070329324E+02 -0.28320495194E+03  0.28901523777E+03  0.47000000000E+01 0. -1.
        -13    1    4    4    0    0 -0.78405112695E+02 -0.64771364968E+02 -0.26775779090E+03  0.28642088961E+03  0.00000000000E+00 0.  1.
         14    1    4    4    0    0 -0.14584671191E+02 -0.50048095484E+02 -0.36220602696E+03  0.36593815114E+03  0.00000000000E+00 0. -1.
         -5    1    5    5    0  502  0.11182339596E+03 -0.10139187132E+02 -0.45584908417E+03  0.46949734029E+03  0.47000000000E+01 0.  1.
         11    1    6    6    0    0 -0.29090941049E+02  0.43280370195E+02 -0.24363484799E+03  0.24915339140E+03  0.00000000000E+00 0. -1.
        -12    1    6    6    0    0  0.48304925362E+02  0.38607948065E+02 -0.38414012915E+03  0.38908556680E+03  0.00000000000E+00 0.  1.
</event>
<event>
12    1  0.8053217E-002  0.2346265E+03  0.7818608E-02  0.1124827E+00
         21   -1    0    0  501  502  0.00000000000E+00  0.00000000000E+00  0.11902225157E+03  0.11902225157E+03  0.00000000000E+00 0.  1.
         21   -1    0    0  502  503 -0.00000000000E+00 -0.00000000000E+00 -0.44703017053E+03  0.44703017053E+03  0.00000000000E+00 0. -1.
         -6    2    1    2    0  503 -0.92088588727E+02  0.13068877188E+03 -0.16083757103E+03  0.28446149052E+03  0.17172580489E+03 0.  0.
        -24    2    3    3    0    0 -0.89380466804E+02  0.64515127922E+02 -0.32513530817E+02  0.13997815454E+03  0.79910477942E+02 0.  0.
          6    2    1    2  501    0  0.92088588727E+02 -0.13068877188E+03 -0.16717034793E+03  0.28159093158E+03  0.16058537993E+03 0.  0.
         24    2    5    5    0    0  0.43819895729E+02 -0.86708804949E+01 -0.46134093202E+02  0.10301294441E+03  0.80547779172E+02 0.  0.
          5    1    5    5  501    0  0.48268692997E+02 -0.12201789139E+03 -0.12103625473E+03  0.17857798717E+03  0.47000000000E+01 0. -1.
        -13    1    6    6    0    0  0.61686147435E+01 -0.34528091783E+02  0.38708063495E+01  0.35287732597E+02  0.00000000000E+00 0.  1.
         14    1    6    6    0    0  0.37651280986E+02  0.25857211289E+02 -0.50004899551E+02  0.67725211810E+02  0.00000000000E+00 0. -1.
         -5    1    3    3    0  503 -0.27081219231E+01  0.66173643962E+02 -0.12832404022E+03  0.14448333599E+03  0.47000000000E+01 0.  1.
         11    1    4    4    0    0 -0.56283795748E+02 -0.75531987825E+01 -0.15561468342E+02  0.58881879832E+02  0.00000000000E+00 0. -1.
        -12    1    4    4    0    0 -0.33096671056E+02  0.72068326705E+02 -0.16952062475E+02  0.81096274706E+02  0.00000000000E+00 0.  1.
</event>
<event>
12    1  0.8053217E-002  0.1733126E+03  0.7818608E-02  0.1174439E+00
         21   -1    0    0  501  502  0.00000000000E+00  0.00000000000E+00  0.18502755904E+03  0.18502755904E+03  0.00000000000E+00 0.  1.
         21   -1    0    0  502  503 -0.00000000000E+00 -0.00000000000E+00 -0.30440262478E+03  0.30440262478E+03  0.00000000000E+00 0.  1.
         -6    2    1    2    0  503  0.25625909120E+02  0.10846174113E+02 -0.22686997498E+03  0.28549471045E+03  0.17106407406E+03 0.  0.
        -24    2    3    3    0    0  0.44123826079E+02 -0.42151939284E+02 -0.82449143250E+02  0.13047716437E+03  0.80639513795E+02 0.  0.
          6    2    1    2  501    0 -0.25625909120E+02 -0.10846174113E+02  0.10749490924E+03  0.20393547337E+03  0.17105611675E+03 0.  0.
         24    2    5    5    0    0  0.21722702246E+01  0.48581475373E+02  0.20752685179E+02  0.95074609270E+02  0.79016636719E+02 0.  0.
          5    1    5    5  501    0 -0.27798179345E+02 -0.59427649486E+02  0.86742224057E+02  0.10886086410E+03  0.47000000000E+01 0. -1.
        -13    1    6    6    0    0  0.31380462577E+02  0.83234248669E+00 -0.76449248165E+01  0.32308994119E+02  0.00000000000E+00 0.  1.
         14    1    6    6    0    0 -0.29208192352E+02  0.47749132886E+02  0.28397609995E+02  0.62765615151E+02  0.00000000000E+00 0. -1.
         -5    1    3    3    0  503 -0.18497916959E+02  0.52998113397E+02 -0.14442083173E+03  0.15501754608E+03  0.47000000000E+01 0.  1.
         13    1    4    4    0    0  0.58181538428E+02 -0.23987415102E+02 -0.86685593848E+02  0.10712086481E+03  0.00000000000E+00 0. -1.
        -14    1    4    4    0    0 -0.14057712349E+02 -0.18164524182E+02  0.42364505977E+01  0.23356299555E+02  0.00000000000E+00 0.  1.
</event>
<event>
12    1  0.8053217E-002  0.1806857E+03  0.7818608E-02  0.1167604E+00
         21   -1    0    0  503  502  0.00000000000E+00  0.00000000000E+00  0.32690064602E+03  0.32690064602E+03  0.00000000000E+00 0. -1.
         21   -1    0    0  501  503 -0.00000000000E+00 -0.00000000000E+00 -0.11730285979E+03  0.11730285979E+03  0.00000000000E+00 0. -1.
          6    2    1    2  501    0  0.10586262644E+02 -0.54633950513E+02  0.16156354135E+02  0.17950196044E+03  0.16989110782E+03 0.  0.
         24    2    3    3    0    0 -0.19290564351E+02  0.27372741096E+02  0.19262057325E+02  0.92040782466E+02  0.83540923843E+02 0.  0.
         -6    2    1    2    0  502 -0.10586262644E+02  0.54633950513E+02  0.19344143209E+03  0.26470154537E+03  0.17190224828E+03 0.  0.
        -24    2    5    5    0    0  0.46399059375E+02  0.73341797292E+02  0.11477699811E+03  0.16566875469E+03  0.82100457020E+02 0.  0.
          5    1    3    3  501    0  0.29876826995E+02 -0.82006691609E+02 -0.31057031897E+01  0.87461177972E+02  0.47000000000E+01 0. -1.
        -13    1    4    4    0    0  0.29356075810E+02  0.19881739042E+02  0.23660068832E+02  0.42624659429E+02  0.00000000000E+00 0.  1.
         14    1    4    4    0    0 -0.48646640162E+02  0.74910020538E+01 -0.43980115065E+01  0.49416123037E+02  0.00000000000E+00 0. -1.
         -5    1    5    5    0  502 -0.56985322019E+02 -0.18707846779E+02  0.78664433982E+02  0.99032790683E+02  0.47000000000E+01 0.  1.
         11    1    6    6    0    0 -0.86670356578E+01  0.25516271836E+02  0.80861321752E+02  0.85233508616E+02  0.00000000000E+00 0. -1.
        -12    1    6    6    0    0  0.55066095033E+02  0.47825525457E+02  0.33915676358E+02  0.80435246069E+02  0.00000000000E+00 0.  1.
</event>
<event>
12    1  0.8053217E-002  0.3028912E+03  0.7818608E-02  0.1083954E+00
         21   -1    0    0  503  502  0.00000000000E+00  0.00000000000E+00  0.16615929136E+03  0.16615929136E+03  0.00000000000E+00 0. -1.
         21   -1    0    0  501  503 -0.00000000000E+00 -0.00000000000E+00 -0.66493197934E+03  0.66493197934E+03  0.00000000000E+00 0.  1.
          6    2    1    2  501    0  0.23588919528E+03 -0.80441472590E+02 -0.42178387181E+03  0.51856869477E+03  0.16999209897E+03 0.  0.
         24    2    3    3    0    0  0.78057188581E+02 -0.83744722222E+02 -0.17001463046E+03  0.22136220983E+03  0.83607118016E+02 0.  0.
         -6    2    1    2    0  502 -0.23588919528E+03  0.80441472590E+02 -0.76988816162E+02  0.31252257593E+03  0.17212942716E+03 0.  0.
        -24    2    5    5    0    0 -0.92029410505E+02  0.56272444684E+02 -0.98772251640E+02  0.16495432852E+03  0.76275634207E+02 0.  0.
          5    1    3    3  501    0  0.15783200669E+03  0.33032496319E+01 -0.25176924136E+03  0.29720648494E+03  0.47000000000E+01 0. -1.
        -13    1    4    4    0    0  0.36962215808E+02  0.10283831996E+02 -0.57016512084E+02  0.68722960124E+02  0.00000000000E+00 0.  1.
         14    1    4    4    0    0  0.41094972773E+02 -0.94028554218E+02 -0.11299811837E+03  0.15263924971E+03  0.00000000000E+00 0. -1.
         -5    1    5    5    0  502 -0.14385978477E+03  0.24169027906E+02  0.21783435478E+02  0.14756824742E+03  0.47000000000E+01 0.  1.
         11    1    6    6    0    0 -0.16996707384E+02  0.18235358152E+02  0.10501955238E+02  0.27050090807E+02  0.00000000000E+00 0. -1.
        -12    1    6    6    0    0 -0.75032703122E+02  0.38037086532E+02 -0.10927420688E+03  0.13790423771E+03  0.00000000000E+00 0.  1.
</event>
<event>
12    1  0.8053217E-002  0.1717298E+03  0.7818608E-02  0.1176392E+00
         21   -1    0    0  501  502  0.00000000000E+00  0.00000000000E+00  0.37989326690E+02  0.37989326690E+02  0.00000000000E+00 0. -1.
         21   -1    0    0  502  503 -0.00000000000E+00 -0.00000000000E+00 -0.10132786901E+04  0.10132786901E+04  0.00000000000E+00 0. -1.
         -6    2    1    2    0  503  0.29271566719E+01 -0.87077223418E+01 -0.23172892051E+03  0.28842574398E+03  0.17148388996E+03 0.  0.
        -24    2    3    3    0    0  0.31741808576E+02  0.49737024061E+02 -0.17785569304E+03  0.20374701475E+03  0.79993027806E+02 0.  0.
          6    2    1    2  501    0 -0.29271566719E+01  0.87077223418E+01 -0.74356044286E+03  0.76284227277E+03  0.17018169192E+03 0.  0.
         24    2    5    5    0    0 -0.57367775956E+02  0.33371684211E+02 -0.53788682937E+03  0.54860918166E+03  0.85117929720E+02 0.  0.
          5    1    5    5  501    0  0.54440619284E+02 -0.24663961869E+02 -0.20567361348E+03  0.21423309111E+03  0.47000000000E+01 0. -1.
        -11    1    6    6    0    0  0.18341285197E+02  0.67981487892E+01 -0.21555964892E+03  0.21644532754E+03  0.00000000000E+00 0.  1.
         12    1    6    6    0    0 -0.75709061153E+02  0.26573535422E+02 -0.32232718045E+03  0.33216385412E+03  0.00000000000E+00 0. -1.
         -5    1    3    3    0  503 -0.28814651904E+02 -0.58444746403E+02 -0.53873227470E+02  0.84678729233E+02  0.47000000000E+01 0.  1.
         11    1    4    4    0    0  0.45502388875E+02  0.55299930745E+02 -0.91843745449E+02  0.11646382834E+03  0.00000000000E+00 0. -1.
        -12    1    4    4    0    0 -0.13760580298E+02 -0.55629066832E+01 -0.86011947589E+02  0.87283186405E+02  0.00000000000E+00 0.  1.
</event>
<event>
12    1  0.8053217E-002  0.1950091E+03  0.7818608E-02  0.1154502E+00
         21   -1    0    0  503  502  0.00000000000E+00  0.00000000000E+00  0.51878234062E+03  0.51878234062E+03  0.00000000000E+00 0. -1.
         21   -1    0    0  501  503 -0.00000000000E+00 -0.00000000000E+00 -0.88304106564E+02  0.88304106564E+02  0.00000000000E+00 0. -1.
          6    2    1    2  501    0  0.17226338166E+02 -0.90178529460E+02  0.87743862301E+02  0.21384001596E+03  0.17204549733E+03 0.  0.
         24    2    3    3    0    0 -0.29535426842E+02 -0.10909202405E+03  0.87679332151E+02  0.16317960628E+03  0.78527112966E+02 0.  0.
         -6    2    1    2    0  502 -0.17226338166E+02  0.90178529460E+02  0.34273437176E+03  0.39324643123E+03  0.16954937979E+03 0.  0.
        -24    2    5    5    0    0  0.41044855112E+02  0.35131314649E+02  0.26190078634E+03  0.27930834999E+03  0.80636487333E+02 0.  0.
          5    1    3    3  501    0  0.46761765007E+02  0.18913494588E+02  0.64530150577E-01  0.50660409673E+02  0.47000000000E+01 0. -1.
        -13    1    4    4    0    0 -0.36054390712E+02 -0.15323579540E+02  0.45822899160E+02  0.60286559588E+02  0.00000000000E+00 0.  1.
         14    1    4    4    0    0  0.65189638707E+01 -0.93768444509E+02  0.41856432990E+02  0.10289304670E+03  0.00000000000E+00 0. -1.
         -5    1    5    5    0  502 -0.58271193278E+02  0.55047214811E+02  0.80833585415E+02  0.11393808123E+03  0.47000000000E+01 0.  1.
         13    1    6    6    0    0 -0.40527520165E+01  0.17851921928E+02  0.19980990026E+03  0.20064673473E+03  0.00000000000E+00 0. -1.
        -14    1    6    6    0    0  0.45097607128E+02  0.17279392721E+02  0.62090886080E+02  0.78661615263E+02  0.00000000000E+00 0.  1.
</event>
<event>
12    1  0.8053217E-002  0.3884522E+03  0.7818608E-02  0.1047899E+00
         21   -1    0    0  503  502  0.00000000000E+00  0.00000000000E+00  0.10361157933E+03  0.10361157933E+03  0.00000000000E+00 0.  1.
         21   -1    0    0  501  503 -0.00000000000E+00 -0.00000000000E+00 -0.15290309684E+04  0.15290309684E+04  0.00000000000E+00 0.  1.
          6    2    1    2  501    0 -0.23132874736E+03  0.26067880868E+03 -0.53285779486E+03  0.65941834250E+03  0.17154792399E+03 0.  0.
         24    2    3    3    0    0 -0.18444895173E+03  0.26882914471E+03 -0.49607112594E+03  0.59909013827E+03  0.80820213648E+02 0.  0.
         -6    2    1    2    0  502  0.23132874736E+03 -0.26067880868E+03 -0.89256159423E+03  0.97322420525E+03  0.17038991622E+03 0.  0.
        -24    2    5    5    0    0  0.18988303837E+03 -0.25293274309E+03 -0.86018878959E+03  0.91985907801E+03  0.78647497537E+02 0.  0.
          5    1    3    3  501    0 -0.46879795628E+02 -0.81503360268E+01 -0.36786668921E+02  0.60328204232E+02  0.47000000000E+01 0. -1.
        -13    1    4    4    0    0 -0.42001393636E+02  0.86042486325E+02 -0.89233897645E+02  0.13088206527E+03  0.00000000000E+00 0.  1.
         14    1    4    4    0    0 -0.14244755809E+03  0.18278665839E+03 -0.40683722830E+03  0.46820807300E+03  0.00000000000E+00 0. -1.
         -5    1    5    5    0  502  0.41445708991E+02 -0.77460655986E+01 -0.32372804639E+02  0.53365127248E+02  0.47000000000E+01 0.  1.
         11    1    6    6    0    0  0.25618570840E+02 -0.90570326595E+02 -0.27955730655E+03  0.29497725824E+03  0.00000000000E+00 0. -1.
        -12    1    6    6    0    0  0.16426446753E+03 -0.16236241649E+03 -0.58063148304E+03  0.62488181977E+03  0.00000000000E+00 0.  1.
</event>
<event>
12    1  0.8053217E-002  0.2741259E+03  0.7818608E-02  0.1098982E+00
         21   -1    0    0  503  502  0.00000000000E+00  0.00000000000E+00  0.61611390234E+03  0.61611390234E+03  0.00000000000E+00 0. -1.
         21   -1    0    0  501  503 -0.00000000000E+00 -0.00000000000E+00 -0.12262835007E+03  0.12262835007E+03  0.00000000000E+00 0.  1.
          6    2    1    2  501    0 -0.19027572265E+03  0.95439735445E+02  0.21718072243E+03  0.34973203703E+03  0.17271779815E+03 0.  0.
         24    2    3    3    0    0 -0.20200649798E+03  0.11876996945E+03  0.19553491840E+03  0.31548964020E+03  0.79917944729E+02 0.  0.
         -6    2    1    2    0  502  0.19027572265E+03 -0.95439735445E+02  0.27630482984E+03  0.38901021538E+03  0.17225270663E+03 0.  0.
        -24    2    5    5    0    0  0.20411814950E+03 -0.84738459663E+02  0.28412317545E+03  0.36927834744E+03  0.82435996756E+02 0.  0.
          5    1    3    3  501    0  0.11730775332E+02 -0.23330234003E+02  0.21645804031E+02  0.34242396830E+02  0.47000000000E+01 0. -1.
        -13    1    4    4    0    0 -0.98869516665E+02  0.59613775576E+02  0.14736605222E+03  0.18720506647E+03  0.00000000000E+00 0.  1.
         14    1    4    4    0    0 -0.10313698132E+03  0.59156193873E+02  0.48168866183E+02  0.12828457374E+03  0.00000000000E+00 0. -1.
         -5    1    5    5    0  502 -0.13842426846E+02 -0.10701275782E+02 -0.78183456060E+01  0.19731867939E+02  0.47000000000E+01 0.  1.
         11    1    6    6    0    0  0.76491540548E+02  0.96496920494E+01  0.89450387535E+02  0.11809083014E+03  0.00000000000E+00 0. -1.
        -12    1    6    6    0    0  0.12762660895E+03 -0.94388151713E+02  0.19467278791E+03  0.25118751730E+03  0.00000000000E+00 0.  1.
</event>
<event>
12    1  0.8053217E-002  0.1930497E+03  0.7818608E-02  0.1155742E+00
         21   -1    0    0  503  502  0.00000000000E+00  0.00000000000E+00  0.11082034369E+03  0.11082034369E+03  0.00000000000E+00 0.  1.
         21   -1    0    0  501  503 -0.00000000000E+00 -0.00000000000E+00 -0.45047625882E+03  0.45047625882E+03  0.00000000000E+00 0. -1.
          6    2    1    2  501    0 -0.52798833292E+02  0.71946833385E+02 -0.31113243659E+03  0.36615111079E+03  0.17117003010E+03 0.  0.
         24    2    3    3    0    0 -0.12526112694E+02  0.12924199443E+02 -0.55766256237E+02  0.10093508675E+03  0.82183197622E+02 0.  0.
         -6    2    1    2    0  502  0.52798833292E+02 -0.71946833385E+02 -0.28523478537E+02  0.19514549172E+03  0.17118443410E+03 0.  0.
        -24    2    5    5    0    0  0.36454937310E+02 -0.11549824586E+03 -0.28892091275E+02  0.14839001781E+03  0.80721974687E+02 0.  0.
          5    1    3    3  501    0 -0.40272720597E+02  0.59022633942E+02 -0.25536618035E+03  0.26521602404E+03  0.47000000000E+01 0. -1.
        -13    1    4    4    0    0  0.33332967672E+02  0.73308895165E+01 -0.92181119108E+01  0.35352542513E+02  0.00000000000E+00 0.  1.
         14    1    4    4    0    0 -0.45859080366E+02  0.55933099263E+01 -0.46548144326E+02  0.65582544234E+02  0.00000000000E+00 0. -1.
         -5    1    5    5    0  502  0.16343895982E+02  0.43551412477E+02  0.36861273859E+00  0.46755473904E+02  0.47000000000E+01 0.  1.
         11    1    6    6    0    0 -0.18729637128E+02 -0.47099291080E+02  0.11013580912E+02  0.51869465890E+02  0.00000000000E+00 0. -1.
        -12    1    6    6    0    0  0.55184574438E+02 -0.68398954782E+02 -0.39905672187E+02  0.96520551925E+02  0.00000000000E+00 0.  1.
</event>
<event>
12    1  0.8053217E-002  0.4161076E+03  0.7818608E-02  0.1038369E+00
         21   -1    0    0  501  502  0.00000000000E+00  0.00000000000E+00  0.12686068369E+03  0.12686068369E+03  0.00000000000E+00 0. -1.
         21   -1    0    0  502  503 -0.00000000000E+00 -0.00000000000E+00 -0.14489993401E+04  0.14489993401E+04  0.00000000000E+00 0.  1.
         -6    2    1    2    0  503  0.37742419736E+03  0.29116169842E+02 -0.85249578677E+03  0.94862774655E+03  0.17276793381E+03 0.  0.
        -24    2    3    3    0    0  0.99661384854E+02  0.48674082767E+02 -0.24058558923E+03  0.27632508269E+03  0.78565689809E+02 0.  0.
          6    2    1    2  501    0 -0.37742419736E+03 -0.29116169842E+02 -0.46964286960E+03  0.62723227721E+03  0.17192768397E+03 0.  0.
         24    2    5    5    0    0 -0.16899109669E+03  0.24644257767E+02 -0.29506111309E+03  0.35004024858E+03  0.79383782782E+02 0.  0.
          5    1    5    5  501    0 -0.20843310067E+03 -0.53760427609E+02 -0.17458175651E+03  0.27719202863E+03  0.47000000000E+01 0. -1.
        -13    1    6    6    0    0 -0.39217318464E+02  0.14756064256E+02 -0.14725010888E+03  0.15309583294E+03  0.00000000000E+00 0.  1.
         14    1    6    6    0    0 -0.12977377823E+03  0.98881935112E+01 -0.14781100421E+03  0.19694441564E+03  0.00000000000E+00 0. -1.
         -5    1    3    3    0  503  0.27776281250E+03 -0.19557912925E+02 -0.61191019755E+03  0.67230266386E+03  0.47000000000E+01 0.  1.
         13    1    4    4    0    0 -0.27584408137E+01 -0.13533536281E+02 -0.12277471519E+02  0.18479770207E+02  0.00000000000E+00 0. -1.
        -14    1    4    4    0    0  0.10241982567E+03  0.62207619048E+02 -0.22830811771E+03  0.25784531248E+03  0.00000000000E+00 0.  1.
</event>
<event>
12    1  0.8053217E-002  0.1852795E+03  0.7818608E-02  0.1162886E+00
         21   -1    0    0  503  502  0.00000000000E+00  0.00000000000E+00  0.74214649477E+02  0.74214649477E+02  0.00000000000E+00 0.  1.
         21   -1    0    0  501  503 -0.00000000000E+00 -0.00000000000E+00 -0.67640486312E+03  0.67640486312E+03  0.00000000000E+00 0. -1.
          6    2    1    2  501    0 -0.58774713566E+02 -0.31767596589E+02 -0.51240147559E+03  0.54472997367E+03  0.17237118346E+03 0.  0.
         24    2    3    3    0    0  0.34723500527E+02 -0.83980729402E+01 -0.29309764304E+03  0.30513800460E+03  0.76985221820E+02 0.  0.
         -6    2    1    2    0  502  0.58774713566E+02  0.31767596589E+02 -0.89788738060E+02  0.20588953893E+03  0.17281446007E+03 0.  0.
        -24    2    5    5    0    0  0.38777124125E+02  0.68111504742E+02 -0.11211809483E+03  0.15854533741E+03  0.80145582501E+02 0.  0.
          5    1    3    3  501    0 -0.93498214093E+02 -0.23369523649E+02 -0.21930383255E+03  0.23959196907E+03  0.47000000000E+01 0. -1.
        -11    1    4    4    0    0 -0.17424486449E+02 -0.14094760331E+02 -0.33582402898E+02  0.40373912136E+02  0.00000000000E+00 0.  1.
         12    1    4    4    0    0  0.52147986976E+02  0.56966873904E+01 -0.25951524014E+03  0.26476409247E+03  0.00000000000E+00 0. -1.
         -5    1    5    5    0  502  0.19997589441E+02 -0.36343908153E+02  0.22329356767E+02  0.47344201513E+02  0.47000000000E+01 0.  1.
         13    1    6    6    0    0  0.33603601364E+02  0.47506456827E+01 -0.80883222055E+02  0.87714686735E+02  0.00000000000E+00 0. -1.
        -14    1    6    6    0    0  0.51735227613E+01  0.63360859059E+02 -0.31234872772E+02  0.70830650679E+02  0.00000000000E+00 0.  1.
</event>
<event>
12    1  0.8053217E-002  0.1929746E+03  0.7818608E-02  0.1155930E+00
         21   -1    0    0  503  502  0.00000000000E+00  0.00000000000E+00  0.11387526336E+04  0.11387526336E+04  0.00000000000E+00 0. -1.
         21   -1    0    0  501  503 -0.00000000000E+00 -0.00000000000E+00 -0.70774313048E+02  0.70774313048E+02  0.00000000000E+00 0.  1.
          6    2    1    2  501    0  0.31482355446E+02  0.79799713400E+02  0.90232875840E+02  0.21302854849E+03  0.17285849018E+03 0.  0.
         24    2    3    3    0    0  0.47594329356E+02  0.75268245848E+02 -0.22209674364E+01  0.11895446578E+03  0.78833388947E+02 0.  0.
         -6    2    1    2    0  502 -0.31482355446E+02 -0.79799713400E+02  0.97774544472E+03  0.99649839817E+03  0.17223173317E+03 0.  0.
        -24    2    5    5    0    0 -0.80336488840E+02 -0.63373119602E+02  0.55940446042E+03  0.57496805706E+03  0.84763273684E+02 0.  0.
          5    1    3    3  501    0 -0.16111973910E+02  0.45314675523E+01  0.92453843276E+02  0.94074082711E+02  0.47000000000E+01 0. -1.
        -11    1    4    4    0    0 -0.89764994407E+01 -0.33847133635E+01 -0.18378987241E+02  0.20732124801E+02  0.00000000000E+00 0.  1.
         12    1    4    4    0    0  0.56570828797E+02  0.78652959211E+02  0.16158019805E+02  0.98222340979E+02  0.00000000000E+00 0. -1.
         -5    1    5    5    0  502  0.48854133394E+02 -0.16426593798E+02  0.41834098430E+03  0.42153034111E+03  0.47000000000E+01 0.  1.
         13    1    6    6    0    0 -0.97159537687E+02 -0.44849191728E+02  0.47656387036E+03  0.48843069958E+03  0.00000000000E+00 0. -1.
        -14    1    6    6    0    0  0.16823048847E+02 -0.18523927874E+02  0.82840590061E+02  0.86537357471E+02  0.00000000000E+00 0.  1.
</event>
<event>
12    1  0.8053217E-002  0.1766811E+03  0.7818608E-02  0.1171375E+00
         21   -1    0    0  501  502  0.00000000000E+00  0.00000000000E+00  0.25185077517E+03  0.25185077517E+03  0.00000000000E+00 0.  1.
         21   -1    0    0  502  503 -0.00000000000E+00 -0.00000000000E+00 -0.17146791994E+03  0.17146791994E+03  0.00000000000E+00 0.  1.
         -6    2    1    2    0  503  0.20576055314E+02 -0.27951508507E+02 -0.72181259818E+02  0.19085685926E+03  0.17323840676E+03 0.  0.
        -24    2    3    3    0    0 -0.44714164492E+02  0.21217363157E+02 -0.47805849314E+02  0.10543647890E+03  0.79886912873E+02 0.  0.
          6    2    1    2  501    0 -0.20576055314E+02  0.27951508507E+02  0.15256411505E+03  0.23246183586E+03  0.17192450392E+03 0.  0.
         24    2    5    5    0    0  0.50125102974E+02  0.13369529207E+01  0.11489030127E+03  0.14791365671E+03  0.78513407287E+02 0.  0.
          5    1    5    5  501    0 -0.70701158288E+02  0.26614555586E+02  0.37673813783E+02  0.84548179148E+02  0.47000000000E+01 0. -1.
        -13    1    6    6    0    0 -0.36679477187E+01  0.31275743516E+02  0.42262182461E+02  0.52704060938E+02  0.00000000000E+00 0.  1.
         14    1    6    6    0    0  0.53793050693E+02 -0.29938790595E+02  0.72628118810E+02  0.95209595772E+02  0.00000000000E+00 0. -1.
         -5    1    3    3    0  503  0.65290219806E+02 -0.49168871664E+02 -0.24375410504E+02  0.85420380357E+02  0.47000000000E+01 0.  1.
         13    1    4    4    0    0  0.95008153789E+01  0.29182135580E+02  0.28380902254E+01  0.30820728187E+02  0.00000000000E+00 0. -1.
        -14    1    4    4    0    0 -0.54214979871E+02 -0.79647724233E+01 -0.50643939540E+02  0.74615750712E+02  0.00000000000E+00 0.  1.
</event>
<event>
12    1  0.8053217E-002  0.2165612E+03  0.7818608E-02  0.1139345E+00
         21   -1    0    0  501  502  0.00000000000E+00  0.00000000000E+00  0.82707995319E+02  0.82707995319E+02  0.00000000000E+00 0.  1.
         21   -1    0    0  502  503 -0.00000000000E+00 -0.00000000000E+00 -0.55597559950E+03  0.55597559950E+03  0.00000000000E+00 0.  1.
         -6    2    1    2    0  503 -0.34247193688E+02  0.10031000032E+03 -0.15927649158E+03  0.25725318857E+03  0.17197452085E+03 0.  0.
        -24    2    3    3    0    0 -0.86505857006E+02  0.85437717901E+02 -0.10507679072E+03  0.18036463124E+03  0.81898725980E+02 0.  0.
          6    2    1    2  501    0  0.34247193688E+02 -0.10031000032E+03 -0.31399111260E+03  0.38143040624E+03  0.18884853607E+03 0.  0.
         24    2    5    5    0    0  0.30834756344E+01  0.24544093510E+02 -0.13426683565E+03  0.16033624577E+03  0.84072636485E+02 0.  0.
          5    1    5    5  501    0  0.31163718054E+02 -0.12485409383E+03 -0.17972427695E+03  0.22109416047E+03  0.47000000000E+01 0. -1.
        -11    1    6    6    0    0  0.55736272961E+01 -0.30264776085E+02 -0.32736759130E+02  0.44930139006E+02  0.00000000000E+00 0.  1.
         12    1    6    6    0    0 -0.24901516616E+01  0.54808869595E+02 -0.10153007652E+03  0.11540610677E+03  0.00000000000E+00 0. -1.
         -5    1    3    3    0  503  0.52258663318E+02  0.14872282415E+02 -0.54199700856E+02  0.76888557334E+02  0.47000000000E+01 0.  1.
         13    1    4    4    0    0 -0.10386956770E+02  0.82136828553E+01  0.14030459400E+02  0.19292673427E+02  0.00000000000E+00 0. -1.
        -14    1    4    4    0    0 -0.76118900236E+02  0.77224035046E+02 -0.11910725012E+03  0.16107195781E+03  0.00000000000E+00 0.  1.
</event>
<event>
12    1  0.8053217E-002  0.2568860E+03  0.7818608E-02  0.1109158E+00
         21   -1    0    0  503  502  0.00000000000E+00  0.00000000000E+00  0.69759428269E+03  0.69759428269E+03  0.00000000000E+00 0. -1.
         21   -1    0    0  501  503 -0.00000000000E+00 -0.00000000000E+00 -0.16492940145E+03  0.16492940145E+03  0.00000000000E+00 0.  1.
          6    2    1    2  501    0 -0.18147841486E+03  0.53346459215E+02 -0.16161756314E+02  0.25655249819E+03  0.17256222700E+03 0.  0.
         24    2    3    3    0    0 -0.77939618282E+02 -0.30533867907E+02 -0.45919485021E+02  0.11993696433E+03  0.72590461630E+02 0.  0.
         -6    2    1    2    0  502  0.18147841486E+03 -0.53346459215E+02  0.54882663756E+03  0.60597118595E+03  0.17381064509E+03 0.  0.
        -24    2    5    5    0    0  0.81948164969E+02 -0.35581677099E+02  0.44536294499E+03  0.46123458448E+03  0.80047683681E+02 0.  0.
          5    1    3    3  501    0 -0.10353879658E+03  0.83880327121E+02  0.29757728707E+02  0.13661553386E+03  0.47000000000E+01 0. -1.
        -13    1    4    4    0    0 -0.83363669521E+02 -0.37491971346E+01 -0.33554585360E+02  0.89941470267E+02  0.00000000000E+00 0.  1.
         14    1    4    4    0    0  0.54240512382E+01 -0.26784670772E+02 -0.12364899660E+02  0.29995494058E+02  0.00000000000E+00 0. -1.
         -5    1    5    5    0  502  0.99530249890E+02 -0.17764782115E+02  0.10346369256E+03  0.14473660147E+03  0.47000000000E+01 0.  1.
         11    1    6    6    0    0  0.20731268036E+02 -0.47704824037E+02  0.13530072291E+03  0.14495454919E+03  0.00000000000E+00 0. -1.
        -12    1    6    6    0    0  0.61216896933E+02  0.12123146938E+02  0.31006222208E+03  0.31628003529E+03  0.00000000000E+00 0.  1.
</event>
<event>
12    1  0.8053217E-002  0.2571280E+03  0.7818608E-02  0.1108977E+00
         21   -1    0    0  501  502  0.00000000000E+00  0.00000000000E+00  0.17197463644E+04  0.17197463644E+04  0.00000000000E+00 0.  1.
         21   -1    0    0  502  503 -0.00000000000E+00 -0.00000000000E+00 -0.45694767511E+02  0.45694767511E+02  0.00000000000E+00 0. -1.
         -6    2    1    2    0  503 -0.14871506340E+03  0.11870275784E+03  0.48229412968E+03  0.54626080521E+03  0.17200792129E+03 0.  0.
        -24    2    3    3    0    0 -0.16386905797E+03  0.92083468208E+02  0.31876457214E+03  0.37982091720E+03  0.85560758599E+02 0.  0.
          6    2    1    2  501    0  0.14871506340E+03 -0.11870275784E+03  0.11917574672E+04  0.12191803267E+04  0.17294014444E+03 0.  0.
         24    2    5    5    0    0  0.12846958496E+03 -0.13871820431E+03  0.11520241130E+04  0.11700750629E+04  0.78542482012E+02 0.  0.
          5    1    5    5  501    0  0.20245478442E+02  0.20015446470E+02  0.39733354278E+02  0.49105263842E+02  0.47000000000E+01 0. -1.
        -11    1    6    6    0    0  0.70094129426E+02 -0.12347191864E+03  0.72076270871E+03  0.73461376514E+03  0.00000000000E+00 0.  1.
         12    1    6    6    0    0  0.58375455532E+02 -0.15246285672E+02  0.43126140425E+03  0.43546129774E+03  0.00000000000E+00 0. -1.
         -5    1    3    3    0  503  0.15153994575E+02  0.26619289637E+02  0.16352955754E+03  0.16643988801E+03  0.47000000000E+01 0.  1.
         13    1    4    4    0    0 -0.14700336471E+03  0.10239620227E+03  0.31032783441E+03  0.35832713584E+03  0.00000000000E+00 0. -1.
        -14    1    4    4    0    0 -0.16865693269E+02 -0.10312734064E+02  0.84367377291E+01  0.21493781352E+02  0.00000000000E+00 0.  1.
</event>
<event>
12    1  0.8053217E-002  0.2008918E+03  0.7818608E-02  0.1149012E+00
         21   -1    0    0  501  502  0.00000000000E+00  0.00000000000E+00  0.67099599114E+03  0.67099599114E+03  0.00000000000E+00 0. -1.
         21   -1    0    0  502  503 -0.00000000000E+00 -0.00000000000E+00 -0.65066743440E+02  0.65066743440E+02  0.00000000000E+00 0. -1.
         -6    2    1    2    0  503 -0.89367169496E+02 -0.52785072502E+02  0.20132901804E+03  0.28433397217E+03  0.17187111265E+03 0.  0.
        -24    2    3    3    0    0 -0.87643985910E+02  0.26198487698E+02  0.11091857535E+03  0.16417778094E+03  0.79269063150E+02 0.  0.
          6    2    1    2  501    0  0.89367169496E+02  0.52785072502E+02  0.40460022966E+03  0.45172876241E+03  0.17200225023E+03 0.  0.
         24    2    5    5    0    0 -0.86961236318E+01 -0.37967360194E+01  0.12590041466E+03  0.15087400111E+03  0.82595472209E+02 0.  0.
          5    1    5    5  501    0  0.98063293128E+02  0.56581808521E+02  0.27869981500E+03  0.30085476130E+03  0.47000000000E+01 0. -1.
        -13    1    6    6    0    0  0.88999418389E+01 -0.81641427362E+01  0.13138008219E+03  0.13193402968E+03  0.00000000000E+00 0.  1.
         14    1    6    6    0    0 -0.17596065471E+02  0.43674067168E+01 -0.54796675335E+01  0.18939971430E+02  0.00000000000E+00 0. -1.
         -5    1    3    3    0  503 -0.17231835867E+01 -0.78983560200E+02  0.90410442698E+02  0.12015619124E+03  0.47000000000E+01 0.  1.
         13    1    4    4    0    0 -0.29347937141E+02  0.17029347859E+02 -0.48115431146E+01  0.34270264810E+02  0.00000000000E+00 0. -1.
        -14    1    4    4    0    0 -0.58296048768E+02  0.91691398390E+01  0.11573011846E+03  0.12990751613E+03  0.00000000000E+00 0.  1.
</event>
<event>
12    1  0.8053217E-002  0.1876532E+03  0.7818608E-02  0.1161514E+00
         21   -1    0    0  503  502  0.00000000000E+00  0.00000000000E+00  0.91398391531E+03  0.91398391531E+03  0.00000000000E+00 0.  1.
         21   -1    0    0  501  503 -0.00000000000E+00 -0.00000000000E+00 -0.46302308136E+02  0.46302308136E+02  0.00000000000E+00 0.  1.
          6    2    1    2  501    0  0.73094408648E+01  0.63221186974E+02  0.22334015470E+03  0.28917548123E+03  0.17231160099E+03 0.  0.
         24    2    3    3    0    0  0.72050429158E+01  0.39524948351E+02  0.30937911293E+02  0.95262521651E+02  0.80645269487E+02 0.  0.
         -6    2    1    2    0  502 -0.73094408648E+01 -0.63221186974E+02  0.64434145247E+03  0.67111074221E+03  0.17653151145E+03 0.  0.
        -24    2    5    5    0    0  0.30811708762E+02 -0.35273176651E+02  0.16499922217E+03  0.18942061663E+03  0.80385746882E+02 0.  0.
          5    1    3    3  501    0  0.10439794903E+00  0.23696238623E+02  0.19240224341E+03  0.19391295958E+03  0.47000000000E+01 0. -1.
        -13    1    4    4    0    0  0.12546802625E+02 -0.22754076718E+02  0.17497347411E+02  0.31326146106E+02  0.00000000000E+00 0.  1.
         14    1    4    4    0    0 -0.53417597094E+01  0.62279025070E+02  0.13440563882E+02  0.63936375545E+02  0.00000000000E+00 0. -1.
         -5    1    5    5    0  502 -0.38121149626E+02 -0.27948010323E+02  0.47934223030E+03  0.48169012558E+03  0.47000000000E+01 0.  1.
         11    1    6    6    0    0  0.56749700408E+02 -0.19915904216E+02  0.12994558402E+03  0.14318877939E+03  0.00000000000E+00 0. -1.
        -12    1    6    6    0    0 -0.25937991647E+02 -0.15357272435E+02  0.35053638142E+02  0.46231837237E+02  0.00000000000E+00 0.  1.
</event>
<event>
12    1  0.8053217E-002  0.2454203E+03  0.7818608E-02  0.1116241E+00
         21   -1    0    0  501  502  0.00000000000E+00  0.00000000000E+00  0.39510391587E+03  0.39510391587E+03  0.00000000000E+00 0. -1.
         21   -1    0    0  502  503 -0.00000000000E+00 -0.00000000000E+00 -0.18059548745E+03  0.18059548745E+03  0.00000000000E+00 0.  1.
         -6    2    1    2    0  503  0.17527780092E+03  0.35793714091E+01  0.22096821202E+03  0.33023938375E+03  0.17174393865E+03 0.  0.
        -24    2    3    3    0    0  0.12579662256E+03 -0.51389710816E+02  0.19716402245E+03  0.25240162651E+03  0.79794966563E+02 0.  0.
          6    2    1    2  501    0 -0.17527780092E+03 -0.35793714091E+01 -0.64597835995E+01  0.24546001956E+03  0.17167927366E+03 0.  0.
         24    2    5    5    0    0 -0.13245166457E+03 -0.20688032885E+00  0.52374169480E+02  0.17246018610E+03  0.97241842407E+02 0.  0.
          5    1    5    5  501    0 -0.42826136347E+02 -0.33724910803E+01 -0.58833953080E+02  0.72999833462E+02  0.47000000000E+01 0. -1.
        -13    1    6    6    0    0 -0.45951738703E+02 -0.17241940982E+02 -0.25072010671E+02  0.55113088624E+02  0.00000000000E+00 0.  1.
         14    1    6    6    0    0 -0.86499925865E+02  0.17035060653E+02  0.77446180151E+02  0.11734709748E+03  0.00000000000E+00 0. -1.
         -5    1    3    3    0  503  0.49481178351E+02  0.54969082225E+02  0.23804189567E+02  0.77837757243E+02  0.47000000000E+01 0.  1.
         11    1    4    4    0    0  0.12258409427E+03 -0.22511795513E+02  0.17906559803E+03  0.21816995555E+03  0.00000000000E+00 0. -1.
        -12    1    4    4    0    0  0.32125282938E+01 -0.28877915303E+02  0.18098424418E+02  0.34231670960E+02  0.00000000000E+00 0.  1.
</event>
<event>
12    1  0.8053217E-002  0.1886151E+03  0.7818608E-02  0.1160389E+00
         21   -1    0    0  503  502  0.00000000000E+00  0.00000000000E+00  0.26596767728E+03  0.26596767728E+03  0.00000000000E+00 0.  1.
         21   -1    0    0  501  503 -0.00000000000E+00 -0.00000000000E+00 -0.20908728359E+03  0.20908728359E+03  0.00000000000E+00 0. -1.
          6    2    1    2  501    0 -0.28846393188E+01 -0.69423963172E+02 -0.11593161754E+03  0.22139510626E+03  0.17535006508E+03 0.  0.
         24    2    3    3    0    0 -0.29534724263E+02 -0.25173916302E+01 -0.12186458656E+03  0.14897959367E+03  0.80407118306E+02 0.  0.
         -6    2    1    2    0  502  0.28846393188E+01  0.69423963172E+02  0.17281201123E+03  0.25365985461E+03  0.17219559462E+03 0.  0.
        -24    2    5    5    0    0  0.60055125643E+02  0.51598919407E+02  0.15340827461E+03  0.19053464818E+03  0.80624356360E+02 0.  0.
          5    1    3    3  501    0  0.26650084944E+02 -0.66906571542E+02  0.59329690169E+01  0.72415512595E+02  0.47000000000E+01 0. -1.
        -11    1    4    4    0    0 -0.38746919954E+02 -0.18360647154E+02 -0.23445057788E+02  0.48868270939E+02  0.00000000000E+00 0.  1.
         12    1    4    4    0    0  0.92121956912E+01  0.15843255524E+02 -0.98419528772E+02  0.10011132273E+03  0.00000000000E+00 0. -1.
         -5    1    5    5    0  502 -0.57170486324E+02  0.17825043766E+02  0.19403736624E+02  0.63125206429E+02  0.47000000000E+01 0.  1.
         13    1    6    6    0    0  0.29978313273E+02 -0.67292841305E+01  0.91618425631E+01  0.32061220981E+02  0.00000000000E+00 0. -1.
        -14    1    6    6    0    0  0.30076812369E+02  0.58328203537E+02  0.14424643204E+03  0.15847342720E+03  0.00000000000E+00 0.  1.
</event>
<event>
12    1  0.8053217E-002  0.2013803E+03  0.7818608E-02  0.1151240E+00
         21   -1    0    0  503  502  0.00000000000E+00  0.00000000000E+00  0.12260471402E+03  0.12260471402E+03  0.00000000000E+00 0.  1.
         21   -1    0    0  501  503 -0.00000000000E+00 -0.00000000000E+00 -0.32209441148E+03  0.32209441148E+03  0.00000000000E+00 0. -1.
          6    2    1    2  501    0  0.41616218770E+02 -0.68675999634E+02 -0.14427070130E+03  0.24772579048E+03  0.18467736577E+03 0.  0.
         24    2    3    3    0    0  0.95050361614E+02 -0.12646369718E+02 -0.60504796810E+02  0.13356211936E+03  0.70593961360E+02 0.  0.
         -6    2    1    2    0  502 -0.41616218770E+02  0.68675999634E+02 -0.55218996151E+02  0.19697333502E+03  0.17117550812E+03 0.  0.
        -24    2    5    5    0    0 -0.51559947853E+02 -0.19159596347E+02 -0.48576639293E+02  0.10820295384E+03  0.79515224830E+02 0.  0.
          5    1    3    3  501    0 -0.53434142843E+02 -0.56029629916E+02 -0.83765904490E+02  0.11416367113E+03  0.47000000000E+01 0. -1.
        -11    1    4    4    0    0  0.42918007598E+02 -0.27520895934E+02  0.17462783834E+01  0.51013768508E+02  0.00000000000E+00 0.  1.
         12    1    4    4    0    0  0.52132354016E+02  0.14874526216E+02 -0.62251075193E+02  0.82548350850E+02  0.00000000000E+00 0. -1.
         -5    1    5    5    0  502  0.99437290831E+01  0.87835595981E+02 -0.66423568581E+01  0.88770381176E+02  0.47000000000E+01 0.  1.
         13    1    6    6    0    0 -0.61829883708E+00  0.26883661004E+02 -0.21351532715E+02  0.34336590858E+02  0.00000000000E+00 0. -1.
        -14    1    6    6    0    0 -0.50941649016E+02 -0.46043257351E+02 -0.27225106578E+02  0.73866362982E+02  0.00000000000E+00 0.  1.
</event>
<event>
12    1  0.8053217E-002  0.1789986E+03  0.7818608E-02  0.1169070E+00
         21   -1    0    0  503  502  0.00000000000E+00  0.00000000000E+00  0.28852243044E+02  0.28852243044E+02  0.00000000000E+00 0.  1.
         21   -1    0    0  501  503 -0.00000000000E+00 -0.00000000000E+00 -0.11960286832E+04  0.11960286832E+04  0.00000000000E+00 0.  1.
          6    2    1    2  501    0  0.35040834001E+02  0.33876531506E+02 -0.41464040826E+03  0.45162724248E+03  0.17223535802E+03 0.  0.
         24    2    3    3    0    0  0.11917815745E+02  0.76005667887E+02 -0.17522442929E+03  0.20739039209E+03  0.79926705334E+02 0.  0.
         -6    2    1    2    0  502 -0.35040834001E+02 -0.33876531506E+02 -0.75253603191E+03  0.77325368378E+03  0.17098333463E+03 0.  0.
        -24    2    5    5    0    0 -0.54427318045E+01 -0.60416492045E+01 -0.15792185779E+03  0.17723444383E+03  0.80041302194E+02 0.  0.
          5    1    3    3  501    0  0.23123018255E+02 -0.42129136380E+02 -0.23941597897E+03  0.24423685039E+03  0.47000000000E+01 0. -1.
        -11    1    4    4    0    0 -0.25774935767E+02  0.66088393869E+02 -0.12608954947E+03  0.14467410827E+03  0.00000000000E+00 0.  1.
         12    1    4    4    0    0  0.37692751513E+02  0.99172740176E+01 -0.49134879825E+02  0.62716283819E+02  0.00000000000E+00 0. -1.
         -5    1    5    5    0  502 -0.29598102196E+02 -0.27834882302E+02 -0.59461417412E+03  0.59601923995E+03  0.47000000000E+01 0.  1.
         13    1    6    6    0    0  0.32888581323E+02  0.13061609160E+02 -0.92529478605E+02  0.99065477469E+02  0.00000000000E+00 0. -1.
        -14    1    6    6    0    0 -0.38331313128E+02 -0.19103258364E+02 -0.65392379184E+02  0.78168966359E+02  0.00000000000E+00 0.  1.
</event>
<event>
12    1  0.8053217E-002  0.2037328E+03  0.7818608E-02  0.1146689E+00
         21   -1    0    0  501  502  0.00000000000E+00  0.00000000000E+00  0.21423621991E+03  0.21423621991E+03  0.00000000000E+00 0. -1.
         21   -1    0    0  502  503 -0.00000000000E+00 -0.00000000000E+00 -0.36966582507E+03  0.36966582507E+03  0.00000000000E+00 0.  1.
         -6    2    1    2    0  503  0.86319929896E+02 -0.64705887403E+02 -0.27930897980E+03  0.34571747713E+03  0.17282675033E+03 0.  0.
        -24    2    3    3    0    0  0.19266105055E+02 -0.98210328152E+02 -0.16415513997E+03  0.20823562450E+03  0.79991961905E+02 0.  0.
          6    2    1    2  501    0 -0.86319929896E+02  0.64705887403E+02  0.12387937464E+03  0.23818456786E+03  0.17247552506E+03 0.  0.
         24    2    5    5    0    0 -0.36963589130E+02  0.24549546550E+02  0.14172000852E+03  0.17193535426E+03  0.86649974451E+02 0.  0.
          5    1    5    5  501    0 -0.49356340766E+02  0.40156340852E+02 -0.17840633886E+02  0.66249213595E+02  0.47000000000E+01 0. -1.
        -13    1    6    6    0    0  0.98142617451E+00  0.27133720714E+02  0.21052493972E+01  0.27232959298E+02  0.00000000000E+00 0.  1.
         14    1    6    6    0    0 -0.37945015304E+02 -0.25841741634E+01  0.13961475913E+03  0.14470239497E+03  0.00000000000E+00 0. -1.
         -5    1    3    3    0  503  0.67053824841E+02  0.33504440750E+02 -0.11515383983E+03  0.13748185263E+03  0.47000000000E+01 0.  1.
         13    1    4    4    0    0  0.43072937223E+02 -0.52009998166E+02 -0.54109869657E+02  0.86534362103E+02  0.00000000000E+00 0. -1.
        -14    1    4    4    0    0 -0.23806832169E+02 -0.46200329987E+02 -0.11004527032E+03  0.12170126239E+03  0.00000000000E+00 0.  1.
</event>
<event>
12    1  0.8053217E-002  0.2199717E+03  0.7818608E-02  0.1134695E+00
         21   -1    0    0  501  502  0.00000000000E+00  0.00000000000E+00  0.11950520023E+04  0.11950520023E+04  0.00000000000E+00 0.  1.
         21   -1    0    0  502  503 -0.00000000000E+00 -0.00000000000E+00 -0.40393228606E+02  0.40393228606E+02  0.00000000000E+00 0.  1.
         -6    2    1    2    0  503  0.92954102749E+02 -0.89725068926E+02  0.49216983602E+03  0.53739140301E+03  0.17282164022E+03 0.  0.
        -24    2    3    3    0    0  0.37531421929E+02 -0.73918227975E+02  0.14130851260E+03  0.18179712853E+03  0.78800940026E+02 0.  0.
          6    2    1    2  501    0 -0.92954102749E+02  0.89725068926E+02  0.66248893764E+03  0.69805382787E+03  0.17803511140E+03 0.  0.
         24    2    5    5    0    0 -0.13221655021E+03  0.48819890575E+02  0.47293937211E+03  0.50015006037E+03  0.81325490043E+02 0.  0.
          5    1    5    5  501    0  0.39262447458E+02  0.40905178352E+02  0.18954956553E+03  0.19790376750E+03  0.47000000000E+01 0. -1.
        -11    1    6    6    0    0 -0.86860791500E+02  0.39368058884E+02  0.18128424532E+03  0.20483803056E+03  0.00000000000E+00 0.  1.
         12    1    6    6    0    0 -0.45355758707E+02  0.94518316908E+01  0.29165512679E+03  0.29531202981E+03  0.00000000000E+00 0. -1.
         -5    1    3    3    0  503  0.55422680820E+02 -0.15806840951E+02  0.35086132342E+03  0.35559427448E+03  0.47000000000E+01 0.  1.
         13    1    4    4    0    0  0.20311571970E+02 -0.76268666331E+02  0.14399880719E+03  0.16421061443E+03  0.00000000000E+00 0. -1.
        -14    1    4    4    0    0  0.17219849959E+02  0.23504383558E+01 -0.26902945907E+01  0.17586514097E+02  0.00000000000E+00 0.  1.
</event>
<event>
12    1  0.8053217E-002  0.1847045E+03  0.7818608E-02  0.1163446E+00
         21   -1    0    0  503  502  0.00000000000E+00  0.00000000000E+00  0.17265330439E+03  0.17265330439E+03  0.00000000000E+00 0. -1.
         21   -1    0    0  501  503 -0.00000000000E+00 -0.00000000000E+00 -0.22961489840E+03  0.22961489840E+03  0.00000000000E+00 0. -1.
          6    2    1    2  501    0 -0.39698310260E+02  0.55840142078E+02 -0.10419099145E+03  0.21162093854E+03  0.17097830746E+03 0.  0.
         24    2    3    3    0    0 -0.71435011193E+02  0.87760797555E+02 -0.75838265092E+02  0.15821575598E+03  0.80472756732E+02 0.  0.
         -6    2    1    2    0  502  0.39698310260E+02 -0.55840142078E+02  0.47229397437E+02  0.19064726426E+03  0.17152750824E+03 0.  0.
        -24    2    5    5    0    0  0.44206320018E+01 -0.98523903155E+02  0.20815540478E+02  0.12911515977E+03  0.80690372890E+02 0.  0.
          5    1    3    3  501    0  0.31736700933E+02 -0.31920655477E+02 -0.28352726356E+02  0.53405182558E+02  0.47000000000E+01 0. -1.
        -11    1    4    4    0    0 -0.42909906409E+02  0.14436057854E+02  0.48326566917E+01  0.45530367944E+02  0.00000000000E+00 0.  1.
         12    1    4    4    0    0 -0.28525104784E+02  0.73324739701E+02 -0.80670921784E+02  0.11268538803E+03  0.00000000000E+00 0. -1.
         -5    1    5    5    0  502  0.35277678258E+02  0.42683761077E+02  0.26413856958E+02  0.61532104485E+02  0.47000000000E+01 0.  1.
         11    1    6    6    0    0  0.21540094970E+02 -0.10434661334E+03  0.77927894892E+01  0.10683126403E+03  0.00000000000E+00 0. -1.
        -12    1    6    6    0    0 -0.17119462968E+02  0.58227101801E+01  0.13022750989E+02  0.22283895743E+02  0.00000000000E+00 0.  1.
</event>
<event>
12    1  0.8053217E-002  0.2563924E+03  0.7818608E-02  0.1109579E+00
         21   -1    0    0  503  502  0.00000000000E+00  0.00000000000E+00  0.22298540123E+03  0.22298540123E+03  0.00000000000E+00 0. -1.
         21   -1    0    0  501  503 -0.00000000000E+00 -0.00000000000E+00 -0.29357846171E+03  0.29357846171E+03  0.00000000000E+00 0. -1.
          6    2    1    2  501    0 -0.52845751706E+02  0.18047228307E+03 -0.47385407402E+02  0.26073442613E+03  0.17428179970E+03 0.  0.
         24    2    3    3    0    0 -0.72086809315E+02  0.44147598623E+02 -0.35651157095E+02  0.12247951476E+03  0.81146213672E+02 0.  0.
         -6    2    1    2    0  502  0.52845751706E+02 -0.18047228307E+03 -0.23207653068E+02  0.25582943681E+03  0.17189295258E+03 0.  0.
        -24    2    5    5    0    0  0.42374305789E+02 -0.65454028675E+02  0.45586784486E+02  0.12131692935E+03  0.80992782184E+02 0.  0.
          5    1    3    3  501    0  0.19241057609E+02  0.13632468445E+03 -0.11734250307E+02  0.13825491137E+03  0.47000000000E+01 0. -1.
        -13    1    4    4    0    0 -0.80282060435E+00 -0.10582712177E+02  0.15716275884E+02  0.18964167411E+02  0.00000000000E+00 0.  1.
         14    1    4    4    0    0 -0.71283988711E+02  0.54730310799E+02 -0.51367432979E+02  0.10351534735E+03  0.00000000000E+00 0. -1.
         -5    1    5    5    0  502  0.10471445917E+02 -0.11501825440E+03 -0.68794437555E+02  0.13451250746E+03  0.47000000000E+01 0.  1.
         13    1    6    6    0    0  0.21325901877E+02 -0.46804825170E+02  0.68066712486E+02  0.85314495244E+02  0.00000000000E+00 0. -1.
        -14    1    6    6    0    0  0.21048403912E+02 -0.18649203505E+02 -0.22479928000E+02  0.36002434105E+02  0.00000000000E+00 0.  1.
</event>
<event>
12    1  0.8053217E-002  0.1818022E+03  0.7818608E-02  0.1166137E+00
         21   -1    0    0  503  502  0.00000000000E+00  0.00000000000E+00  0.14635059938E+03  0.14635059938E+03  0.00000000000E+00 0. -1.
         21   -1    0    0  501  503 -0.00000000000E+00 -0.00000000000E+00 -0.52175424173E+03  0.52175424173E+03  0.00000000000E+00 0. -1.
          6    2    1    2  501    0  0.10961970787E+02 -0.55829215213E+02 -0.43948546158E+03  0.47560434704E+03  0.17267008401E+03 0.  0.
         24    2    3    3    0    0  0.42326273772E+02  0.13790583008E+02 -0.15355874438E+03  0.17961986534E+03  0.81861556395E+02 0.  0.
         -6    2    1    2    0  502 -0.10961970787E+02  0.55829215213E+02  0.64081819229E+02  0.19250049408E+03  0.17237428633E+03 0.  0.
        -24    2    5    5    0    0  0.59424023844E+02  0.36177017540E+02  0.55711747351E+02  0.11879469229E+03  0.78539091639E+02 0.  0.
          5    1    3    3  501    0 -0.31364302984E+02 -0.69619798222E+02 -0.28592671719E+03  0.29598448170E+03  0.47000000000E+01 0. -1.
        -11    1    4    4    0    0  0.37502791741E+02 -0.26778212927E+02 -0.11307501968E+03  0.12210443133E+03  0.00000000000E+00 0.  1.
         12    1    4    4    0    0  0.48234820306E+01  0.40568795935E+02 -0.40483724707E+02  0.57515434004E+02  0.00000000000E+00 0. -1.
         -5    1    5    5    0  502 -0.70385994631E+02  0.19652197674E+02  0.83700718782E+01  0.73705801786E+02  0.47000000000E+01 0.  1.
         13    1    6    6    0    0  0.77396907471E+02  0.38584904482E+02  0.42511344899E+02  0.96365401390E+02  0.00000000000E+00 0. -1.
        -14    1    6    6    0    0 -0.17972883627E+02 -0.24078869424E+01  0.13200402451E+02  0.22429290900E+02  0.00000000000E+00 0.  1.
</event>
<event>
12    1  0.8053217E-002  0.2306168E+03  0.7818608E-02  0.1128279E+00
         21   -1    0    0  501  502  0.00000000000E+00  0.00000000000E+00  0.24562594124E+04  0.24562594124E+04  0.00000000000E+00 0.  1.
         21   -1    0    0  502  503 -0.00000000000E+00 -0.00000000000E+00 -0.35845612428E+02  0.35845612428E+02  0.00000000000E+00 0.  1.
         -6    2    1    2    0  503  0.70351567638E+02 -0.13180993380E+03  0.41513611474E+03  0.47489168616E+03  0.17567275858E+03 0.  0.
        -24    2    3    3    0    0  0.89394347930E+02 -0.59618116944E+02  0.15569726120E+03  0.20488262218E+03  0.78673899220E+02 0.  0.
          6    2    1    2  501    0 -0.70351567638E+02  0.13180993380E+03  0.20052776852E+04  0.20172133387E+04  0.16027431827E+03 0.  0.
         24    2    5    5    0    0 -0.51304057944E+02  0.52445474436E+02  0.61483432179E+03  0.62436863735E+03  0.80201732601E+02 0.  0.
          5    1    5    5  501    0 -0.19047509695E+02  0.79364459361E+02  0.13904433634E+04  0.13928447013E+04  0.47000000000E+01 0. -1.
        -11    1    6    6    0    0 -0.32156736910E+02  0.69427892225E+02  0.53727260774E+03  0.54269341527E+03  0.00000000000E+00 0.  1.
         12    1    6    6    0    0 -0.19147321034E+02 -0.16982417789E+02  0.77561714049E+02  0.81675222087E+02  0.00000000000E+00 0. -1.
         -5    1    3    3    0  503 -0.19042780292E+02 -0.72191816853E+02  0.25943885355E+03  0.27000906398E+03  0.47000000000E+01 0.  1.
         13    1    4    4    0    0 -0.52864479572E+00  0.21294137307E+01  0.59209810489E+02  0.59250447478E+02  0.00000000000E+00 0. -1.
        -14    1    4    4    0    0  0.89922992726E+02 -0.61747530675E+02  0.96487450706E+02  0.14563217470E+03  0.00000000000E+00 0.  1.
</event>
<event>
12    1  0.8053217E-002  0.2044740E+03  0.7818608E-02  0.1146042E+00
         21   -1    0    0  503  502  0.00000000000E+00  0.00000000000E+00  0.61353748683E+03  0.61353748683E+03  0.00000000000E+00 0.  1.
         21   -1    0    0  501  503 -0.00000000000E+00 -0.00000000000E+00 -0.72555722263E+02  0.72555722263E+02  0.00000000000E+00 0.  1.
          6    2    1    2  501    0  0.28812877472E+02  0.10779999375E+03  0.18561010840E+03  0.27615346544E+03  0.17134352505E+03 0.  0.
         24    2    3    3    0    0  0.65290943042E+02  0.12149170614E+03  0.17114908964E+03  0.23432855278E+03  0.81207868207E+02 0.  0.
         -6    2    1    2    0  502 -0.28812877472E+02 -0.10779999375E+03  0.35537165617E+03  0.40993974365E+03  0.17120326765E+03 0.  0.
        -24    2    5    5    0    0 -0.48064414514E+02 -0.62131662916E+02  0.92720056327E+02  0.14261190929E+03  0.74636561739E+02 0.  0.
          5    1    3    3  501    0 -0.36478065571E+02 -0.13691712391E+02  0.14461018752E+02  0.41824912664E+02  0.47000000000E+01 0. -1.
        -11    1    4    4    0    0  0.55789120668E+02  0.43754430963E+02  0.39540191509E+02  0.81180680943E+02  0.00000000000E+00 0.  1.
         12    1    4    4    0    0  0.95018223740E+01  0.77737275174E+02  0.13160889814E+03  0.15314787184E+03  0.00000000000E+00 0. -1.
         -5    1    5    5    0  502  0.19251537043E+02 -0.45668330831E+02  0.26265159984E+03  0.26732783435E+03  0.47000000000E+01 0.  1.
         13    1    6    6    0    0  0.17533401736E+02 -0.18248966421E+02  0.73558476574E+01  0.26354381925E+02  0.00000000000E+00 0. -1.
        -14    1    6    6    0    0 -0.65597816250E+02 -0.43882696495E+02  0.85364208669E+02  0.11625752737E+03  0.00000000000E+00 0.  1.
</event>
<event>
12    1  0.8053217E-002  0.2111832E+03  0.7818608E-02  0.1141071E+00
         21   -1    0    0  501  502  0.00000000000E+00  0.00000000000E+00  0.19696685561E+03  0.19696685561E+03  0.00000000000E+00 0.  1.
         21   -1    0    0  502  503 -0.00000000000E+00 -0.00000000000E+00 -0.23693006177E+03  0.23693006177E+03  0.00000000000E+00 0.  1.
         -6    2    1    2    0  503 -0.11932255960E+03 -0.26146507023E+02 -0.70654116168E+02  0.22268886598E+03  0.17226959640E+03 0.  0.
        -24    2    3    3    0    0 -0.14920991495E+03 -0.39515290949E+02 -0.75083616226E+02  0.18931688875E+03  0.79864122105E+02 0.  0.
          6    2    1    2  501    0  0.11932255960E+03  0.26146507023E+02  0.30690910009E+02  0.21120805139E+03  0.16954467245E+03 0.  0.
         24    2    5    5    0    0  0.14721648701E+03  0.11170109028E+02  0.48303373558E+02  0.17467515450E+03  0.79879461184E+02 0.  0.
          5    1    5    5  501    0 -0.27893927409E+02  0.14976397994E+02 -0.17612463549E+02  0.36532896894E+02  0.47000000000E+01 0. -1.
        -13    1    6    6    0    0  0.58236290114E+02 -0.29869517073E+02  0.48987925880E-01  0.65449644279E+02  0.00000000000E+00 0.  1.
         14    1    6    6    0    0  0.88980196892E+02  0.41039626102E+02  0.48254385632E+02  0.10922551022E+03  0.00000000000E+00 0. -1.
         -5    1    3    3    0  503  0.29887355358E+02  0.13368783926E+02  0.44295000589E+01  0.33371977237E+02  0.47000000000E+01 0.  1.
         11    1    4    4    0    0 -0.10052652005E+03 -0.55375894766E+02 -0.76784663741E+02  0.13808676816E+03  0.00000000000E+00 0. -1.
        -12    1    4    4    0    0 -0.48683394908E+02  0.15860603817E+02  0.17010475142E+01  0.51230120592E+02  0.00000000000E+00 0.  1.
</event>
<event>
12    1  0.8053217E-002  0.1982563E+03  0.7818608E-02  0.1151265E+00
         21   -1    0    0  503  502  0.00000000000E+00  0.00000000000E+00  0.16173405660E+03  0.16173405660E+03  0.00000000000E+00 0.  1.
         21   -1    0    0  501  503 -0.00000000000E+00 -0.00000000000E+00 -0.37687515719E+03  0.37687515719E+03  0.00000000000E+00 0.  1.
          6    2    1    2  501    0 -0.56128468184E+02  0.80982486017E+02 -0.26826215121E+03  0.33357178349E+03  0.17203774291E+03 0.  0.
         24    2    3    3    0    0  0.27455573328E+02  0.57919357177E+02 -0.19513950326E+03  0.22004992854E+03  0.78956221260E+02 0.  0.
         -6    2    1    2    0  502  0.56128468184E+02 -0.80982486017E+02  0.53121050622E+02  0.20503743031E+03  0.17178455643E+03 0.  0.
        -24    2    5    5    0    0  0.95403545162E+02 -0.68505169351E+02  0.89305549481E+01  0.14443128367E+03  0.83581374916E+02 0.  0.
          5    1    3    3  501    0 -0.83584041512E+02  0.23063128840E+02 -0.73122647956E+02  0.11352185495E+03  0.47000000000E+01 0. -1.
        -13    1    4    4    0    0  0.19432661131E+02  0.32830846940E+02 -0.18925302547E+03  0.19306009551E+03  0.00000000000E+00 0.  1.
         14    1    4    4    0    0  0.80229121974E+01  0.25088510238E+02 -0.58864777873E+01  0.26989833027E+02  0.00000000000E+00 0. -1.
         -5    1    5    5    0  502 -0.39275076978E+02 -0.12477316666E+02  0.44190495674E+02  0.60606146641E+02  0.47000000000E+01 0.  1.
         11    1    6    6    0    0 -0.98033839255E+01 -0.27738378288E+02 -0.76302755166E+01  0.30393174742E+02  0.00000000000E+00 0. -1.
        -12    1    6    6    0    0  0.10520692909E+03 -0.40766791063E+02  0.16560830465E+02  0.11403810893E+03  0.00000000000E+00 0.  1.
</event>
<event>
12    1  0.8053217E-002  0.2682823E+03  0.7818608E-02  0.1103044E+00
         21   -1    0    0  503  502  0.00000000000E+00  0.00000000000E+00  0.18701405328E+03  0.18701405328E+03  0.00000000000E+00 0. -1.
         21   -1    0    0  501  503 -0.00000000000E+00 -0.00000000000E+00 -0.49604580734E+03  0.49604580734E+03  0.00000000000E+00 0. -1.
          6    2    1    2  501    0 -0.17046641205E+03  0.10311814977E+03 -0.32046271749E+03  0.41453413575E+03  0.17161015688E+03 0.  0.
         24    2    3    3    0    0 -0.63147839923E+02 -0.29684874584E+01 -0.73572838843E+02  0.12514105929E+03  0.79062383593E+02 0.  0.
         -6    2    1    2    0  502  0.17046641205E+03 -0.10311814977E+03  0.11430963434E+02  0.26852572488E+03  0.17967539494E+03 0.  0.
        -24    2    5    5    0    0  0.18016203714E+03 -0.90808901339E+02  0.53026439989E+02  0.22382900897E+03  0.81135724142E+02 0.  0.
          5    1    3    3  501    0 -0.10731857213E+03  0.10608663723E+03 -0.24688987865E+03  0.28939307646E+03  0.47000000000E+01 0. -1.
        -13    1    4    4    0    0 -0.22071033181E+02 -0.13427771301E+02 -0.78336587217E+02  0.82486704654E+02  0.00000000000E+00 0.  1.
         14    1    4    4    0    0 -0.41076806742E+02  0.10459283842E+02  0.47637483739E+01  0.42654354634E+02  0.00000000000E+00 0. -1.
         -5    1    5    5    0  502 -0.96956250880E+01 -0.12309248430E+02 -0.41595476555E+02  0.44696715904E+02  0.47000000000E+01 0.  1.
         11    1    6    6    0    0  0.16682376092E+03 -0.77444699340E+02  0.18983668932E+02  0.18490059045E+03  0.00000000000E+00 0. -1.
        -12    1    6    6    0    0  0.13338276222E+02 -0.13364202000E+02  0.34042771057E+02  0.38928418526E+02  0.00000000000E+00 0.  1.
</event>
<event>
12    1  0.8053217E-002  0.2192796E+03  0.7818608E-02  0.1134490E+00
         21   -1    0    0  503  502  0.00000000000E+00  0.00000000000E+00  0.35864186581E+02  0.35864186581E+02  0.00000000000E+00 0. -1.
         21   -1    0    0  501  503 -0.00000000000E+00 -0.00000000000E+00 -0.13692796931E+04  0.13692796931E+04  0.00000000000E+00 0. -1.
          6    2    1    2  501    0 -0.85515698714E+02  0.10530915977E+03 -0.56079378612E+03  0.60200762227E+03  0.17181546163E+03 0.  0.
         24    2    3    3    0    0 -0.61326146978E+02  0.39411178297E+02 -0.14649749604E+03  0.18178008348E+03  0.79172881263E+02 0.  0.
         -6    2    1    2    0  502  0.85515698714E+02 -0.10530915977E+03 -0.77262172037E+03  0.80313625739E+03  0.17228050176E+03 0.  0.
        -24    2    5    5    0    0  0.59002541632E+02 -0.10423200530E+03 -0.75991460130E+03  0.77334248899E+03  0.79011348347E+02 0.  0.
          5    1    3    3  501    0 -0.24189551736E+02  0.65897981471E+02 -0.41429629008E+03  0.42022753878E+03  0.47000000000E+01 0. -1.
        -13    1    4    4    0    0 -0.80439016768E+02  0.29232852719E+02 -0.12275943088E+03  0.14964916628E+03  0.00000000000E+00 0.  1.
         14    1    4    4    0    0  0.19112869790E+02  0.10178325578E+02 -0.23738065160E+02  0.32130917209E+02  0.00000000000E+00 0. -1.
         -5    1    5    5    0  502  0.26513157082E+02 -0.10771544668E+01 -0.12707119076E+02  0.29793768399E+02  0.47000000000E+01 0.  1.
         13    1    6    6    0    0  0.97310796078E+01 -0.68951815539E+02 -0.23969560032E+03  0.24960574431E+03  0.00000000000E+00 0. -1.
        -14    1    6    6    0    0  0.49271462024E+02 -0.35280189762E+02 -0.52021900097E+03  0.52373674468E+03  0.00000000000E+00 0.  1.
</event>
<event>
12    1  0.8053217E-002  0.2274272E+03  0.7818608E-02  0.1129220E+00
         21   -1    0    0  501  502  0.00000000000E+00  0.00000000000E+00  0.99467259584E+02  0.99467259584E+02  0.00000000000E+00 0. -1.
         21   -1    0    0  502  503 -0.00000000000E+00 -0.00000000000E+00 -0.82136690205E+03  0.82136690205E+03  0.00000000000E+00 0.  1.
         -6    2    1    2    0  503 -0.54571325665E+02  0.13966673023E+03 -0.64212378125E+03  0.67982107463E+03  0.16537508262E+03 0.  0.
        -24    2    3    3    0    0 -0.58421794218E+02  0.95795236608E+02 -0.60787626837E+03  0.62383432442E+03  0.84058748978E+02 0.  0.
          6    2    1    2  501    0  0.54571325665E+02 -0.13966673023E+03 -0.79775861222E+02  0.24101308701E+03  0.17099209033E+03 0.  0.
         24    2    5    5    0    0  0.70269495644E+02 -0.21459984804E+02 -0.26807373759E+02  0.11044885810E+03  0.77987063044E+02 0.  0.
          5    1    5    5  501    0 -0.15698169979E+02 -0.11820674543E+03 -0.52968487464E+02  0.13056422891E+03  0.47000000000E+01 0. -1.
        -11    1    6    6    0    0 -0.14737072134E+02  0.68105248828E+00  0.69947116729E+01  0.16327005818E+02  0.00000000000E+00 0.  1.
         12    1    6    6    0    0  0.85006567778E+02 -0.22141037292E+02 -0.33802085432E+02  0.94121852284E+02  0.00000000000E+00 0. -1.
         -5    1    3    3    0  503  0.38504685535E+01  0.43871493624E+02 -0.34247512876E+02  0.55986750210E+02  0.47000000000E+01 0.  1.
         11    1    4    4    0    0 -0.22707891966E+02  0.16826430244E+01 -0.32282537991E+02  0.39504960501E+02  0.00000000000E+00 0. -1.
        -12    1    4    4    0    0 -0.35713902253E+02  0.94112593584E+02 -0.57559373038E+03  0.58432936392E+03  0.00000000000E+00 0.  1.
</event>
<event>
12    1  0.8053217E-002  0.3776609E+03  0.7818608E-02  0.1052055E+00
         21   -1    0    0  501  502  0.00000000000E+00  0.00000000000E+00  0.26123973262E+04  0.26123973262E+04  0.00000000000E+00 0. -1.
         21   -1    0    0  502  503 -0.00000000000E+00 -0.00000000000E+00 -0.54472288197E+02  0.54472288197E+02  0.00000000000E+00 0.  1.
         -6    2    1    2    0  503  0.28591548893E+03 -0.17001177509E+03  0.11809673171E+04  0.12390600038E+04  0.17301508177E+03 0.  0.
        -24    2    3    3    0    0  0.78387485855E+02 -0.11310206191E+03  0.48405804291E+03  0.50966901542E+03  0.80707137336E+02 0.  0.
          6    2    1    2  501    0 -0.28591548893E+03  0.17001177509E+03  0.13769577209E+04  0.14278096106E+04  0.17881847902E+03 0.  0.
         24    2    5    5    0    0 -0.79239780463E+02  0.20954866839E+02  0.32336750666E+03  0.34383210163E+03  0.83282173933E+02 0.  0.
          5    1    5    5  501    0 -0.20667570846E+03  0.14905690825E+03  0.10535902143E+04  0.10839775090E+04  0.47000000000E+01 0. -1.
        -13    1    6    6    0    0 -0.89723714194E+02 -0.34790956708E+01  0.23581610073E+03  0.25233248376E+03  0.00000000000E+00 0.  1.
         14    1    6    6    0    0  0.10483933731E+02  0.24433962510E+02  0.87551405923E+02  0.91499617866E+02  0.00000000000E+00 0. -1.
         -5    1    3    3    0  503  0.20752800307E+03 -0.56909713176E+02  0.69690927421E+03  0.72939098842E+03  0.47000000000E+01 0.  1.
         11    1    4    4    0    0 -0.56475218481E+01  0.88992056233E+01  0.47666382390E+02  0.48817766990E+02  0.00000000000E+00 0. -1.
        -12    1    4    4    0    0  0.84035007703E+02 -0.12200126754E+03  0.43639166053E+03  0.46085124843E+03  0.00000000000E+00 0.  1.
</event>
<event>
12    1  0.8053217E-002  0.1932417E+03  0.7818608E-02  0.1155891E+00
         21   -1    0    0  503  502  0.00000000000E+00  0.00000000000E+00  0.26516213187E+04  0.26516213187E+04  0.00000000000E+00 0.  1.
         21   -1    0    0  501  503 -0.00000000000E+00 -0.00000000000E+00 -0.16595565235E+02  0.16595565235E+02  0.00000000000E+00 0.  1.
          6    2    1    2  501    0  0.86835421867E+02 -0.20365920101E+02  0.79177763348E+03  0.81501788824E+03  0.17142688259E+03 0.  0.
         24    2    3    3    0    0  0.89811777749E+02 -0.66900026920E+02  0.46582096651E+03  0.48570933910E+03  0.79891302567E+02 0.  0.
         -6    2    1    2    0  502 -0.86835421867E+02  0.20365920101E+02  0.18432481200E+04  0.18531989957E+04  0.16978729233E+03 0.  0.
        -24    2    5    5    0    0 -0.41450944441E+01 -0.38398747633E+02  0.69326079440E+03  0.69873638676E+03  0.78296637906E+02 0.  0.
          5    1    3    3  501    0 -0.29763558824E+01  0.46534106819E+02  0.32595666697E+03  0.32930854914E+03  0.47000000000E+01 0. -1.
        -11    1    4    4    0    0  0.34647426045E+02 -0.25727576161E+02  0.58957027425E+02  0.73063557192E+02  0.00000000000E+00 0.  1.
         12    1    4    4    0    0  0.55164351704E+02 -0.41172450759E+02  0.40686393909E+03  0.41264578191E+03  0.00000000000E+00 0. -1.
         -5    1    5    5    0  502 -0.82690327423E+02  0.58764667734E+02  0.11499873256E+04  0.11544626089E+04  0.47000000000E+01 0.  1.
         11    1    6    6    0    0 -0.23321388159E+02 -0.44952887779E+02  0.63566944811E+03  0.63768353949E+03  0.00000000000E+00 0. -1.
        -12    1    6    6    0    0  0.19176293715E+02  0.65541401454E+01  0.57591346285E+02  0.61052847277E+02  0.00000000000E+00 0.  1.
</event>
<event>
12    1  0.8053217E-002  0.1861699E+03  0.7818608E-02  0.1162043E+00
         21   -1    0    0  501  502  0.00000000000E+00  0.00000000000E+00  0.19988795334E+03  0.19988795334E+03  0.00000000000E+00 0.  1.
         21   -1    0    0  502  503 -0.00000000000E+00 -0.00000000000E+00 -0.34980559327E+03  0.34980559327E+03  0.00000000000E+00 0.  1.
         -6    2    1    2    0  503  0.82605472815E+01  0.70135279959E+02 -0.27035583171E+03  0.32825522466E+03  0.17225568972E+03 0.  0.
        -24    2    3    3    0    0  0.57012885135E+02  0.30983255695E+01 -0.10945116146E+03  0.14719405652E+03  0.80165234588E+02 0.  0.
          6    2    1    2  501    0 -0.82605472815E+01 -0.70135279959E+02  0.12043819178E+03  0.22143832196E+03  0.17187896397E+03 0.  0.
         24    2    5    5    0    0 -0.20043334553E+02 -0.99460769640E+01  0.13536269939E+03  0.15814215177E+03  0.78646170103E+02 0.  0.
          5    1    5    5  501    0  0.11782787271E+02 -0.60189202995E+02 -0.14924507610E+02  0.63296170188E+02  0.47000000000E+01 0. -1.
        -13    1    6    6    0    0  0.14035895405E+02 -0.31581035622E+02  0.94857741880E+02  0.10095721552E+03  0.00000000000E+00 0.  1.
         14    1    6    6    0    0 -0.34079229958E+02  0.21634958658E+02  0.40504957514E+02  0.57184936249E+02  0.00000000000E+00 0. -1.
         -5    1    3    3    0  503 -0.48752337854E+02  0.67036954389E+02 -0.16090467025E+03  0.18106116814E+03  0.47000000000E+01 0.  1.
         13    1    4    4    0    0  0.41959991366E+02  0.19051656714E+02 -0.11557320646E+03  0.12442175272E+03  0.00000000000E+00 0. -1.
        -14    1    4    4    0    0  0.15052893769E+02 -0.15953331145E+02  0.61220449955E+01  0.22772303800E+02  0.00000000000E+00 0.  1.
</event>
<event>
12    1  0.8053217E-002  0.2864567E+03  0.7818608E-02  0.1092241E+00
         21   -1    0    0  501  502  0.00000000000E+00  0.00000000000E+00  0.14841904081E+03  0.14841904081E+03  0.00000000000E+00 0. -1.
         21   -1    0    0  502  503 -0.00000000000E+00 -0.00000000000E+00 -0.65110231465E+03  0.65110231465E+03  0.00000000000E+00 0.  1.
         -6    2    1    2    0  503 -0.90616090673E+02 -0.21043426963E+03 -0.40684505604E+03  0.49745780496E+03  0.17160276911E+03 0.  0.
        -24    2    3    3    0    0 -0.91896323963E+01 -0.12317380412E+03 -0.31178794773E+03  0.34480591080E+03  0.80144596908E+02 0.  0.
          6    2    1    2  501    0  0.90616090673E+02  0.21043426963E+03 -0.95838217802E+02  0.30206355050E+03  0.17194059098E+03 0.  0.
         24    2    5    5    0    0  0.77730047784E+02  0.16401712648E+03 -0.13552275701E+03  0.23947318437E+03  0.77700773867E+02 0.  0.
          5    1    5    5  501    0  0.12886042889E+02  0.46417143148E+02  0.39684539211E+02  0.62590366126E+02  0.47000000000E+01 0. -1.
        -11    1    6    6    0    0  0.15514732273E+02  0.11429286125E+03 -0.98356824623E+02  0.15158373924E+03  0.00000000000E+00 0.  1.
         12    1    6    6    0    0  0.62215315512E+02  0.49724265226E+02 -0.37165932391E+02  0.87889445139E+02  0.00000000000E+00 0. -1.
         -5    1    3    3    0  503 -0.81426458277E+02 -0.87260465506E+02 -0.95057108318E+02  0.15265189416E+03  0.47000000000E+01 0.  1.
         13    1    4    4    0    0 -0.32134095372E+02 -0.54699529375E+02 -0.80425847209E+02  0.10243512824E+03  0.00000000000E+00 0. -1.
        -14    1    4    4    0    0  0.22944462975E+02 -0.68474274745E+02 -0.23136210052E+03  0.24237078256E+03  0.00000000000E+00 0.  1.
</event>
<event>
12    1  0.8053217E-002  0.2786740E+03  0.7818608E-02  0.1096714E+00
         21   -1    0    0  501  502  0.00000000000E+00  0.00000000000E+00  0.23237565941E+04  0.23237565941E+04  0.00000000000E+00 0. -1.
         21   -1    0    0  502  503 -0.00000000000E+00 -0.00000000000E+00 -0.96310844919E+02  0.96310844919E+02  0.00000000000E+00 0.  1.
         -6    2    1    2    0  503  0.20291336905E+03  0.75648614004E+02  0.13240612975E+03  0.30657502341E+03  0.17193113053E+03 0.  0.
        -24    2    3    3    0    0  0.53935117995E+02 -0.77445510390E+00  0.93915799466E+02  0.13470704994E+03  0.80101280767E+02 0.  0.
          6    2    1    2  501    0 -0.20291336905E+03 -0.75648614004E+02  0.20950396194E+04  0.21134924156E+04  0.17539280402E+03 0.  0.
         24    2    5    5    0    0 -0.17318173686E+03  0.19126513563E+01  0.16256347728E+04  0.16367716169E+04  0.79607407194E+02 0.  0.
          5    1    5    5  501    0 -0.29731632194E+02 -0.77561265360E+02  0.46940484662E+03  0.47672079865E+03  0.47000000000E+01 0. -1.
        -13    1    6    6    0    0 -0.28369571395E+02  0.16092991160E+02  0.12819438857E+03  0.13227856291E+03  0.00000000000E+00 0.  1.
         14    1    6    6    0    0 -0.14481216546E+03 -0.14180339804E+02  0.14974403842E+04  0.15044930540E+04  0.00000000000E+00 0. -1.
         -5    1    3    3    0  503  0.14897825106E+03  0.76423069108E+02  0.38490330286E+02  0.17186797347E+03  0.47000000000E+01 0.  1.
         11    1    4    4    0    0 -0.70021952372E+01  0.13415602582E+02  0.63237430826E+02  0.65022932787E+02  0.00000000000E+00 0. -1.
        -12    1    4    4    0    0  0.60937313232E+02 -0.14190057686E+02  0.30678368640E+02  0.69684117153E+02  0.00000000000E+00 0.  1.
</event>
<event>
12    1  0.8053217E-002  0.2459793E+03  0.7818608E-02  0.1116098E+00
         21   -1    0    0  503  502  0.00000000000E+00  0.00000000000E+00  0.81665548130E+02  0.81665548130E+02  0.00000000000E+00 0.  1.
         21   -1    0    0  501  503 -0.00000000000E+00 -0.00000000000E+00 -0.92059374209E+03  0.92059374209E+03  0.00000000000E+00 0.  1.
          6    2    1    2  501    0  0.15551435917E+03  0.80903919484E+02 -0.19454359530E+03  0.31252215391E+03  0.17056589963E+03 0.  0.
         24    2    3    3    0    0  0.14392777286E+03  0.21137225770E+02 -0.82072076646E+02  0.18454465914E+03  0.78478782726E+02 0.  0.
         -6    2    1    2    0  502 -0.15551435917E+03 -0.80903919484E+02 -0.64438459867E+03  0.68973713631E+03  0.17255621146E+03 0.  0.
        -24    2    5    5    0    0 -0.39776118015E+02  0.19198617709E+02 -0.29114682872E+03  0.30475029169E+03  0.78457236270E+02 0.  0.
          5    1    3    3  501    0  0.11586586306E+02  0.59766693713E+02 -0.11247151865E+03  0.12797749477E+03  0.47000000000E+01 0. -1.
        -13    1    4    4    0    0  0.11205783199E+03  0.49587436116E+02 -0.59313724459E+02  0.13613959542E+03  0.00000000000E+00 0.  1.
         14    1    4    4    0    0  0.31869940871E+02 -0.28450210346E+02 -0.22758352187E+02  0.48405063724E+02  0.00000000000E+00 0. -1.
         -5    1    5    5    0  502 -0.11573824115E+03 -0.10010253719E+03 -0.35323776994E+03  0.38498684462E+03  0.47000000000E+01 0.  1.
         13    1    6    6    0    0 -0.33509904407E+02 -0.23388231017E+01 -0.38436814573E+02  0.51046767786E+02  0.00000000000E+00 0. -1.
        -14    1    6    6    0    0 -0.62662136084E+01  0.21537440811E+02 -0.25271001415E+03  0.25370352390E+03  0.00000000000E+00 0.  1.
</event>
<event>
12    1  0.8053217E-002  0.1929487E+03  0.7818608E-02  0.1158047E+00
         21   -1    0    0  503  502  0.00000000000E+00  0.00000000000E+00  0.10013231107E+04  0.10013231107E+04  0.00000000000E+00 0. -1.
         21   -1    0    0  501  503 -0.00000000000E+00 -0.00000000000E+00 -0.35548476136E+02  0.35548476136E+02  0.00000000000E+00 0. -1.
          6    2    1    2  501    0 -0.51666629531E+02 -0.38661965120E+02  0.51178692657E+03  0.54358258392E+03  0.17144089121E+03 0.  0.
         24    2    3    3    0    0 -0.10005523708E+03 -0.11052288062E+02  0.27718579354E+03  0.30241141395E+03  0.66988772232E+02 0.  0.
         -6    2    1    2    0  502  0.51666629531E+02  0.38661965120E+02  0.45398770801E+03  0.49328900294E+03  0.18183787624E+03 0.  0.
        -24    2    5    5    0    0 -0.33545519623E+02  0.32366395997E+02  0.32338939475E+03  0.33715203108E+03  0.83173949924E+02 0.  0.
          5    1    3    3  501    0  0.48388607551E+02 -0.27609677058E+02  0.23460113303E+03  0.24117116997E+03  0.47000000000E+01 0. -1.
        -11    1    4    4    0    0 -0.30825192971E+02  0.20069329044E+02  0.14868558186E+03  0.15316779277E+03  0.00000000000E+00 0.  1.
         12    1    4    4    0    0 -0.69230044110E+02 -0.31121617106E+02  0.12850021168E+03  0.14924362117E+03  0.00000000000E+00 0. -1.
         -5    1    5    5    0  502  0.85212149155E+02  0.62955691226E+01  0.13059831326E+03  0.15613697186E+03  0.47000000000E+01 0.  1.
         13    1    6    6    0    0 -0.20576277251E+02  0.35876154512E+01  0.29161932857E+03  0.29236635745E+03  0.00000000000E+00 0. -1.
        -14    1    6    6    0    0 -0.12969242373E+02  0.28778780546E+02  0.31770066175E+02  0.44785673627E+02  0.00000000000E+00 0.  1.
</event>
<event>
12    1  0.8053217E-002  0.2824393E+03  0.7818608E-02  0.1094680E+00
         21   -1    0    0  503  502  0.00000000000E+00  0.00000000000E+00  0.25487392155E+03  0.25487392155E+03  0.00000000000E+00 0. -1.
         21   -1    0    0  501  503 -0.00000000000E+00 -0.00000000000E+00 -0.41716387296E+03  0.41716387296E+03  0.00000000000E+00 0. -1.
          6    2    1    2  501    0  0.15072548315E+03 -0.16272786973E+03 -0.25087357255E+03  0.37603268161E+03  0.17106869199E+03 0.  0.
         24    2    3    3    0    0  0.37255821059E+02 -0.37435874934E+02 -0.37170907889E+02  0.10351778833E+03  0.80900031973E+02 0.  0.
         -6    2    1    2    0  502 -0.15072548315E+03  0.16272786973E+03  0.88583621131E+02  0.29600511290E+03  0.17485261816E+03 0.  0.
        -24    2    5    5    0    0 -0.13818040354E+03  0.18641995680E+03  0.10272295109E+03  0.26533420382E+03  0.77485552350E+02 0.  0.
          5    1    3    3  501    0  0.11346966209E+03 -0.12529199479E+03 -0.21370266466E+03  0.27251489327E+03  0.47000000000E+01 0. -1.
        -13    1    4    4    0    0 -0.15094624046E+01 -0.46522932978E+02 -0.42888033101E+02  0.63293326291E+02  0.00000000000E+00 0.  1.
         14    1    4    4    0    0  0.38765283464E+02  0.90870580447E+01  0.57171252123E+01  0.40224462043E+02  0.00000000000E+00 0. -1.
         -5    1    5    5    0  502 -0.12545079614E+02 -0.23692087071E+02 -0.14139329958E+02  0.30670909083E+02  0.47000000000E+01 0.  1.
         11    1    6    6    0    0 -0.96213608884E+02  0.79582056870E+02  0.26779637927E+02  0.12770086655E+03  0.00000000000E+00 0. -1.
        -12    1    6    6    0    0 -0.41966794653E+02  0.10683789993E+03  0.75943313162E+02  0.13763333727E+03  0.00000000000E+00 0.  1.
</event>
<event>
12    1  0.8053217E-002  0.2254422E+03  0.7818608E-02  0.1130010E+00
         21   -1    0    0  501  502  0.00000000000E+00  0.00000000000E+00  0.35226013461E+03  0.35226013461E+03  0.00000000000E+00 0. -1.
         21   -1    0    0  502  503 -0.00000000000E+00 -0.00000000000E+00 -0.21982572852E+03  0.21982572852E+03  0.00000000000E+00 0. -1.
         -6    2    1    2    0  503  0.65355462252E+01 -0.14591219624E+03 -0.10187490679E+03  0.24739172068E+03  0.17172968425E+03 0.  0.
        -24    2    3    3    0    0  0.44851613491E+01 -0.17676519006E+03 -0.87998311747E+02  0.21317533286E+03  0.80212035143E+02 0.  0.
          6    2    1    2  501    0 -0.65355462252E+01  0.14591219624E+03  0.23430931288E+03  0.32469414245E+03  0.17085768833E+03 0.  0.
         24    2    5    5    0    0  0.39174218631E+02  0.51322335414E+02  0.56097382372E+02  0.11776853613E+03  0.80956224443E+02 0.  0.
          5    1    5    5  501    0 -0.45709764856E+02  0.94589860824E+02  0.17821193051E+03  0.20692560631E+03  0.47000000000E+01 0. -1.
        -11    1    6    6    0    0  0.22048450530E+02  0.45525793664E+02 -0.79618826603E+01  0.51206675688E+02  0.00000000000E+00 0.  1.
         12    1    6    6    0    0  0.17125768101E+02  0.57965417493E+01  0.64059265033E+02  0.66561860444E+02  0.00000000000E+00 0. -1.
         -5    1    3    3    0  503  0.20503848761E+01  0.30852993819E+02 -0.13876595041E+02  0.34216387823E+02  0.47000000000E+01 0.  1.
         13    1    4    4    0    0 -0.11232891303E+02 -0.11514001077E+03 -0.94320094291E+02  0.14926379371E+03  0.00000000000E+00 0. -1.
        -14    1    4    4    0    0  0.15718052653E+02 -0.61625179291E+02  0.63217825440E+01  0.63911539149E+02  0.00000000000E+00 0.  1.
</event>
<event>
12    1  0.8053217E-002  0.2080031E+03  0.7818608E-02  0.1143379E+00
         21   -1    0    0  503  502  0.00000000000E+00  0.00000000000E+00  0.38305605594E+03  0.38305605594E+03  0.00000000000E+00 0.  1.
         21   -1    0    0  501  503 -0.00000000000E+00 -0.00000000000E+00 -0.22351305391E+03  0.22351305391E+03  0.00000000000E+00 0. -1.
          6    2    1    2  501    0 -0.11413918886E+03  0.31780924625E+02 -0.13422136538E+03  0.24662078940E+03  0.16961325785E+03 0.  0.
         24    2    3    3    0    0 -0.11709564033E+03  0.37472274620E+02 -0.39606104502E+02  0.15167201553E+03  0.79499663076E+02 0.  0.
         -6    2    1    2    0  502  0.11413918886E+03 -0.31780924625E+02  0.29376436742E+03  0.35994832045E+03  0.17096054581E+03 0.  0.
        -24    2    5    5    0    0  0.87783782563E+02 -0.80129845014E+02  0.25717986402E+03  0.29367056073E+03  0.77292504422E+02 0.  0.
          5    1    3    3  501    0  0.29564514702E+01 -0.56913499954E+01 -0.94615260878E+02  0.94948773879E+02  0.47000000000E+01 0. -1.
        -11    1    4    4    0    0 -0.35591305365E+01 -0.36810298619E+01  0.17393449436E+02  0.18131449868E+02  0.00000000000E+00 0.  1.
         12    1    4    4    0    0 -0.11353650980E+03  0.41153304482E+02 -0.56999553938E+02  0.13354056566E+03  0.00000000000E+00 0. -1.
         -5    1    5    5    0  502  0.26355406301E+02  0.48348920389E+02  0.36584503396E+02  0.66277759715E+02  0.47000000000E+01 0.  1.
         11    1    6    6    0    0 -0.53729470567E+00 -0.44608236260E+02  0.10613246099E+03  0.11512724571E+03  0.00000000000E+00 0. -1.
        -12    1    6    6    0    0  0.88321077269E+02 -0.35521608755E+02  0.15104740303E+03  0.17854331502E+03  0.00000000000E+00 0.  1.
</event>
<event>
12    1  0.8053217E-002  0.1875298E+03  0.7818608E-02  0.1160780E+00
         21   -1    0    0  501  502  0.00000000000E+00  0.00000000000E+00  0.11259650957E+03  0.11259650957E+03  0.00000000000E+00 0.  1.
         21   -1    0    0  502  503 -0.00000000000E+00 -0.00000000000E+00 -0.11981334867E+04  0.11981334867E+04  0.00000000000E+00 0.  1.
         -6    2    1    2    0  503 -0.74886569413E+02  0.28088212562E+01 -0.11063225725E+04  0.11220518238E+04  0.17156565235E+03 0.  0.
        -24    2    3    3    0    0 -0.56506139827E+02  0.50351183771E+02 -0.97258518799E+03  0.97885303034E+03  0.80641934310E+02 0.  0.
          6    2    1    2  501    0  0.74886569413E+02 -0.28088212562E+01  0.20785595326E+02  0.18867817254E+03  0.17190556729E+03 0.  0.
         24    2    5    5    0    0  0.73673817478E+02  0.44590800320E+02  0.54954516787E+02  0.13004541645E+03  0.80471364901E+02 0.  0.
          5    1    5    5  501    0  0.12127519352E+01 -0.47399621577E+02 -0.34168921461E+02  0.58632756090E+02  0.47000000000E+01 0. -1.
        -13    1    6    6    0    0  0.72218547195E+02  0.52811155011E+02  0.16854853930E+02  0.91041873627E+02  0.00000000000E+00 0.  1.
         14    1    6    6    0    0  0.14552702831E+01 -0.82203546904E+01  0.38099662856E+02  0.39003542821E+02  0.00000000000E+00 0. -1.
         -5    1    3    3    0  503 -0.18380429587E+02 -0.47542362515E+02 -0.13373738449E+03  0.14319879341E+03  0.47000000000E+01 0.  1.
         13    1    4    4    0    0 -0.72773358984E+02  0.30741179131E+02 -0.56815131381E+03  0.57361737879E+03  0.00000000000E+00 0. -1.
        -14    1    4    4    0    0  0.16267219157E+02  0.19610004640E+02 -0.40443387418E+03  0.40523565155E+03  0.00000000000E+00 0.  1.
</event>
<event>
12    1  0.8053217E-002  0.1882995E+03  0.7818608E-02  0.1160701E+00
         21   -1    0    0  501  502  0.00000000000E+00  0.00000000000E+00  0.58706507165E+02  0.58706507165E+02  0.00000000000E+00 0. -1.
         21   -1    0    0  502  503 -0.00000000000E+00 -0.00000000000E+00 -0.64326480078E+03  0.64326480078E+03  0.00000000000E+00 0. -1.
         -6    2    1    2    0  503  0.36648041139E+02 -0.61963878262E+02 -0.19762121756E+03  0.27296674014E+03  0.17399452423E+03 0.  0.
        -24    2    3    3    0    0  0.87166258116E+02 -0.30348987911E+02 -0.99495942050E+02  0.15806569039E+03  0.81032724090E+02 0.  0.
          6    2    1    2  501    0 -0.36648041139E+02  0.61963878262E+02 -0.38693707605E+03  0.42900456781E+03  0.17071033140E+03 0.  0.
         24    2    5    5    0    0 -0.16357658342E+02 -0.28081799715E+02 -0.12905528731E+03  0.15506108692E+03  0.79577088612E+02 0.  0.
          5    1    5    5  501    0 -0.20290382797E+02  0.90045677976E+02 -0.25788178874E+03  0.27394348089E+03  0.47000000000E+01 0. -1.
        -11    1    6    6    0    0 -0.44643282799E+02 -0.72578433306E+01 -0.44274676050E+02  0.63292542437E+02  0.00000000000E+00 0.  1.
         12    1    6    6    0    0  0.28285624457E+02 -0.20823956384E+02 -0.84780611261E+02  0.91768544482E+02  0.00000000000E+00 0. -1.
         -5    1    3    3    0  503 -0.50518216977E+02 -0.31614890351E+02 -0.98125275513E+02  0.11490104975E+03  0.47000000000E+01 0.  1.
         13    1    4    4    0    0 -0.44983490256E+01  0.18393455090E+02 -0.13478147130E+02  0.23242521037E+02  0.00000000000E+00 0. -1.
        -14    1    4    4    0    0  0.91664607141E+02 -0.48742443000E+02 -0.86017794919E+02  0.13482316935E+03  0.00000000000E+00 0.  1.
</event>
<event>
12    1  0.8053217E-002  0.1889629E+03  0.7818608E-02  0.1161737E+00
         21   -1    0    0  501  502  0.00000000000E+00  0.00000000000E+00  0.96362784408E+02  0.96362784408E+02  0.00000000000E+00 0.  1.
         21   -1    0    0  502  503 -0.00000000000E+00 -0.00000000000E+00 -0.42076598159E+03  0.42076598159E+03  0.00000000000E+00 0.  1.
         -6    2    1    2    0  503  0.45015689034E+02 -0.23767021950E+02 -0.60781577588E+02  0.19849779291E+03  0.18197716897E+03 0.  0.
        -24    2    3    3    0    0  0.58091742770E+01 -0.84170822046E+02 -0.26886642872E+02  0.11876871124E+03  0.79149487769E+02 0.  0.
          6    2    1    2  501    0 -0.45015689034E+02  0.23767021950E+02 -0.26362161959E+03  0.31863097308E+03  0.17157521704E+03 0.  0.
         24    2    5    5    0    0 -0.80760248908E+02  0.36408472957E+02 -0.25212325042E+03  0.27873382610E+03  0.79237729028E+02 0.  0.
          5    1    5    5  501    0  0.35744559874E+02 -0.12641451007E+02 -0.11498369173E+02  0.39897146988E+02  0.47000000000E+01 0. -1.
        -13    1    6    6    0    0 -0.61518560085E+02  0.20909712008E+02 -0.72239406110E+02  0.97161108919E+02  0.00000000000E+00 0.  1.
         14    1    6    6    0    0 -0.19241688822E+02  0.15498760950E+02 -0.17988384431E+03  0.18157271718E+03  0.00000000000E+00 0. -1.
         -5    1    3    3    0  503  0.39206514757E+02  0.60403800096E+02 -0.33894934716E+02  0.79729081676E+02  0.47000000000E+01 0.  1.
         13    1    4    4    0    0 -0.30970679624E+02 -0.34482590062E+02 -0.32629833756E+02  0.56682784553E+02  0.00000000000E+00 0. -1.
        -14    1    4    4    0    0  0.36779853901E+02 -0.49688231984E+02  0.57431908837E+01  0.62085926684E+02  0.00000000000E+00 0.  1.
</event>
<event>
12    1  0.8053217E-002  0.1787619E+03  0.7818608E-02  0.1169167E+00
         21   -1    0    0  501  502  0.00000000000E+00  0.00000000000E+00  0.12385761191E+02  0.12385761191E+02  0.00000000000E+00 0.  1.
         21   -1    0    0  502  503 -0.00000000000E+00 -0.00000000000E+00 -0.27979693591E+04  0.27979693591E+04  0.00000000000E+00 0.  1.
         -6    2    1    2    0  503 -0.12666931980E+02 -0.41753538110E+02 -0.17910118877E+04  0.17998459924E+04  0.17267948756E+03 0.  0.
        -24    2    3    3    0    0 -0.42907104628E+02 -0.85790360807E+02 -0.12303147738E+04  0.12365902305E+04  0.79246134950E+02 0.  0.
          6    2    1    2  501    0  0.12666931980E+02  0.41753538110E+02 -0.99457171020E+03  0.10105091279E+04  0.17335513162E+03 0.  0.
         24    2    5    5    0    0  0.73446391309E+02  0.35851862318E+02 -0.52910222593E+03  0.54102760188E+03  0.77986999470E+02 0.  0.
          5    1    5    5  501    0 -0.60779459330E+02  0.59016757919E+01 -0.46546948427E+03  0.46948152598E+03  0.47000000000E+01 0. -1.
        -11    1    6    6    0    0 -0.80043926605E+00  0.38567280911E+02 -0.17041168565E+03  0.17472326253E+03  0.00000000000E+00 0.  1.
         12    1    6    6    0    0  0.74246830575E+02 -0.27154185927E+01 -0.35869054027E+03  0.36630433936E+03  0.00000000000E+00 0. -1.
         -5    1    3    3    0  503  0.30240172648E+02  0.44036822697E+02 -0.56069711384E+03  0.56325576185E+03  0.47000000000E+01 0.  1.
         13    1    4    4    0    0  0.94526993632E+01 -0.10884114689E+02 -0.35931721747E+02  0.38715708769E+02  0.00000000000E+00 0. -1.
        -14    1    4    4    0    0 -0.52359803991E+02 -0.74906246118E+02 -0.11943830521E+04  0.11978745218E+04  0.00000000000E+00 0.  1.
</event>
<event>
12    1  0.8053217E-002  0.1881412E+03  0.7818608E-02  0.1160222E+00
         21   -1    0    0  501  502  0.00000000000E+00  0.00000000000E+00  0.76391635070E+03  0.76391635070E+03  0.00000000000E+00 0.  1.
         21   -1    0    0  502  503 -0.00000000000E+00 -0.00000000000E+00 -0.51945773015E+02  0.51945773015E+02  0.00000000000E+00 0.  1.
         -6    2    1    2    0  503  0.12445676415E+02  0.74936611926E+02  0.22072391758E+03  0.28981993266E+03  0.17177355707E+03 0.  0.
        -24    2    3    3    0    0  0.47424065306E+02 -0.10719619249E+02  0.68371064573E+02  0.11151132534E+03  0.73458974946E+02 0.  0.
          6    2    1    2  501    0 -0.12445676415E+02 -0.74936611926E+02  0.49124666011E+03  0.52604219105E+03  0.17212412682E+03 0.  0.
         24    2    5    5    0    0  0.14049080337E+02 -0.11653196920E+03  0.35648637256E+03  0.38246443866E+03  0.73616822217E+02 0.  0.
          5    1    5    5  501    0 -0.26494756752E+02  0.41595357278E+02  0.13476028755E+03  0.14357775240E+03  0.47000000000E+01 0. -1.
        -13    1    6    6    0    0  0.24962140350E+01 -0.87344715767E+02  0.33006183969E+03  0.34143249475E+03  0.00000000000E+00 0.  1.
         14    1    6    6    0    0  0.11552866302E+02 -0.29187253437E+02  0.26424532869E+02  0.41031943901E+02  0.00000000000E+00 0. -1.
         -5    1    3    3    0  503 -0.34978388891E+02  0.85656231174E+02  0.15235285301E+03  0.17830860733E+03  0.47000000000E+01 0.  1.
         13    1    4    4    0    0  0.38007421193E+01 -0.11102654907E+02  0.66836946383E+02  0.67859354466E+02  0.00000000000E+00 0. -1.
        -14    1    4    4    0    0  0.43623323187E+02  0.38303565843E+00  0.15341181896E+01  0.43651970869E+02  0.00000000000E+00 0.  1.
</event>
<event>
12    1  0.8053217E-002  0.2555115E+03  0.7818608E-02  0.1110604E+00
         21   -1    0    0  501  502  0.00000000000E+00  0.00000000000E+00  0.13539618266E+03  0.13539618266E+03  0.00000000000E+00 0. -1.
         21   -1    0    0  502  503 -0.00000000000E+00 -0.00000000000E+00 -0.64200346395E+03  0.64200346395E+03  0.00000000000E+00 0. -1.
         -6    2    1    2    0  503 -0.23930136828E+02  0.18193439360E+03 -0.45080298108E+03  0.51586526917E+03  0.17094113946E+03 0.  0.
        -24    2    3    3    0    0 -0.65701669861E+02  0.83304503697E+02 -0.32235043064E+03  0.34854861169E+03  0.79498332195E+02 0.  0.
          6    2    1    2  501    0  0.23930136828E+02 -0.18193439360E+03 -0.55804300209E+02  0.26153437744E+03  0.17780139380E+03 0.  0.
         24    2    5    5    0    0  0.40631536788E+01 -0.11666676603E+02 -0.31237844991E+02  0.88296410489E+02  0.81656797541E+02 0.  0.
          5    1    5    5  501    0  0.19866983149E+02 -0.17026771699E+03 -0.24566455218E+02  0.17323796695E+03  0.47000000000E+01 0. -1.
        -13    1    6    6    0    0  0.35553627452E+02 -0.26199029929E+01  0.86429214466E+01  0.36682753547E+02  0.00000000000E+00 0.  1.
         14    1    6    6    0    0 -0.31490473773E+02 -0.90467736101E+01 -0.39880766438E+02  0.51613656941E+02  0.00000000000E+00 0. -1.
         -5    1    3    3    0  503  0.41771533032E+02  0.98629889900E+02 -0.12845255044E+03  0.16731665747E+03  0.47000000000E+01 0.  1.
         11    1    4    4    0    0 -0.64544504900E+02  0.97285595545E+02 -0.26628237792E+03  0.29075210233E+03  0.00000000000E+00 0. -1.
        -12    1    4    4    0    0 -0.11571649611E+01 -0.13981091848E+02 -0.56068052714E+02  0.57796509368E+02  0.00000000000E+00 0.  1.
</event>
<event>
12    1  0.8053217E-002  0.2280181E+03  0.7818608E-02  0.1128143E+00
         21   -1    0    0  503  502  0.00000000000E+00  0.00000000000E+00  0.13271402657E+03  0.13271402657E+03  0.00000000000E+00 0. -1.
         21   -1    0    0  501  503 -0.00000000000E+00 -0.00000000000E+00 -0.40508452887E+03  0.40508452887E+03  0.00000000000E+00 0.  1.
          6    2    1    2  501    0  0.14506364652E+03  0.36022400075E+02 -0.18653513710E+03  0.29415950628E+03  0.17144498509E+03 0.  0.
         24    2    3    3    0    0  0.89709140839E+02  0.36529651716E+02 -0.20213088652E+03  0.23645598816E+03  0.75315294923E+02 0.  0.
         -6    2    1    2    0  502 -0.14506364652E+03 -0.36022400075E+02 -0.85835365193E+02  0.24363904915E+03  0.17219524240E+03 0.  0.
        -24    2    5    5    0    0 -0.10849001037E+03  0.19841756102E+02 -0.10429562276E+03  0.17420342490E+03  0.85472093012E+02 0.  0.
          5    1    3    3  501    0  0.55354505679E+02 -0.50725164105E+00  0.15595749412E+02  0.57703518116E+02  0.47000000000E+01 0. -1.
        -11    1    4    4    0    0  0.72226560490E+02  0.16601827684E+02 -0.70859826337E+02  0.10253492922E+03  0.00000000000E+00 0.  1.
         12    1    4    4    0    0  0.17482580349E+02  0.19927824033E+02 -0.13127106018E+03  0.13392105894E+03  0.00000000000E+00 0. -1.
         -5    1    5    5    0  502 -0.36573636147E+02 -0.55864156177E+02  0.18460257568E+02  0.69435624256E+02  0.47000000000E+01 0.  1.
         13    1    6    6    0    0 -0.72243873449E+02  0.31038859593E+02 -0.19059716964E+02  0.80906494588E+02  0.00000000000E+00 0. -1.
        -14    1    6    6    0    0 -0.36246136922E+02 -0.11197103491E+02 -0.85235905797E+02  0.93296930311E+02  0.00000000000E+00 0.  1.
</event>
<event>
12    1  0.8053217E-002  0.2275285E+03  0.7818608E-02  0.1128523E+00
         21   -1    0    0  503  502  0.00000000000E+00  0.00000000000E+00  0.67692424683E+03  0.67692424683E+03  0.00000000000E+00 0. -1.
         21   -1    0    0  501  503 -0.00000000000E+00 -0.00000000000E+00 -0.76783739327E+02  0.76783739327E+02  0.00000000000E+00 0.  1.
          6    2    1    2  501    0 -0.14580877017E+03  0.34276477848E+02  0.33161155560E+03  0.40174630138E+03  0.17029031821E+03 0.  0.
         24    2    3    3    0    0 -0.80928140221E+02  0.85074037245E+02  0.17452758292E+03  0.22429954132E+03  0.77868166438E+02 0.  0.
         -6    2    1    2    0  502  0.14580877017E+03 -0.34276477848E+02  0.26852895191E+03  0.35196168478E+03  0.17127216688E+03 0.  0.
        -24    2    5    5    0    0  0.13965707398E+03 -0.27564529351E+02  0.28729078323E+03  0.33058436190E+03  0.80536480006E+02 0.  0.
          5    1    3    3  501    0 -0.64880629950E+02 -0.50797559397E+02  0.15708397268E+03  0.17744676006E+03  0.47000000000E+01 0. -1.
        -13    1    4    4    0    0 -0.31530524077E+01 -0.21675058901E+00 -0.78508251307E+01  0.84631067308E+01  0.00000000000E+00 0.  1.
         14    1    4    4    0    0 -0.77775087813E+02  0.85290787834E+02  0.18237840805E+03  0.21583643459E+03  0.00000000000E+00 0. -1.
         -5    1    5    5    0  502  0.61516961872E+01 -0.67119484968E+01 -0.18761831326E+02  0.21377322875E+02  0.47000000000E+01 0.  1.
         11    1    6    6    0    0  0.57898692763E+02 -0.52628504132E+01  0.20259354655E+03  0.21077025720E+03  0.00000000000E+00 0. -1.
        -12    1    6    6    0    0  0.81758381220E+02 -0.22301678938E+02  0.84697236689E+02  0.11981410470E+03  0.00000000000E+00 0.  1.
</event>
<event>
12    1  0.8053217E-002  0.1884661E+03  0.7818608E-02  0.1159958E+00
         21   -1    0    0  501  502  0.00000000000E+00  0.00000000000E+00  0.41833164976E+02  0.41833164976E+02  0.00000000000E+00 0.  1.
         21   -1    0    0  502  503 -0.00000000000E+00 -0.00000000000E+00 -0.12845209961E+04  0.12845209961E+04  0.00000000000E+00 0.  1.
         -6    2    1    2    0  503  0.78533807333E+02 -0.63984670423E+01 -0.10078879898E+04  0.10252720213E+04  0.17069276046E+03 0.  0.
        -24    2    3    3    0    0  0.10132104574E+02  0.48891200922E+02 -0.63979517786E+03  0.64678800777E+03  0.80646440140E+02 0.  0.
          6    2    1    2  501    0 -0.78533807333E+02  0.63984670423E+01 -0.23479984141E+03  0.30108213982E+03  0.17120452716E+03 0.  0.
         24    2    5    5    0    0 -0.41448216896E+02 -0.52359790356E+02 -0.77792652502E+02  0.12932294444E+03  0.78824011860E+02 0.  0.
          5    1    5    5  501    0 -0.37085590438E+02  0.58758257399E+02 -0.15700718890E+03  0.17175919538E+03  0.47000000000E+01 0. -1.
        -11    1    6    6    0    0 -0.38305253854E+02  0.85534990848E+01 -0.46237691879E+02  0.60649641134E+02  0.00000000000E+00 0.  1.
         12    1    6    6    0    0 -0.31429630419E+01 -0.60913289441E+02 -0.31554960623E+02  0.68673303307E+02  0.00000000000E+00 0. -1.
         -5    1    3    3    0  503  0.68401702759E+02 -0.55289667965E+02 -0.36809281189E+03  0.37848401352E+03  0.47000000000E+01 0.  1.
         13    1    4    4    0    0 -0.32292529054E+02  0.33523666299E+02 -0.40759959540E+03  0.41024879501E+03  0.00000000000E+00 0. -1.
        -14    1    4    4    0    0  0.42424633628E+02  0.15367534624E+02 -0.23219558246E+03  0.23653921276E+03  0.00000000000E+00 0.  1.
</event>
<event>
12    1  0.8053217E-002  0.2585473E+03  0.7818608E-02  0.1109170E+00
         21   -1    0    0  503  502  0.00000000000E+00  0.00000000000E+00  0.16778813592E+03  0.16778813592E+03  0.00000000000E+00 0.  1.
         21   -1    0    0  501  503 -0.00000000000E+00 -0.00000000000E+00 -0.44743140339E+03  0.44743140339E+03  0.00000000000E+00 0. -1.
          6    2    1    2  501    0  0.12329427899E+01 -0.18298477029E+03 -0.24956238748E+02  0.25229778773E+03  0.17189070229E+03 0.  0.
         24    2    3    3    0    0 -0.45126826363E+02 -0.16375442157E+03  0.11313782249E+02  0.19019594451E+03  0.84820720326E+02 0.  0.
         -6    2    1    2    0  502 -0.12329427899E+01  0.18298477029E+03 -0.25468702873E+03  0.36292175159E+03  0.18265204315E+03 0.  0.
        -24    2    5    5    0    0 -0.56188142029E+02  0.47819923225E+02 -0.77449637498E+02  0.13330295302E+03  0.79544821160E+02 0.  0.
          5    1    3    3  501    0  0.46359769153E+02 -0.19230348717E+02 -0.36270020997E+02  0.62101843216E+02  0.47000000000E+01 0. -1.
        -13    1    4    4    0    0 -0.78518603954E+01 -0.60274248070E+02  0.44474594502E+02  0.75316839075E+02  0.00000000000E+00 0.  1.
         14    1    4    4    0    0 -0.37274965967E+02 -0.10348017350E+03 -0.33160812253E+02  0.11487910544E+03  0.00000000000E+00 0. -1.
         -5    1    5    5    0  502  0.54955199239E+02  0.13516484707E+03 -0.17723739123E+03  0.22961879857E+03  0.47000000000E+01 0.  1.
         11    1    6    6    0    0  0.43784786840E+01  0.47712720673E+02 -0.35323934855E+02  0.59526928051E+02  0.00000000000E+00 0. -1.
        -12    1    6    6    0    0 -0.60566620713E+02  0.10720255220E+00 -0.42125702643E+02  0.73776024969E+02  0.00000000000E+00 0.  1.
</event>
<event>
12    1  0.8053217E-002  0.2663175E+03  0.7818608E-02  0.1103499E+00
         21   -1    0    0  503  502  0.00000000000E+00  0.00000000000E+00  0.68979739659E+02  0.68979739659E+02  0.00000000000E+00 0.  1.
         21   -1    0    0  501  503 -0.00000000000E+00 -0.00000000000E+00 -0.12297123222E+04  0.12297123222E+04  0.00000000000E+00 0.  1.
          6    2    1    2  501    0  0.10721605257E+03  0.17312292270E+03 -0.84424388065E+03  0.88506165070E+03  0.17064456400E+03 0.  0.
         24    2    3    3    0    0  0.71676900901E+02  0.11469931279E+03 -0.32358241031E+03  0.35990757217E+03  0.80835473435E+02 0.  0.
         -6    2    1    2    0  502 -0.10721605257E+03 -0.17312292270E+03 -0.31648870186E+03  0.41363041113E+03  0.17163388452E+03 0.  0.
        -24    2    5    5    0    0 -0.49828146808E+02 -0.12298575426E+02 -0.11634887370E+03  0.15050328744E+03  0.80498943776E+02 0.  0.
          5    1    3    3  501    0  0.35539151667E+02  0.58423609910E+02 -0.52066147034E+03  0.52515407853E+03  0.47000000000E+01 0. -1.
        -13    1    4    4    0    0 -0.56201679213E+01  0.65094105341E+02 -0.14706934661E+03  0.16092924392E+03  0.00000000000E+00 0.  1.
         14    1    4    4    0    0  0.77297068822E+02  0.49605207450E+02 -0.17651306370E+03  0.19897832825E+03  0.00000000000E+00 0. -1.
         -5    1    5    5    0  502 -0.57387905760E+02 -0.16082434728E+03 -0.20013982816E+03  0.26312712369E+03  0.47000000000E+01 0.  1.
         13    1    6    6    0    0 -0.35339118564E+02 -0.46450913960E+02 -0.71798156893E+02  0.92528460712E+02  0.00000000000E+00 0. -1.
        -14    1    6    6    0    0 -0.14489028243E+02  0.34152338534E+02 -0.44550716804E+02  0.57974826731E+02  0.00000000000E+00 0.  1.
</event>
<event>
12    1  0.8053217E-002  0.2207516E+03  0.7818608E-02  0.1133968E+00
         21   -1    0    0  503  502  0.00000000000E+00  0.00000000000E+00  0.53649762944E+03  0.53649762944E+03  0.00000000000E+00 0. -1.
         21   -1    0    0  501  503 -0.00000000000E+00 -0.00000000000E+00 -0.89780110511E+02  0.89780110511E+02  0.00000000000E+00 0.  1.
          6    2    1    2  501    0 -0.98896290464E+02 -0.90364821904E+02  0.24491447758E+03  0.32971862921E+03  0.17545653540E+03 0.  0.
         24    2    3    3    0    0 -0.12778414031E+03 -0.41587786155E+02  0.21441433603E+03  0.26517363932E+03  0.79279385858E+02 0.  0.
         -6    2    1    2    0  502  0.98896290464E+02  0.90364821904E+02  0.20180304135E+03  0.29655911074E+03  0.17110394899E+03 0.  0.
        -24    2    5    5    0    0 -0.15742959992E+02  0.28769562771E+02  0.64181857565E+02  0.10709192646E+03  0.79207583861E+02 0.  0.
          5    1    3    3  501    0  0.28887849850E+02 -0.48777035749E+02  0.30500141547E+02  0.64544989889E+02  0.47000000000E+01 0. -1.
        -11    1    4    4    0    0 -0.99333635952E+02 -0.64088165175E+02  0.14715202748E+03  0.18875429356E+03  0.00000000000E+00 0.  1.
         12    1    4    4    0    0 -0.28450504361E+02  0.22500379020E+02  0.67262308551E+02  0.76419345758E+02  0.00000000000E+00 0. -1.
         -5    1    5    5    0  502  0.11463925046E+03  0.61595259132E+02  0.13762118379E+03  0.18946718428E+03  0.47000000000E+01 0.  1.
         11    1    6    6    0    0  0.19113404646E+02  0.27897628310E+02  0.63816334456E+02  0.72222741889E+02  0.00000000000E+00 0. -1.
        -12    1    6    6    0    0 -0.34856364639E+02  0.87193446104E+00  0.36552310882E+00  0.34869184571E+02  0.00000000000E+00 0.  1.
</event>
<event>
12    1  0.8053217E-002  0.2354709E+03  0.7818608E-02  0.1124055E+00
         21   -1    0    0  503  502  0.00000000000E+00  0.00000000000E+00  0.14834181160E+03  0.14834181160E+03  0.00000000000E+00 0.  1.
         21   -1    0    0  501  503 -0.00000000000E+00 -0.00000000000E+00 -0.15968539490E+04  0.15968539490E+04  0.00000000000E+00 0.  1.
          6    2    1    2  501    0 -0.10447435736E+03 -0.12235656967E+03 -0.14937970846E+04  0.15122421282E+04  0.17193168038E+03 0.  0.
         24    2    3    3    0    0 -0.48575352470E+02 -0.48541292713E+02 -0.11877847177E+04  0.11924937074E+04  0.80578438187E+02 0.  0.
         -6    2    1    2    0  502  0.10447435736E+03  0.12235656967E+03  0.45284947201E+02  0.23295363244E+03  0.16226720846E+03 0.  0.
        -24    2    5    5    0    0  0.55083724836E+02  0.13675041022E+03  0.56424895545E+02  0.18010662992E+03  0.86716422135E+02 0.  0.
          5    1    3    3  501    0 -0.55899004888E+02 -0.73815276952E+02 -0.30601236697E+03  0.31974842079E+03  0.47000000000E+01 0. -1.
        -13    1    4    4    0    0  0.17208949370E+02 -0.34447018643E+02 -0.45596370609E+03  0.45758676368E+03  0.00000000000E+00 0.  1.
         14    1    4    4    0    0 -0.65784301840E+02 -0.14094274071E+02 -0.73182101158E+03  0.73490694371E+03  0.00000000000E+00 0. -1.
         -5    1    5    5    0  502  0.49390632522E+02 -0.14393840551E+02 -0.11139948343E+02  0.52847002524E+02  0.47000000000E+01 0.  1.
         11    1    6    6    0    0  0.17536030024E+02  0.27087296404E+01 -0.15375410174E+02  0.23478773463E+02  0.00000000000E+00 0. -1.
        -12    1    6    6    0    0  0.37547694811E+02  0.13404168058E+03  0.71800305719E+02  0.15662785646E+03  0.00000000000E+00 0.  1.
</event>
<event>
12    1  0.8053217E-002  0.1937029E+03  0.7818608E-02  0.1156107E+00
         21   -1    0    0  503  502  0.00000000000E+00  0.00000000000E+00  0.73631644666E+02  0.73631644666E+02  0.00000000000E+00 0. -1.
         21   -1    0    0  501  503 -0.00000000000E+00 -0.00000000000E+00 -0.70381344647E+03  0.70381344647E+03  0.00000000000E+00 0. -1.
          6    2    1    2  501    0 -0.14905415830E+02 -0.84862602997E+02 -0.52257387562E+03  0.55585928281E+03  0.16873723359E+03 0.  0.
         24    2    3    3    0    0  0.28494447152E+02 -0.72479103241E+01 -0.15684347604E+03  0.17944408147E+03  0.82072143113E+02 0.  0.
         -6    2    1    2    0  502  0.14905415830E+02  0.84862602997E+02 -0.10760792619E+03  0.22158580833E+03  0.17348478857E+03 0.  0.
        -24    2    5    5    0    0  0.69064694811E+02  0.37965081003E+02 -0.99674778339E+02  0.14935264486E+03  0.78484849787E+02 0.  0.
          5    1    3    3  501    0 -0.43399862982E+02 -0.77614692673E+02 -0.36573039958E+03  0.37641520134E+03  0.47000000000E+01 0. -1.
        -13    1    4    4    0    0  0.30247695201E+02 -0.42320248095E+02 -0.96447892650E+02  0.10958157902E+03  0.00000000000E+00 0.  1.
         14    1    4    4    0    0 -0.17532480486E+01  0.35072337771E+02 -0.60395583395E+02  0.69862502453E+02  0.00000000000E+00 0. -1.
         -5    1    5    5    0  502 -0.54159278981E+02  0.46897521994E+02 -0.79331478463E+01  0.72233163461E+02  0.47000000000E+01 0.  1.
         11    1    6    6    0    0 -0.76450328091E+01  0.33087960593E+02 -0.24834249536E+02  0.42071363335E+02  0.00000000000E+00 0. -1.
        -12    1    6    6    0    0  0.76709727620E+02  0.48771204100E+01 -0.74840528803E+02  0.10728128153E+03  0.00000000000E+00 0.  1.
</event>
<event>
12    1  0.8053217E-002  0.1940642E+03  0.7818608E-02  0.1154851E+00
         21   -1    0    0  501  502  0.00000000000E+00  0.00000000000E+00  0.14397698712E+03  0.14397698712E+03  0.00000000000E+00 0.  1.
         21   -1    0    0  502  503 -0.00000000000E+00 -0.00000000000E+00 -0.30171903943E+03  0.30171903943E+03  0.00000000000E+00 0. -1.
         -6    2    1    2    0  503  0.86452821793E+02 -0.18375778396E+02  0.24463832300E+01  0.19405892647E+03  0.17274583215E+03 0.  0.
        -24    2    3    3    0    0  0.12077570114E+03  0.11989472222E+02  0.14510429711E+02  0.14643813575E+03  0.80641537691E+02 0.  0.
          6    2    1    2  501    0 -0.86452821793E+02  0.18375778396E+02 -0.16018843554E+03  0.25163710008E+03  0.17276902392E+03 0.  0.
         24    2    5    5    0    0 -0.86829782061E+02 -0.43955198714E+02 -0.80647403374E+02  0.15047308175E+03  0.81649703690E+02 0.  0.
          5    1    5    5  501    0  0.37696026758E+00  0.62330977110E+02 -0.79541032169E+02  0.10116401833E+03  0.47000000000E+01 0. -1.
        -11    1    6    6    0    0 -0.61923316414E+02 -0.22143203848E+02 -0.27372010161E+01  0.65820292174E+02  0.00000000000E+00 0.  1.
         12    1    6    6    0    0 -0.24906465647E+02 -0.21811994866E+02 -0.77910202358E+02  0.84652789573E+02  0.00000000000E+00 0. -1.
         -5    1    3    3    0  503 -0.34322879345E+02 -0.30365250618E+02 -0.12064046481E+02  0.47620790724E+02  0.47000000000E+01 0.  1.
         13    1    4    4    0    0  0.64971198333E+02 -0.13279748710E+02 -0.27885787263E+02  0.71939039957E+02  0.00000000000E+00 0. -1.
        -14    1    4    4    0    0  0.55804502806E+02  0.25269220932E+02  0.42396216974E+02  0.74499095791E+02  0.00000000000E+00 0.  1.
</event>
<event>
12    1  0.8053217E-002  0.2223197E+03  0.7818608E-02  0.1132899E+00
         21   -1    0    0  501  502  0.00000000000E+00  0.00000000000E+00  0.59966580016E+02  0.59966580016E+02  0.00000000000E+00 0.  1.
         21   -1    0    0  502  503 -0.00000000000E+00 -0.00000000000E+00 -0.94720410759E+03  0.94720410759E+03  0.00000000000E+00 0. -1.
         -6    2    1    2    0  503  0.13633978505E+03 -0.26524506273E+02 -0.25511216955E+03  0.33839071705E+03  0.17359139354E+03 0.  0.
        -24    2    3    3    0    0  0.38381180976E+02  0.14330347048E+02 -0.40367818542E+02  0.98803084973E+02  0.80336883975E+02 0.  0.
          6    2    1    2  501    0 -0.13633978505E+03  0.26524506273E+02 -0.63212535802E+03  0.66877997055E+03  0.16849953811E+03 0.  0.
         24    2    5    5    0    0 -0.13563128229E+03 -0.11653200222E+02 -0.33303584474E+03  0.36722621713E+03  0.73556637067E+02 0.  0.
          5    1    5    5  501    0 -0.70850276338E+00  0.38177706495E+02 -0.29908951328E+03  0.30155375342E+03  0.47000000000E+01 0. -1.
        -13    1    6    6    0    0 -0.72634182335E+02  0.31989915630E+01 -0.89884603039E+02  0.11560795757E+03  0.00000000000E+00 0.  1.
         14    1    6    6    0    0 -0.62997099955E+02 -0.14852191785E+02 -0.24315124170E+03  0.25161825956E+03  0.00000000000E+00 0. -1.
         -5    1    3    3    0  503  0.97958604077E+02 -0.40854853321E+02 -0.21474435101E+03  0.23958763207E+03  0.47000000000E+01 0.  1.
         13    1    4    4    0    0  0.48713639512E+02 -0.21221175395E+02 -0.22704175187E+02  0.57782666350E+02  0.00000000000E+00 0. -1.
        -14    1    4    4    0    0 -0.10332458535E+02  0.35551522444E+02 -0.17663643355E+02  0.41020418623E+02  0.00000000000E+00 0.  1.
</event>
<event>
12    1  0.8053217E-002  0.1935188E+03  0.7818608E-02  0.1158862E+00
         21   -1    0    0  503  502  0.00000000000E+00  0.00000000000E+00  0.14281640865E+04  0.14281640865E+04  0.00000000000E+00 0.  1.
         21   -1    0    0  501  503 -0.00000000000E+00 -0.00000000000E+00 -0.27796014627E+02  0.27796014627E+02  0.00000000000E+00 0.  1.
          6    2    1    2  501    0  0.47075080107E+02 -0.10296727712E+02  0.41265438469E+03  0.44946725334E+03  0.17150826467E+03 0.  0.
         24    2    3    3    0    0  0.22495251050E+02  0.28725229799E+02  0.99666644978E+02  0.13306514150E+03  0.80260305348E+02 0.  0.
         -6    2    1    2    0  502 -0.47075080107E+02  0.10296727712E+02  0.98771368721E+03  0.10064928478E+04  0.18742315502E+03 0.  0.
        -24    2    5    5    0    0  0.17065043839E+02 -0.35391390229E+02  0.27509178187E+03  0.28951765327E+03  0.81247873088E+02 0.  0.
          5    1    3    3  501    0  0.24579829057E+02 -0.39021957512E+02  0.31298773972E+03  0.31640211184E+03  0.47000000000E+01 0. -1.
        -11    1    4    4    0    0 -0.52931565611E+01  0.48230856931E+02  0.34340306041E+02  0.59443163489E+02  0.00000000000E+00 0.  1.
         12    1    4    4    0    0  0.27788407611E+02 -0.19505627131E+02  0.65326338938E+02  0.73621978012E+02  0.00000000000E+00 0. -1.
         -5    1    5    5    0  502 -0.64140123945E+02  0.45688117942E+02  0.71262190534E+03  0.71697519455E+03  0.47000000000E+01 0.  1.
         13    1    6    6    0    0  0.32198472484E+02 -0.23019452185E+02  0.50914128578E+02  0.64489420047E+02  0.00000000000E+00 0. -1.
        -14    1    6    6    0    0 -0.15133428645E+02 -0.12371938044E+02  0.22417765329E+03  0.22502823323E+03  0.00000000000E+00 0.  1.
</event>
<event>
12    1  0.8053217E-002  0.2150764E+03  0.7818608E-02  0.1138062E+00
         21   -1    0    0  503  502  0.00000000000E+00  0.00000000000E+00  0.10402777575E+04  0.10402777575E+04  0.00000000000E+00 0. -1.
         21   -1    0    0  501  503 -0.00000000000E+00 -0.00000000000E+00 -0.13574418204E+03  0.13574418204E+03  0.00000000000E+00 0.  1.
          6    2    1    2  501    0  0.19884176810E+02 -0.12747214054E+03 -0.31992484935E+02  0.21511668395E+03  0.16913645828E+03 0.  0.
         24    2    3    3    0    0  0.46882543394E+02 -0.77919404370E+02 -0.77295249220E+02  0.14259899016E+03  0.78041719558E+02 0.  0.
         -6    2    1    2    0  502 -0.19884176810E+02  0.12747214054E+03  0.93652606039E+03  0.96090525559E+03  0.17208521526E+03 0.  0.
        -24    2    5    5    0    0 -0.63661630224E+02  0.12340182753E+03  0.59993478570E+03  0.62142210567E+03  0.83443826158E+02 0.  0.
          5    1    3    3  501    0 -0.26998366584E+02 -0.49552736173E+02  0.45302764286E+02  0.72517693789E+02  0.47000000000E+01 0. -1.
        -11    1    4    4    0    0 -0.17411010587E+02 -0.43208075197E+02 -0.33966345508E+02  0.57652351895E+02  0.00000000000E+00 0.  1.
         12    1    4    4    0    0  0.64293553980E+02 -0.34711329173E+02 -0.43328903712E+02  0.84946638270E+02  0.00000000000E+00 0. -1.
         -5    1    5    5    0  502  0.43777453415E+02  0.40703130168E+01  0.33659127469E+03  0.33948314991E+03  0.47000000000E+01 0.  1.
         13    1    6    6    0    0 -0.17195220682E+02  0.59142341935E+02  0.42389141419E+03  0.42834264701E+03  0.00000000000E+00 0. -1.
        -14    1    6    6    0    0 -0.46466409542E+02  0.64259485591E+02  0.17604337152E+03  0.19307945867E+03  0.00000000000E+00 0.  1.
</event>
<event>
12    1  0.8053217E-002  0.2213961E+03  0.7818608E-02  0.1132938E+00
         21   -1    0    0  503  502  0.00000000000E+00  0.00000000000E+00  0.18051973969E+03  0.18051973969E+03  0.00000000000E+00 0. -1.
         21   -1    0    0  501  503 -0.00000000000E+00 -0.00000000000E+00 -0.30230324209E+03  0.30230324209E+03  0.00000000000E+00 0.  1.
          6    2    1    2  501    0 -0.11535335010E+03 -0.79013130185E+02 -0.13873298170E+03  0.26127202820E+03  0.17165885467E+03 0.  0.
         24    2    3    3    0    0 -0.44287413534E+02 -0.36893369698E+02  0.42260692420E+00  0.99374500706E+02  0.80948236971E+02 0.  0.
         -6    2    1    2    0  502  0.11535335010E+03  0.79013130185E+02  0.16949479299E+02  0.22155095358E+03  0.17102067144E+03 0.  0.
        -24    2    5    5    0    0  0.12746804190E+03  0.10864113984E+03  0.25658027981E+02  0.18804702047E+03  0.81561930663E+02 0.  0.
          5    1    3    3  501    0 -0.71065936571E+02 -0.42119760487E+02 -0.13915558862E+03  0.16189752750E+03  0.47000000000E+01 0. -1.
        -11    1    4    4    0    0 -0.21244337859E+02 -0.36713986334E+02 -0.36427534084E+02  0.55912466615E+02  0.00000000000E+00 0.  1.
         12    1    4    4    0    0 -0.23043075675E+02 -0.17938336444E+00  0.36850141008E+02  0.43462034090E+02  0.00000000000E+00 0. -1.
         -5    1    5    5    0  502 -0.12114691799E+02 -0.29628009657E+02 -0.87085486813E+01  0.33503933109E+02  0.47000000000E+01 0.  1.
         11    1    6    6    0    0  0.12440577536E+03  0.61714101973E+02  0.24427971634E+02  0.14100408903E+03  0.00000000000E+00 0. -1.
        -12    1    6    6    0    0  0.30622665449E+01  0.46927037869E+02  0.12300563470E+01  0.47042931437E+02  0.00000000000E+00 0.  1.
</event>
<event>
12    1  0.8053217E-002  0.2035429E+03  0.7818608E-02  0.1146882E+00
         21   -1    0    0  503  502  0.00000000000E+00  0.00000000000E+00  0.48462413802E+03  0.48462413802E+03  0.00000000000E+00 0. -1.
         21   -1    0    0  501  503 -0.00000000000E+00 -0.00000000000E+00 -0.85293372393E+02  0.85293372393E+02  0.00000000000E+00 0. -1.
          6    2    1    2  501    0  0.67349830175E+02 -0.87118055972E+02  0.19782844328E+03  0.28384118075E+03  0.17118460100E+03 0.  0.
         24    2    3    3    0    0  0.49162915164E+02  0.75726554149E+01  0.14773205845E+03  0.17508074459E+03  0.79713039685E+02 0.  0.
         -6    2    1    2    0  502 -0.67349830175E+02  0.87118055972E+02  0.20150232235E+03  0.28607632966E+03  0.17061924036E+03 0.  0.
        -24    2    5    5    0    0 -0.53832881819E+02  0.19040911903E+02  0.19244676029E+03  0.21592436147E+03  0.79542685628E+02 0.  0.
          5    1    3    3  501    0  0.18186915011E+02 -0.94690711387E+02  0.50096384831E+02  0.10876043616E+03  0.47000000000E+01 0. -1.
        -11    1    4    4    0    0  0.33817811613E+02  0.43375861118E+02  0.85501427341E+02  0.10166417160E+03  0.00000000000E+00 0.  1.
         12    1    4    4    0    0  0.15345103551E+02 -0.35803205703E+02  0.62230631108E+02  0.73416572991E+02  0.00000000000E+00 0. -1.
         -5    1    5    5    0  502 -0.13516948356E+02  0.68077144070E+02  0.90555620557E+01  0.70151968195E+02  0.47000000000E+01 0.  1.
         13    1    6    6    0    0 -0.10940757241E+02  0.37340089238E+02  0.37223503732E+02  0.53847670919E+02  0.00000000000E+00 0. -1.
        -14    1    6    6    0    0 -0.42892124578E+02 -0.18299177335E+02  0.15522325656E+03  0.16207669055E+03  0.00000000000E+00 0.  1.
</event>
<event>
12    1  0.8053217E-002  0.1814017E+03  0.7818608E-02  0.1167110E+00
         21   -1    0    0  503  502  0.00000000000E+00  0.00000000000E+00  0.58622860481E+03  0.58622860481E+03  0.00000000000E+00 0. -1.
         21   -1    0    0  501  503 -0.00000000000E+00 -0.00000000000E+00 -0.55304260286E+02  0.55304260286E+02  0.00000000000E+00 0.  1.
          6    2    1    2  501    0  0.11177911068E+01  0.49781676515E+02  0.26776641652E+03  0.32191016467E+03  0.17160371654E+03 0.  0.
         24    2    3    3    0    0  0.53351401671E+02  0.72275271624E+02  0.19949618701E+03  0.23293136871E+03  0.79926259446E+02 0.  0.
         -6    2    1    2    0  502 -0.11177911068E+01 -0.49781676515E+02  0.26315792801E+03  0.31962270043E+03  0.17443368591E+03 0.  0.
        -24    2    5    5    0    0 -0.54665776864E+02 -0.58168702083E+02  0.11518053189E+03  0.16196126336E+03  0.81196987877E+02 0.  0.
          5    1    3    3  501    0 -0.52233610564E+02 -0.22493595109E+02  0.68270229508E+02  0.88978795960E+02  0.47000000000E+01 0. -1.
        -11    1    4    4    0    0  0.45523754852E+02  0.17699501109E+02  0.36822669647E+02  0.61168567052E+02  0.00000000000E+00 0.  1.
         12    1    4    4    0    0  0.78276468190E+01  0.54575770515E+02  0.16267351736E+03  0.17176280166E+03  0.00000000000E+00 0. -1.
         -5    1    5    5    0  502  0.53547985757E+02  0.83870255676E+01  0.14797739612E+03  0.15766143707E+03  0.47000000000E+01 0.  1.
         13    1    6    6    0    0 -0.31570046280E+02 -0.11535226695E+02 -0.20761995509E+01  0.33675508632E+02  0.00000000000E+00 0. -1.
        -14    1    6    6    0    0 -0.23095730584E+02 -0.46633475388E+02  0.11725673144E+03  0.12828575473E+03  0.00000000000E+00 0.  1.
</event>
<event>
12    1  0.8053217E-002  0.1870251E+03  0.7818608E-02  0.1161529E+00
         21   -1    0    0  501  502  0.00000000000E+00  0.00000000000E+00  0.61512564090E+02  0.61512564090E+02  0.00000000000E+00 0.  1.
         21   -1    0    0  502  503 -0.00000000000E+00 -0.00000000000E+00 -0.11503195135E+04  0.11503195135E+04  0.00000000000E+00 0.  1.
         -6    2    1    2    0  503  0.59596058558E+02  0.39136534359E+02 -0.97589694182E+03  0.99336681690E+03  0.17122918372E+03 0.  0.
        -24    2    3    3    0    0  0.59185891037E+02  0.57389602819E+02 -0.96502822181E+03  0.97160534130E+03  0.77077455571E+02 0.  0.
          6    2    1    2  501    0 -0.59596058558E+02 -0.39136534359E+02 -0.11291000759E+03  0.21846526068E+03  0.17290182704E+03 0.  0.
         24    2    5    5    0    0 -0.11022006509E+03 -0.23988483134E+02 -0.56123439087E+02  0.14075388535E+03  0.62752735034E+02 0.  0.
          5    1    5    5  501    0  0.50624006536E+02 -0.15148051225E+02 -0.56786568502E+02  0.77711375331E+02  0.47000000000E+01 0. -1.
        -13    1    6    6    0    0 -0.20995686927E+02 -0.26923578418E+02  0.20435367363E+01  0.34203420688E+02  0.00000000000E+00 0.  1.
         14    1    6    6    0    0 -0.89224378167E+02  0.29350952843E+01 -0.58166975823E+02  0.10655046466E+03  0.00000000000E+00 0. -1.
         -5    1    3    3    0  503  0.41016752094E+00 -0.18253068460E+02 -0.10868720013E+02  0.21761475601E+02  0.47000000000E+01 0.  1.
         11    1    4    4    0    0  0.91424130792E+01 -0.73201662605E+01 -0.21045781511E+02  0.24085129653E+02  0.00000000000E+00 0. -1.
        -12    1    4    4    0    0  0.50043477958E+02  0.64709769080E+02 -0.94398244029E+03  0.94752021165E+03  0.00000000000E+00 0.  1.
</event>
<event>
12    1  0.8053217E-002  0.1822917E+03  0.7818608E-02  0.1166444E+00
         21   -1    0    0  501  502  0.00000000000E+00  0.00000000000E+00  0.27004416025E+03  0.27004416025E+03  0.00000000000E+00 0. -1.
         21   -1    0    0  502  503 -0.00000000000E+00 -0.00000000000E+00 -0.14970262415E+03  0.14970262415E+03  0.00000000000E+00 0. -1.
         -6    2    1    2    0  503  0.56740462114E+01 -0.45017891099E+02 -0.31722021110E+02  0.18503123232E+03  0.17655442501E+03 0.  0.
        -24    2    3    3    0    0  0.42796477374E+02 -0.82885703395E+02 -0.43605733759E+02  0.13048438337E+03  0.80144469458E+02 0.  0.
          6    2    1    2  501    0 -0.56740462114E+01  0.45017891099E+02  0.15206355721E+03  0.23471555208E+03  0.17294293753E+03 0.  0.
         24    2    5    5    0    0 -0.29707000773E+02 -0.70543508388E+01  0.24389131113E+02  0.94672878717E+02  0.86231400820E+02 0.  0.
          5    1    5    5  501    0  0.24032954562E+02  0.52072241938E+02  0.12767442609E+03  0.14004267337E+03  0.47000000000E+01 0. -1.
        -13    1    6    6    0    0  0.41923974431E+01  0.35006843079E+02 -0.34414918576E+00  0.35258668400E+02  0.00000000000E+00 0.  1.
         14    1    6    6    0    0 -0.33899398216E+02 -0.42061193918E+02  0.24733280298E+02  0.59414210317E+02  0.00000000000E+00 0. -1.
         -5    1    3    3    0  503 -0.37122431163E+02  0.37867812295E+02  0.11883712649E+02  0.54546848945E+02  0.47000000000E+01 0.  1.
         13    1    4    4    0    0  0.60788990134E+02 -0.32125811745E+02 -0.19401304990E+02  0.71440742837E+02  0.00000000000E+00 0. -1.
        -14    1    4    4    0    0 -0.17992512760E+02 -0.50759891649E+02 -0.24204428768E+02  0.59043640536E+02  0.00000000000E+00 0.  1.
</event>
<event>
12    1  0.8053217E-002  0.1857322E+03  0.7818608E-02  0.1162393E+00
         21   -1    0    0  503  502  0.00000000000E+00  0.00000000000E+00  0.15942434036E+03  0.15942434036E+03  0.00000000000E+00 0. -1.
         21   -1    0    0  501  503 -0.00000000000E+00 -0.00000000000E+00 -0.22010115024E+03  0.22010115024E+03  0.00000000000E+00 0. -1.
          6    2    1    2  501    0 -0.49696125800E+02  0.48163789329E+02 -0.52578958177E+01  0.18580659990E+03  0.17235716282E+03 0.  0.
         24    2    3    3    0    0 -0.80149251807E+02  0.22046375101E+02 -0.49342533015E+02  0.12601481579E+03  0.80839984010E+02 0.  0.
         -6    2    1    2    0  502  0.49696125800E+02 -0.48163789329E+02 -0.55418914067E+02  0.19371889070E+03  0.17223906948E+03 0.  0.
        -24    2    5    5    0    0  0.51777223896E+02 -0.80962584178E+02 -0.46273374952E+01  0.13303968369E+03  0.91882121403E+02 0.  0.
          5    1    3    3  501    0  0.30453126007E+02  0.26117414229E+02  0.44084637197E+02  0.59791784104E+02  0.47000000000E+01 0. -1.
        -11    1    4    4    0    0 -0.91205440673E+01 -0.10365434053E+02  0.18155036214E+02  0.22808592397E+02  0.00000000000E+00 0.  1.
         12    1    4    4    0    0 -0.71028707740E+02  0.32411809154E+02 -0.67497569229E+02  0.10320622340E+03  0.00000000000E+00 0. -1.
         -5    1    5    5    0  502 -0.20810980965E+01  0.32798794849E+02 -0.50791576571E+02  0.60679207011E+02  0.47000000000E+01 0.  1.
         13    1    6    6    0    0  0.58499946146E+02 -0.14680861620E+02  0.17563807808E+02  0.62819254546E+02  0.00000000000E+00 0. -1.
        -14    1    6    6    0    0 -0.67227222499E+01 -0.66281722558E+02 -0.22191145303E+02  0.70220429147E+02  0.00000000000E+00 0.  1.
</event>
<event>
12    1  0.8053217E-002  0.2957733E+03  0.7818608E-02  0.1087923E+00
         21   -1    0    0  503  502  0.00000000000E+00  0.00000000000E+00  0.52832426305E+03  0.52832426305E+03  0.00000000000E+00 0.  1.
         21   -1    0    0  501  503 -0.00000000000E+00 -0.00000000000E+00 -0.26314827624E+03  0.26314827624E+03  0.00000000000E+00 0.  1.
          6    2    1    2  501    0 -0.10695769959E+03  0.20875366790E+03 -0.11070617622E+03  0.31581276424E+03  0.18017713851E+03 0.  0.
         24    2    3    3    0    0 -0.14243675719E+03  0.16358657447E+03 -0.11457882513E+03  0.25805536414E+03  0.80096608245E+02 0.  0.
         -6    2    1    2    0  502  0.10695769959E+03 -0.20875366790E+03  0.37588216302E+03  0.47565977505E+03  0.17305137318E+03 0.  0.
        -24    2    5    5    0    0 -0.10882005702E+02 -0.88308842613E+02  0.12652802819E+03  0.17467351848E+03  0.81145710983E+02 0.  0.
          5    1    3    3  501    0  0.35479057591E+02  0.45167093428E+02  0.38726489072E+01  0.57757400096E+02  0.47000000000E+01 0. -1.
        -13    1    4    4    0    0 -0.33218307723E+02  0.95348199964E+02 -0.36015799975E+02  0.10720015416E+03  0.00000000000E+00 0.  1.
         14    1    4    4    0    0 -0.10921844946E+03  0.68238374504E+02 -0.78563025151E+02  0.15085520998E+03  0.00000000000E+00 0. -1.
         -5    1    5    5    0  502  0.11783970530E+03 -0.12044482528E+03  0.24935413483E+03  0.30098625656E+03  0.47000000000E+01 0.  1.
         11    1    6    6    0    0  0.93329889204E+01  0.63514491279E+01 -0.41705007168E+01  0.12034893620E+02  0.00000000000E+00 0. -1.
        -12    1    6    6    0    0 -0.20214994622E+02 -0.94660291741E+02  0.13069852890E+03  0.16263862486E+03  0.00000000000E+00 0.  1.
</event>
<event>
12    1  0.8053217E-002  0.1885712E+03  0.7818608E-02  0.1159946E+00
         21   -1    0    0  503  502  0.00000000000E+00  0.00000000000E+00  0.17103221203E+03  0.17103221203E+03  0.00000000000E+00 0.  1.
         21   -1    0    0  501  503 -0.00000000000E+00 -0.00000000000E+00 -0.21083938345E+03  0.21083938345E+03  0.00000000000E+00 0.  1.
          6    2    1    2  501    0 -0.62144939243E+02  0.43297924625E+02  0.58323577345E+01  0.18866138905E+03  0.17269163144E+03 0.  0.
         24    2    3    3    0    0 -0.33755454646E+02 -0.65556423783E+01 -0.55347857122E+02  0.10465871249E+03  0.81900266463E+02 0.  0.
         -6    2    1    2    0  502  0.62144939243E+02 -0.43297924625E+02 -0.45639529154E+02  0.19321020643E+03  0.17178624361E+03 0.  0.
        -24    2    5    5    0    0 -0.13204434190E+02  0.20592632124E+02  0.41373104749E+01  0.82488234433E+02  0.78668786071E+02 0.  0.
          5    1    3    3  501    0 -0.28389484597E+02  0.49853567003E+02  0.61180214856E+02  0.84002676556E+02  0.47000000000E+01 0. -1.
        -11    1    4    4    0    0 -0.32077163770E+02  0.27170578676E+01  0.13689032798E+02  0.34981658879E+02  0.00000000000E+00 0.  1.
         12    1    4    4    0    0 -0.16782908767E+01 -0.92727002458E+01 -0.69036889920E+02  0.69677053611E+02  0.00000000000E+00 0. -1.
         -5    1    5    5    0  502  0.75349373433E+02 -0.63890556749E+02 -0.49776839629E+02  0.11072197199E+03  0.47000000000E+01 0.  1.
         13    1    6    6    0    0 -0.41208931058E+02  0.29740246169E+02  0.11535980367E+02  0.52112734376E+02  0.00000000000E+00 0. -1.
        -14    1    6    6    0    0  0.28004496868E+02 -0.91476140448E+01 -0.73986698923E+01  0.30375500057E+02  0.00000000000E+00 0.  1.
</event>
<event>
12    1  0.8053217E-002  0.1844132E+03  0.7818608E-02  0.1163819E+00
         21   -1    0    0  503  502  0.00000000000E+00  0.00000000000E+00  0.18117866616E+03  0.18117866616E+03  0.00000000000E+00 0.  1.
         21   -1    0    0  501  503 -0.00000000000E+00 -0.00000000000E+00 -0.26788892298E+03  0.26788892298E+03  0.00000000000E+00 0.  1.
          6    2    1    2  501    0  0.54086971013E+02  0.38079523600E+02 -0.16684653425E+03  0.24799531318E+03  0.17113871221E+03 0.  0.
         24    2    3    3    0    0  0.10085338852E+03  0.17969673682E+02 -0.15876581805E+03  0.19623730081E+03  0.52992245638E+02 0.  0.
         -6    2    1    2    0  502 -0.54086971013E+02 -0.38079523600E+02  0.80136277432E+02  0.20107227596E+03  0.17214176323E+03 0.  0.
        -24    2    5    5    0    0 -0.76192567404E+02 -0.90270734885E+01 -0.24409535529E+01  0.11066325358E+03  0.79709485358E+02 0.  0.
          5    1    3    3  501    0 -0.46766417508E+02  0.20109849918E+02 -0.80807161977E+01  0.51758012370E+02  0.47000000000E+01 0. -1.
        -11    1    4    4    0    0 -0.56675894891E+01  0.22877686586E+01 -0.18038590633E+02  0.19045897408E+02  0.00000000000E+00 0.  1.
         12    1    4    4    0    0  0.10652097801E+03  0.15681905024E+02 -0.14072722742E+03  0.17719140340E+03  0.00000000000E+00 0. -1.
         -5    1    5    5    0  502  0.22105596390E+02 -0.29052450112E+02  0.82577230985E+02  0.90409022373E+02  0.47000000000E+01 0.  1.
         13    1    6    6    0    0 -0.51188502079E+02 -0.44006787741E+02 -0.41485413519E+01  0.67631874938E+02  0.00000000000E+00 0. -1.
        -14    1    6    6    0    0 -0.25004065325E+02  0.34979714252E+02  0.17075877990E+01  0.43031378644E+02  0.00000000000E+00 0.  1.
</event>
<event>
12    1  0.8053217E-002  0.2130654E+03  0.7818608E-02  0.1140780E+00
         21   -1    0    0  503  502  0.00000000000E+00  0.00000000000E+00  0.14093313447E+03  0.14093313447E+03  0.00000000000E+00 0. -1.
         21   -1    0    0  501  503 -0.00000000000E+00 -0.00000000000E+00 -0.34863478429E+03  0.34863478429E+03  0.00000000000E+00 0.  1.
          6    2    1    2  501    0  0.59244195707E+02 -0.93281471778E+02 -0.18723042837E+03  0.28364080889E+03  0.18216906284E+03 0.  0.
         24    2    3    3    0    0  0.90160509202E+02 -0.96487365632E+02 -0.82808943264E+02  0.17459021169E+03  0.78649169026E+02 0.  0.
         -6    2    1    2    0  502 -0.59244195707E+02  0.93281471778E+02 -0.20471221443E+02  0.20592710987E+03  0.17255606617E+03 0.  0.
        -24    2    5    5    0    0 -0.23537397799E+02  0.99557967001E+02  0.36583709920E+02  0.13816484160E+03  0.85354307057E+02 0.  0.
          5    1    3    3  501    0 -0.30916313495E+02  0.32058938539E+01 -0.10442148511E+03  0.10905059719E+03  0.47000000000E+01 0. -1.
        -13    1    4    4    0    0  0.26298692863E+02  0.10477477437E+02 -0.22606822939E+02  0.36227989499E+02  0.00000000000E+00 0.  1.
         14    1    4    4    0    0  0.63861816340E+02 -0.10696484307E+03 -0.60202120326E+02  0.13836222219E+03  0.00000000000E+00 0. -1.
         -5    1    5    5    0  502 -0.35706797909E+02 -0.62764952229E+01 -0.57054931363E+02  0.67762268277E+02  0.47000000000E+01 0.  1.
         11    1    6    6    0    0 -0.55582500651E+02  0.67219601789E+02  0.18409367765E+02  0.89144792696E+02  0.00000000000E+00 0. -1.
        -12    1    6    6    0    0  0.32045102852E+02  0.32338365212E+02  0.18174342155E+02  0.49020048900E+02  0.00000000000E+00 0.  1.
</event>
<event>
12    1  0.8053217E-002  0.1934032E+03  0.7818608E-02  0.1155835E+00
         21   -1    0    0  503  502  0.00000000000E+00  0.00000000000E+00  0.35847491810E+02  0.35847491810E+02  0.00000000000E+00 0. -1.
         21   -1    0    0  501  503 -0.00000000000E+00 -0.00000000000E+00 -0.10372042755E+04  0.10372042755E+04  0.00000000000E+00 0.  1.
          6    2    1    2  501    0 -0.90475675841E+02 -0.88149947204E+00 -0.53021995575E+03  0.56376331725E+03  0.16884682832E+03 0.  0.
         24    2    3    3    0    0 -0.22152312929E+02  0.41093016634E+01 -0.45242740407E+03  0.46000031270E+03  0.80013251408E+02 0.  0.
         -6    2    1    2    0  502  0.90475675841E+02  0.88149947204E+00 -0.47113682791E+03  0.50928845004E+03  0.17093329040E+03 0.  0.
        -24    2    5    5    0    0  0.20417933836E+02  0.24698949849E+02 -0.39045524140E+03  0.39971214530E+03  0.79294220593E+02 0.  0.
          5    1    3    3  501    0 -0.68323362912E+02 -0.49908011354E+01 -0.77792551682E+02  0.10376300455E+03  0.47000000000E+01 0. -1.
        -11    1    4    4    0    0  0.29450075218E+02 -0.69073591065E+01 -0.15362092444E+03  0.15657077303E+03  0.00000000000E+00 0.  1.
         12    1    4    4    0    0 -0.51602388146E+02  0.11016660770E+02 -0.29880647963E+03  0.30342953967E+03  0.00000000000E+00 0. -1.
         -5    1    5    5    0  502  0.70057742005E+02 -0.23817450377E+02 -0.80681586510E+02  0.10957630473E+03  0.47000000000E+01 0.  1.
         11    1    6    6    0    0  0.21490810203E+02  0.24903478469E+02 -0.53828550797E+02  0.63083682866E+02  0.00000000000E+00 0. -1.
        -12    1    6    6    0    0 -0.10728763668E+01 -0.20452862078E+00 -0.33662669060E+03  0.33662846244E+03  0.00000000000E+00 0.  1.
</event>
<event>
12    1  0.8053217E-002  0.1747021E+03  0.7818608E-02  0.1173193E+00
         21   -1    0    0  501  502  0.00000000000E+00  0.00000000000E+00  0.52645843865E+03  0.52645843865E+03  0.00000000000E+00 0.  1.
         21   -1    0    0  502  503 -0.00000000000E+00 -0.00000000000E+00 -0.64678548949E+02  0.64678548949E+02  0.00000000000E+00 0.  1.
         -6    2    1    2    0  503  0.21713277401E+02  0.16536283375E+02  0.13385013939E+03  0.21957443278E+03  0.17190740714E+03 0.  0.
        -24    2    3    3    0    0  0.14509629548E+02 -0.53473404232E+02  0.11084707140E+03  0.14538224964E+03  0.76019674850E+02 0.  0.
          6    2    1    2  501    0 -0.21713277401E+02 -0.16536283375E+02  0.32792975030E+03  0.37156255482E+03  0.17255693531E+03 0.  0.
         24    2    5    5    0    0 -0.45479888849E+02  0.43745014162E+02  0.14591739416E+03  0.17830295107E+03  0.80734192803E+02 0.  0.
          5    1    5    5  501    0  0.23766611448E+02 -0.60281297537E+02  0.18201235614E+03  0.19325960375E+03  0.47000000000E+01 0. -1.
        -11    1    6    6    0    0 -0.22061275600E+02  0.28949996647E+02  0.14613692169E+03  0.15060146768E+03  0.00000000000E+00 0.  1.
         12    1    6    6    0    0 -0.23418613249E+02  0.14795017515E+02 -0.21952752403E+00  0.27701483392E+02  0.00000000000E+00 0. -1.
         -5    1    3    3    0  503  0.72036478526E+01  0.70009687607E+02  0.23003067997E+02  0.74192183136E+02  0.47000000000E+01 0.  1.
         13    1    4    4    0    0 -0.25894193975E+02 -0.12511349442E+02  0.67419241104E+02  0.73296638515E+02  0.00000000000E+00 0. -1.
        -14    1    4    4    0    0  0.40403823523E+02 -0.40962054790E+02  0.43427830292E+02  0.72085611129E+02  0.00000000000E+00 0.  1.
</event>
<event>
12    1  0.8053217E-002  0.1739463E+03  0.7818608E-02  0.1173822E+00
         21   -1    0    0  501  502  0.00000000000E+00  0.00000000000E+00  0.59054172726E+03  0.59054172726E+03  0.00000000000E+00 0.  1.
         21   -1    0    0  502  503 -0.00000000000E+00 -0.00000000000E+00 -0.75653331962E+02  0.75653331962E+02  0.00000000000E+00 0.  1.
         -6    2    1    2    0  503  0.19040556036E+02  0.21192913089E+02  0.68138248042E+02  0.18681576421E+03  0.17159728019E+03 0.  0.
        -24    2    3    3    0    0  0.31745517873E+02  0.70690383264E+02  0.69278316934E+02  0.13548540900E+03  0.86901683888E+02 0.  0.
          6    2    1    2  501    0 -0.19040556036E+02 -0.21192913089E+02  0.44675014726E+03  0.47937929502E+03  0.17148507829E+03 0.  0.
         24    2    5    5    0    0 -0.48163616115E+02 -0.34447859849E+01  0.12723340575E+03  0.15801316932E+03  0.80300819868E+02 0.  0.
          5    1    5    5  501    0  0.29123060079E+02 -0.17748127104E+02  0.31951674150E+03  0.32136612570E+03  0.47000000000E+01 0. -1.
        -11    1    6    6    0    0 -0.58054398817E+02  0.38683346439E+01  0.13243916465E+03  0.14465617709E+03  0.00000000000E+00 0.  1.
         12    1    6    6    0    0  0.98907827025E+01 -0.73131206288E+01 -0.52057589013E+01  0.13356992234E+02  0.00000000000E+00 0. -1.
         -5    1    3    3    0  503 -0.12704961837E+02 -0.49497470174E+02 -0.11400688918E+01  0.51330355210E+02  0.47000000000E+01 0.  1.
         11    1    4    4    0    0  0.61241931275E+01  0.25101344428E+02  0.78268409862E+02  0.82422856150E+02  0.00000000000E+00 0. -1.
        -12    1    4    4    0    0  0.25621324745E+02  0.45589038836E+02 -0.89900929283E+01  0.53062552846E+02  0.00000000000E+00 0.  1.
</event>
<event>
12    1  0.8053217E-002  0.1781455E+03  0.7818608E-02  0.1170180E+00
         21   -1    0    0  501  502  0.00000000000E+00  0.00000000000E+00  0.94639942978E+01  0.94639942978E+01  0.00000000000E+00 0.  1.
         21   -1    0    0  502  503 -0.00000000000E+00 -0.00000000000E+00 -0.33443316000E+04  0.33443316000E+04  0.00000000000E+00 0.  1.
         -6    2    1    2    0  503 -0.20038670414E+02  0.35072901429E+02 -0.18480006091E+04  0.18565672769E+04  0.17350546320E+03 0.  0.
        -24    2    3    3    0    0  0.28732559080E+02 -0.21183746841E+02 -0.59773969300E+03  0.60408258973E+03  0.79678877697E+02 0.  0.
          6    2    1    2  501    0  0.20038670414E+02 -0.35072901429E+02 -0.14868669966E+04  0.14972283174E+04  0.17113594612E+03 0.  0.
         24    2    5    5    0    0  0.21624655379E+02 -0.12744530349E+02 -0.34131449461E+03  0.35144749352E+03  0.79935647223E+02 0.  0.
          5    1    5    5  501    0 -0.15859849648E+01 -0.22328371080E+02 -0.11455525020E+04  0.11457808239E+04  0.47000000000E+01 0. -1.
        -13    1    6    6    0    0  0.33177869023E+02 -0.36174777640E+02 -0.28711620679E+03  0.29128182527E+03  0.00000000000E+00 0.  1.
         14    1    6    6    0    0 -0.11553213644E+02  0.23430247291E+02 -0.54198287819E+02  0.60165668252E+02  0.00000000000E+00 0. -1.
         -5    1    3    3    0  503 -0.48771229494E+02  0.56256648270E+02 -0.12502609161E+04  0.12524846872E+04  0.47000000000E+01 0.  1.
         13    1    4    4    0    0 -0.15911454955E+02 -0.49813289352E+01 -0.29691924405E+02  0.34052876701E+02  0.00000000000E+00 0. -1.
        -14    1    4    4    0    0  0.44644014035E+02 -0.16202417906E+02 -0.56804776859E+03  0.57002971303E+03  0.00000000000E+00 0.  1.
</event>
<event>
12    1  0.8053217E-002  0.3100986E+03  0.7818608E-02  0.1080339E+00
         21   -1    0    0  501  502  0.00000000000E+00  0.00000000000E+00  0.60554413322E+03  0.60554413322E+03  0.00000000000E+00 0. -1.
         21   -1    0    0  502  503 -0.00000000000E+00 -0.00000000000E+00 -0.42018948967E+03  0.42018948967E+03  0.00000000000E+00 0.  1.
         -6    2    1    2    0  503 -0.14473552993E+03 -0.21647776445E+03 -0.31197996918E+03  0.43964244039E+03  0.16775869007E+03 0.  0.
        -24    2    3    3    0    0 -0.26141766808E+02 -0.28030739841E+02 -0.10203758615E+03  0.13357928362E+03  0.77218143454E+02 0.  0.
          6    2    1    2  501    0  0.14473552993E+03  0.21647776445E+03  0.49733461272E+03  0.58609118250E+03  0.16837506069E+03 0.  0.
         24    2    5    5    0    0  0.75543746763E+02  0.38969189797E+02  0.14986571084E+03  0.18979139104E+03  0.79596390613E+02 0.  0.
          5    1    5    5  501    0  0.69191783167E+02  0.17750857466E+03  0.34746890189E+03  0.39629979146E+03  0.47000000000E+01 0. -1.
        -11    1    6    6    0    0 -0.10236404550E+02  0.21686226535E+02  0.12820357664E+02  0.27192608739E+02  0.00000000000E+00 0.  1.
         12    1    6    6    0    0  0.85780151313E+02  0.17282963262E+02  0.13704535317E+03  0.16259878230E+03  0.00000000000E+00 0. -1.
         -5    1    3    3    0  503 -0.11859376312E+03 -0.18844702461E+03 -0.20994238303E+03  0.30606315676E+03  0.47000000000E+01 0.  1.
         13    1    4    4    0    0 -0.46943591148E+02 -0.22571880708E+01 -0.34317273554E+02  0.58193392340E+02  0.00000000000E+00 0. -1.
        -14    1    4    4    0    0  0.20801824340E+02 -0.25773551770E+02 -0.67720312595E+02  0.75385891284E+02  0.00000000000E+00 0.  1.
</event>
<event>
12    1  0.8053217E-002  0.1801170E+03  0.7818608E-02  0.1167701E+00
         21   -1    0    0  501  502  0.00000000000E+00  0.00000000000E+00  0.87386552056E+02  0.87386552056E+02  0.00000000000E+00 0. -1.
         21   -1    0    0  502  503 -0.00000000000E+00 -0.00000000000E+00 -0.37370498375E+03  0.37370498375E+03  0.00000000000E+00 0. -1.
         -6    2    1    2    0  503 -0.24114223539E+02 -0.48598001801E+02 -0.16218295228E+03  0.24234107113E+03  0.17170504707E+03 0.  0.
        -24    2    3    3    0    0  0.48459689170E+02 -0.14778275047E+02 -0.84304764742E+02  0.13054729305E+03  0.85840337114E+02 0.  0.
          6    2    1    2  501    0  0.24114223539E+02  0.48598001801E+02 -0.12413547941E+03  0.21875046467E+03  0.17175240025E+03 0.  0.
         24    2    5    5    0    0  0.75153193454E+02  0.38387269659E+02 -0.47407617728E+02  0.12591464045E+03  0.80532164398E+02 0.  0.
          5    1    5    5  501    0 -0.51038969915E+02  0.10210732142E+02 -0.76727861682E+02  0.92835824223E+02  0.47000000000E+01 0. -1.
        -11    1    6    6    0    0  0.54934241896E+02  0.35117401146E+01  0.98184194680E+01  0.55915155478E+02  0.00000000000E+00 0.  1.
         12    1    6    6    0    0  0.20218951559E+02  0.34875529544E+02 -0.57226037196E+02  0.69999484971E+02  0.00000000000E+00 0. -1.
         -5    1    3    3    0  503 -0.72573912709E+02 -0.33819726754E+02 -0.77878187538E+02  0.11179377808E+03  0.47000000000E+01 0.  1.
         11    1    4    4    0    0  0.10496199408E+02 -0.45883388240E+02 -0.58542006293E+02  0.75117388261E+02  0.00000000000E+00 0. -1.
        -12    1    4    4    0    0  0.37963489762E+02  0.31105113193E+02 -0.25762758449E+02  0.55429904786E+02  0.00000000000E+00 0.  1.
</event>
<event>
12    1  0.8053217E-002  0.2193901E+03  0.7818608E-02  0.1134393E+00
         21   -1    0    0  503  502  0.00000000000E+00  0.00000000000E+00  0.36708310468E+03  0.36708310468E+03  0.00000000000E+00 0.  1.
         21   -1    0    0  501  503 -0.00000000000E+00 -0.00000000000E+00 -0.14941897254E+03  0.14941897254E+03  0.00000000000E+00 0. -1.
          6    2    1    2  501    0  0.13209191568E+03  0.31341836553E+02  0.19970006316E+03  0.29666835809E+03  0.17234098340E+03 0.  0.
         24    2    3    3    0    0  0.15254038835E+03 -0.31536595068E+01  0.18919179209E+03  0.25494794290E+03  0.76983139370E+02 0.  0.
         -6    2    1    2    0  502 -0.13209191568E+03 -0.31341836553E+02  0.17964068982E+02  0.21983371914E+03  0.17196968159E+03 0.  0.
        -24    2    5    5    0    0 -0.67687247184E+02 -0.17565979194E+02 -0.55666713698E+02  0.12093317450E+03  0.81461172501E+02 0.  0.
          5    1    3    3  501    0 -0.20448472668E+02  0.34495496060E+02  0.10508271068E+02  0.41720415191E+02  0.47000000000E+01 0. -1.
        -13    1    4    4    0    0  0.75212901942E+02  0.10090856647E+02  0.38586422762E+02  0.85133530574E+02  0.00000000000E+00 0.  1.
         14    1    4    4    0    0  0.77327486408E+02 -0.13244516154E+02  0.15060536933E+03  0.16981441232E+03  0.00000000000E+00 0. -1.
         -5    1    5    5    0  502 -0.64404668498E+02 -0.13775857359E+02  0.73630782680E+02  0.98900544631E+02  0.47000000000E+01 0.  1.
         13    1    6    6    0    0 -0.11863973484E+02 -0.28227411365E+02 -0.56310927341E+02  0.64097278859E+02  0.00000000000E+00 0. -1.
        -14    1    6    6    0    0 -0.55823273700E+02  0.10661432171E+02  0.64421364261E+00  0.56835895644E+02  0.00000000000E+00 0.  1.
</event>
<event>
12    1  0.8053217E-002  0.2139800E+03  0.7818608E-02  0.1138550E+00
         21   -1    0    0  503  502  0.00000000000E+00  0.00000000000E+00  0.11622464383E+03  0.11622464383E+03  0.00000000000E+00 0.  1.
         21   -1    0    0  501  503 -0.00000000000E+00 -0.00000000000E+00 -0.90383605796E+03  0.90383605796E+03  0.00000000000E+00 0. -1.
          6    2    1    2  501    0 -0.11103199502E+03  0.60545959481E+02 -0.77743179180E+03  0.80634212245E+03  0.17260796738E+03 0.  0.
         24    2    3    3    0    0 -0.76719589703E+02  0.10540797753E+03 -0.62050429869E+03  0.63949407806E+03  0.83248747785E+02 0.  0.
         -6    2    1    2    0  502  0.11103199502E+03 -0.60545959481E+02 -0.10179622329E+02  0.21371857935E+03  0.17198281693E+03 0.  0.
        -24    2    5    5    0    0  0.27394468038E+02  0.11113160674E+02 -0.47668992555E+02  0.97280577384E+02  0.79480932718E+02 0.  0.
          5    1    3    3  501    0 -0.34312405315E+02 -0.44862018053E+02 -0.15692749312E+03  0.16684804439E+03  0.47000000000E+01 0. -1.
        -13    1    4    4    0    0 -0.43706367377E+02  0.42890339099E+02 -0.12746066540E+03  0.14140738652E+03  0.00000000000E+00 0.  1.
         14    1    4    4    0    0 -0.33013222327E+02  0.62517638435E+02 -0.49304363329E+03  0.49808669154E+03  0.00000000000E+00 0. -1.
         -5    1    5    5    0  502  0.83637526980E+02 -0.71659120155E+02  0.37489370227E+02  0.11643800196E+03  0.47000000000E+01 0.  1.
         13    1    6    6    0    0  0.49915820144E+02  0.74907327191E+01 -0.53687790728E+02  0.73689070089E+02  0.00000000000E+00 0. -1.
        -14    1    6    6    0    0 -0.22521352106E+02  0.36224279549E+01  0.60187981733E+01  0.23591507295E+02  0.00000000000E+00 0.  1.
</event>
<event>
12    1  0.8053217E-002  0.2122141E+03  0.7818608E-02  0.1140602E+00
         21   -1    0    0  503  502  0.00000000000E+00  0.00000000000E+00  0.10711907054E+04  0.10711907054E+04  0.00000000000E+00 0.  1.
         21   -1    0    0  501  503 -0.00000000000E+00 -0.00000000000E+00 -0.41694978900E+02  0.41694978900E+02  0.00000000000E+00 0.  1.
          6    2    1    2  501    0  0.10922225187E+03  0.60112234469E+02  0.57608215183E+03  0.61392628354E+03  0.17173192751E+03 0.  0.
         24    2    3    3    0    0  0.12825840991E+03  0.88724793405E+02  0.47036839346E+03  0.50266738479E+03  0.84295702673E+02 0.  0.
         -6    2    1    2    0  502 -0.10922225187E+03 -0.60112234469E+02  0.45341357466E+03  0.49895940075E+03  0.16683414781E+03 0.  0.
        -24    2    5    5    0    0 -0.77198421705E+02  0.27202259788E+02  0.23029339749E+03  0.25718667676E+03  0.80064839499E+02 0.  0.
          5    1    3    3  501    0 -0.19036158043E+02 -0.28612558936E+02  0.10571375838E+03  0.11125889875E+03  0.47000000000E+01 0. -1.
        -11    1    4    4    0    0  0.13052321333E+03  0.92199844018E+02  0.47191709632E+03  0.49823976784E+03  0.00000000000E+00 0.  1.
         12    1    4    4    0    0 -0.22648034168E+01 -0.34750506133E+01 -0.15487028662E+01  0.44276169493E+01  0.00000000000E+00 0. -1.
         -5    1    5    5    0  502 -0.32023830163E+02 -0.87314494256E+02  0.22312017717E+03  0.24177272399E+03  0.47000000000E+01 0.  1.
         11    1    6    6    0    0 -0.88395729107E+01  0.33221963218E+02  0.13775732864E+03  0.14198210621E+03  0.00000000000E+00 0. -1.
        -12    1    6    6    0    0 -0.68358848794E+02 -0.60197034307E+01  0.92536068851E+02  0.11520457055E+03  0.00000000000E+00 0.  1.
</event>
<event>
12    1  0.8053217E-002  0.2163141E+03  0.7818608E-02  0.1136745E+00
         21   -1    0    0  503  502  0.00000000000E+00  0.00000000000E+00  0.68926847518E+03  0.68926847518E+03  0.00000000000E+00 0.  1.
         21   -1    0    0  501  503 -0.00000000000E+00 -0.00000000000E+00 -0.14081659796E+03  0.14081659796E+03  0.00000000000E+00 0. -1.
          6    2    1    2  501    0  0.13536546520E+03  0.31277549179E+02  0.57333056737E+03  0.61278032436E+03  0.16580015737E+03 0.  0.
         24    2    3    3    0    0  0.10343484324E+03  0.64354666911E+02  0.26040375323E+03  0.29645937762E+03  0.72372356129E+02 0.  0.
         -6    2    1    2    0  502 -0.13536546520E+03 -0.31277549179E+02 -0.24878690152E+02  0.21730474879E+03  0.16522805564E+03 0.  0.
        -24    2    5    5    0    0 -0.63225628875E+01 -0.22749846749E+02 -0.38025898067E+01  0.86189973297E+02  0.82805322770E+02 0.  0.
          5    1    3    3  501    0  0.31930621962E+02 -0.33077117732E+02  0.31292681414E+03  0.31632094674E+03  0.47000000000E+01 0. -1.
        -11    1    4    4    0    0  0.59277007813E+02 -0.26334897416E+01  0.13660466633E+03  0.14893466281E+03  0.00000000000E+00 0.  1.
         12    1    4    4    0    0  0.44157835428E+02  0.66988156653E+02  0.12379908690E+03  0.14752471480E+03  0.00000000000E+00 0. -1.
         -5    1    5    5    0  502 -0.12904290232E+03 -0.85277024303E+01 -0.21076100346E+02  0.13111477549E+03  0.47000000000E+01 0.  1.
         13    1    6    6    0    0 -0.33581921548E+02 -0.30837966294E+02 -0.23797054179E+02  0.51429810496E+02  0.00000000000E+00 0. -1.
        -14    1    6    6    0    0  0.27259358661E+02  0.80881195454E+01  0.19994464373E+02  0.34760162801E+02  0.00000000000E+00 0.  1.
</event>
<event>
12    1  0.8053217E-002  0.2281152E+03  0.7818608E-02  0.1128062E+00
         21   -1    0    0  501  502  0.00000000000E+00  0.00000000000E+00  0.28925066567E+03  0.28925066567E+03  0.00000000000E+00 0.  1.
         21   -1    0    0  502  503 -0.00000000000E+00 -0.00000000000E+00 -0.27068355948E+03  0.27068355948E+03  0.00000000000E+00 0.  1.
         -6    2    1    2    0  503 -0.14805410030E+03  0.29225745267E+02 -0.15320775881E+03  0.27437657700E+03  0.17039873193E+03 0.  0.
        -24    2    3    3    0    0 -0.96877257123E+02  0.11500729613E+02 -0.16493090622E+02  0.12724997860E+03  0.80019155751E+02 0.  0.
          6    2    1    2  501    0  0.14805410030E+03 -0.29225745267E+02  0.17177486500E+03  0.28555764815E+03  0.17106257735E+03 0.  0.
         24    2    5    5    0    0  0.12732914660E+03 -0.79798354297E+02  0.14859385136E+03  0.22600463074E+03  0.80109122637E+02 0.  0.
          5    1    5    5  501    0  0.20724953703E+02  0.50572609031E+02  0.23181013638E+02  0.59553017417E+02  0.47000000000E+01 0. -1.
        -13    1    6    6    0    0  0.12939525453E+03 -0.67170102862E+02  0.15404457143E+03  0.21209593254E+03  0.00000000000E+00 0.  1.
         14    1    6    6    0    0 -0.20661079301E+01 -0.12628251435E+02 -0.54507200671E+01  0.13908698197E+02  0.00000000000E+00 0. -1.
         -5    1    3    3    0  503 -0.51176843179E+02  0.17725015653E+02 -0.13671466819E+03  0.14712659840E+03  0.47000000000E+01 0.  1.
         11    1    4    4    0    0 -0.46435866054E+02 -0.21768397591E+02 -0.37221339699E+02  0.63368611464E+02  0.00000000000E+00 0. -1.
        -12    1    4    4    0    0 -0.50441391070E+02  0.33269127205E+02  0.20728249077E+02  0.63881367141E+02  0.00000000000E+00 0.  1.
</event>
<event>
12    1  0.8053217E-002  0.1923348E+03  0.7818608E-02  0.1157034E+00
         21   -1    0    0  501  502  0.00000000000E+00  0.00000000000E+00  0.13786116474E+04  0.13786116474E+04  0.00000000000E+00 0.  1.
         21   -1    0    0  502  503 -0.00000000000E+00 -0.00000000000E+00 -0.27544982225E+02  0.27544982225E+02  0.00000000000E+00 0.  1.
         -6    2    1    2    0  503 -0.82487503970E+02  0.23061959601E+02  0.53860930182E+03  0.57192013898E+03  0.17221098415E+03 0.  0.
        -24    2    3    3    0    0 -0.78804808999E+02  0.15124094559E+02  0.17704383044E+03  0.21021825615E+03  0.80051615623E+02 0.  0.
          6    2    1    2  501    0  0.82487503970E+02 -0.23061959601E+02  0.81245736332E+03  0.83423649062E+03  0.16890089631E+03 0.  0.
         24    2    5    5    0    0  0.66913966242E+02 -0.65249480469E+02  0.35684262736E+03  0.37638367626E+03  0.74786612917E+02 0.  0.
          5    1    5    5  501    0  0.15573537728E+02  0.42187520868E+02  0.45561473596E+03  0.45785281436E+03  0.47000000000E+01 0. -1.
        -11    1    6    6    0    0  0.76740474908E+02 -0.36631603919E+02  0.30204917893E+03  0.31379082425E+03  0.00000000000E+00 0.  1.
         12    1    6    6    0    0 -0.98265086663E+01 -0.28617876550E+02  0.54793448432E+02  0.62592852003E+02  0.00000000000E+00 0. -1.
         -5    1    3    3    0  503 -0.36826949710E+01  0.79378650426E+01  0.36156547139E+03  0.36170188283E+03  0.47000000000E+01 0.  1.
         11    1    4    4    0    0 -0.15382346152E+01  0.24804356485E+02  0.11728018456E+02  0.27480332663E+02  0.00000000000E+00 0. -1.
        -12    1    4    4    0    0 -0.77266574384E+02 -0.96802619261E+01  0.16531581198E+03  0.18273792349E+03  0.00000000000E+00 0.  1.
</event>
<event>
12    1  0.8053217E-002  0.1795560E+03  0.7818608E-02  0.1168480E+00
         21   -1    0    0  501  502  0.00000000000E+00  0.00000000000E+00  0.13870641351E+03  0.13870641351E+03  0.00000000000E+00 0. -1.
         21   -1    0    0  502  503 -0.00000000000E+00 -0.00000000000E+00 -0.51408270068E+03  0.51408270068E+03  0.00000000000E+00 0. -1.
         -6    2    1    2    0  503 -0.13029306811E+02 -0.46137672958E+02 -0.43007715732E+03  0.46605440598E+03  0.17303728031E+03 0.  0.
        -24    2    3    3    0    0  0.54758233669E+02 -0.95967153498E+00 -0.20876096674E+03  0.23017488446E+03  0.79999694238E+02 0.  0.
          6    2    1    2  501    0  0.13029306811E+02  0.46137672958E+02  0.54700870157E+02  0.18673470822E+03  0.17198609931E+03 0.  0.
         24    2    5    5    0    0 -0.31306555417E+02  0.75232899690E+02  0.67511231038E+01  0.11508647627E+03  0.80989071794E+02 0.  0.
          5    1    5    5  501    0  0.44335862229E+02 -0.29095226731E+02  0.47949747053E+02  0.71648231943E+02  0.47000000000E+01 0. -1.
        -13    1    6    6    0    0  0.17692966332E+02  0.55968335870E+01 -0.18570706459E+02  0.26253318690E+02  0.00000000000E+00 0.  1.
         14    1    6    6    0    0 -0.48999521749E+02  0.69636066103E+02  0.25321829563E+02  0.88833157584E+02  0.00000000000E+00 0. -1.
         -5    1    3    3    0  503 -0.67787540480E+02 -0.45178001423E+02 -0.22131619059E+03  0.23587952152E+03  0.47000000000E+01 0.  1.
         11    1    4    4    0    0  0.31002643459E+02 -0.29289398094E+02 -0.17495155901E+03  0.18007520857E+03  0.00000000000E+00 0. -1.
        -12    1    4    4    0    0  0.23755590211E+02  0.28329726559E+02 -0.33809407730E+02  0.50099675889E+02  0.00000000000E+00 0.  1.
</event>
<event>
12    1  0.8053217E-002  0.1921282E+03  0.7818608E-02  0.1156937E+00
         21   -1    0    0  501  502  0.00000000000E+00  0.00000000000E+00  0.15587566534E+03  0.15587566534E+03  0.00000000000E+00 0.  1.
         21   -1    0    0  502  503 -0.00000000000E+00 -0.00000000000E+00 -0.29877471902E+03  0.29877471902E+03  0.00000000000E+00 0.  1.
         -6    2    1    2    0  503 -0.12157465484E+02 -0.82204825641E+02 -0.17696315551E+03  0.26120723026E+03  0.17322765774E+03 0.  0.
        -24    2    3    3    0    0  0.21490944282E+02  0.17855237508E+02 -0.98214898334E+02  0.12942100288E+03  0.79517039308E+02 0.  0.
          6    2    1    2  501    0  0.12157465484E+02  0.82204825641E+02  0.34064101824E+02  0.19344315410E+03  0.17133141425E+03 0.  0.
         24    2    5    5    0    0  0.45412978938E+01 -0.44001910563E+01 -0.29748810270E+02  0.85495886067E+02  0.79903502765E+02 0.  0.
          5    1    5    5  501    0  0.76161675897E+01  0.86605016697E+02  0.63812912094E+02  0.10794726803E+03  0.47000000000E+01 0. -1.
        -11    1    6    6    0    0 -0.18739779917E+02  0.26024373516E+02  0.65373624638E+01  0.32728954707E+02  0.00000000000E+00 0.  1.
         12    1    6    6    0    0  0.23281077811E+02 -0.30424564573E+02 -0.36286172734E+02  0.52766931360E+02  0.00000000000E+00 0. -1.
         -5    1    3    3    0  503 -0.33648409765E+02 -0.10006006315E+03 -0.78748257177E+02  0.13178622737E+03  0.47000000000E+01 0.  1.
         11    1    4    4    0    0 -0.57217208239E+01 -0.12444778161E+01  0.12509953225E+02  0.13812521273E+02  0.00000000000E+00 0. -1.
        -12    1    4    4    0    0  0.27212665106E+02  0.19099715324E+02 -0.11072485156E+03  0.11560848161E+03  0.00000000000E+00 0.  1.
</event>
<event>
12    1  0.8053217E-002  0.2704278E+03  0.7818608E-02  0.1101065E+00
         21   -1    0    0  503  502  0.00000000000E+00  0.00000000000E+00  0.10689631942E+04  0.10689631942E+04  0.00000000000E+00 0.  1.
         21   -1    0    0  501  503 -0.00000000000E+00 -0.00000000000E+00 -0.70102780787E+02  0.70102780787E+02  0.00000000000E+00 0.  1.
          6    2    1    2  501    0  0.18707895624E+03 -0.92127745322E+02  0.40945736296E+03  0.49058531962E+03  0.17185041875E+03 0.  0.
         24    2    3    3    0    0  0.55521692376E+02 -0.89053457739E+01  0.24613294548E+03  0.26490803498E+03  0.80205215765E+02 0.  0.
         -6    2    1    2    0  502 -0.18707895624E+03  0.92127745322E+02  0.58940305045E+03  0.64848065536E+03  0.17217766165E+03 0.  0.
        -24    2    5    5    0    0 -0.95600663211E+02  0.97831863209E+02  0.24116949053E+03  0.28835634723E+03  0.79221837624E+02 0.  0.
          5    1    3    3  501    0  0.13155726386E+03 -0.83222399548E+02  0.16332441748E+03  0.22567728465E+03  0.47000000000E+01 0. -1.
        -11    1    4    4    0    0  0.35548065772E+02 -0.22117763477E+02  0.41748241251E+02  0.59125088490E+02  0.00000000000E+00 0.  1.
         12    1    4    4    0    0  0.19973626604E+02  0.13212417703E+02  0.20438470423E+03  0.20578294649E+03  0.00000000000E+00 0. -1.
         -5    1    5    5    0  502 -0.91478293026E+02 -0.57041178872E+01  0.34823355992E+03  0.36012430813E+03  0.47000000000E+01 0.  1.
         13    1    6    6    0    0 -0.23900990768E+02  0.34039702665E+02  0.15117222800E+03  0.15678967197E+03  0.00000000000E+00 0. -1.
        -14    1    6    6    0    0 -0.71699672443E+02  0.63792160544E+02  0.89997262534E+02  0.13156667526E+03  0.00000000000E+00 0.  1.
</event>
<event>
12    1  0.8053217E-002  0.1750936E+03  0.7818608E-02  0.1172911E+00
         21   -1    0    0  501  502  0.00000000000E+00  0.00000000000E+00  0.58613031810E+03  0.58613031810E+03  0.00000000000E+00 0.  1.
         21   -1    0    0  502  503 -0.00000000000E+00 -0.00000000000E+00 -0.52012837127E+02  0.52012837127E+02  0.00000000000E+00 0. -1.
         -6    2    1    2    0  503  0.22489330101E+02 -0.11421005561E+02  0.27567054789E+03  0.32657621307E+03  0.17326731554E+03 0.  0.
        -24    2    3    3    0    0 -0.32798272432E+02 -0.54438873539E+02  0.18750954199E+03  0.21387435452E+03  0.80889390888E+02 0.  0.
          6    2    1    2  501    0 -0.22489330101E+02  0.11421005561E+02  0.25844693308E+03  0.31156694215E+03  0.17217123130E+03 0.  0.
         24    2    5    5    0    0 -0.48650921229E+02 -0.46976295554E+02  0.13973969152E+03  0.17662927941E+03  0.84243910630E+02 0.  0.
          5    1    5    5  501    0  0.26161591128E+02  0.58397301116E+02  0.11870724156E+03  0.13493766274E+03  0.47000000000E+01 0. -1.
        -11    1    6    6    0    0 -0.34823691434E+02  0.75905131716E+01  0.10403121782E+03  0.10996726630E+03  0.00000000000E+00 0.  1.
         12    1    6    6    0    0 -0.13827229796E+02 -0.54566808726E+02  0.35708473697E+02  0.66662013112E+02  0.00000000000E+00 0. -1.
         -5    1    3    3    0  503  0.55287602532E+02  0.43017867978E+02  0.88161005904E+02  0.11270185855E+03  0.47000000000E+01 0.  1.
         13    1    4    4    0    0 -0.48236963590E+02 -0.54807901845E+02  0.93624431266E+02  0.11872760796E+03  0.00000000000E+00 0. -1.
        -14    1    4    4    0    0  0.15438691158E+02  0.36902830565E+00  0.93885110721E+02  0.95146746563E+02  0.00000000000E+00 0.  1.
</event>
<event>
12    1  0.8053217E-002  0.3342578E+03  0.7818608E-02  0.1070233E+00
         21   -1    0    0  503  502  0.00000000000E+00  0.00000000000E+00  0.36505463227E+03  0.36505463227E+03  0.00000000000E+00 0.  1.
         21   -1    0    0  501  503 -0.00000000000E+00 -0.00000000000E+00 -0.34066441407E+03  0.34066441407E+03  0.00000000000E+00 0. -1.
          6    2    1    2  501    0  0.28721189698E+03 -0.78809658517E+01 -0.11264958311E+03  0.34445991378E+03  0.15300300729E+03 0.  0.
         24    2    3    3    0    0  0.16503987677E+03  0.48645352357E+02 -0.74123670685E+02  0.20436150872E+03  0.81638082175E+02 0.  0.
         -6    2    1    2    0  502 -0.28721189698E+03  0.78809658517E+01  0.13703980131E+03  0.36125913256E+03  0.17080828529E+03 0.  0.
        -24    2    5    5    0    0 -0.19772265168E+03 -0.33877624663E+02  0.14796573993E+03  0.26179270083E+03  0.79997609796E+02 0.  0.
          5    1    3    3  501    0  0.12217202021E+03 -0.56526318209E+02 -0.38525912422E+02  0.14009840506E+03  0.47000000000E+01 0. -1.
        -11    1    4    4    0    0  0.14357626797E+02  0.79271772450E+01  0.17000607514E+02  0.23622071081E+02  0.00000000000E+00 0.  1.
         12    1    4    4    0    0  0.15068224997E+03  0.40718175112E+02 -0.91124278199E+02  0.18073943764E+03  0.00000000000E+00 0. -1.
         -5    1    5    5    0  502 -0.89489245294E+02  0.41758590515E+02 -0.10925938623E+02  0.99466431724E+02  0.47000000000E+01 0.  1.
         13    1    6    6    0    0 -0.42097943050E+02 -0.38678151443E+02  0.60376830158E+02  0.83148047650E+02  0.00000000000E+00 0. -1.
        -14    1    6    6    0    0 -0.15562470863E+03  0.48005267799E+01  0.87588909777E+02  0.17864465318E+03  0.00000000000E+00 0.  1.
</event>
<event>
12    1  0.8053217E-002  0.1932814E+03  0.7818608E-02  0.1156173E+00
         21   -1    0    0  501  502  0.00000000000E+00  0.00000000000E+00  0.34591220796E+03  0.34591220796E+03  0.00000000000E+00 0.  1.
         21   -1    0    0  502  503 -0.00000000000E+00 -0.00000000000E+00 -0.22421095736E+03  0.22421095736E+03  0.00000000000E+00 0.  1.
         -6    2    1    2    0  503  0.82112862946E+02  0.12187567805E+02 -0.14556668486E+03  0.24196562303E+03  0.17454696766E+03 0.  0.
        -24    2    3    3    0    0 -0.20037978982E+02 -0.15215937437E+02 -0.75432655850E+02  0.11497499885E+03  0.83042877101E+02 0.  0.
          6    2    1    2  501    0 -0.82112862946E+02 -0.12187567805E+02  0.26726793546E+03  0.32815754229E+03  0.17135975072E+03 0.  0.
         24    2    5    5    0    0 -0.69927733071E+02 -0.51924172856E+02  0.25647362020E+03  0.28495936626E+03  0.88527481481E+02 0.  0.
          5    1    5    5  501    0 -0.12185129875E+02  0.39736605051E+02  0.10794315259E+02  0.43198176037E+02  0.47000000000E+01 0. -1.
        -11    1    6    6    0    0 -0.84285358893E+02 -0.36409105878E+02  0.14591010592E+03  0.17239316611E+03  0.00000000000E+00 0.  1.
         12    1    6    6    0    0  0.14357625823E+02 -0.15515066977E+02  0.11056351429E+03  0.11256620014E+03  0.00000000000E+00 0. -1.
         -5    1    3    3    0  503  0.10215084193E+03  0.27403505242E+02 -0.70134029014E+02  0.12699062419E+03  0.47000000000E+01 0.  1.
         11    1    4    4    0    0 -0.36751033981E+02 -0.38412896996E+02 -0.66256895649E+02  0.84948015723E+02  0.00000000000E+00 0. -1.
        -12    1    4    4    0    0  0.16713054999E+02  0.23196959559E+02 -0.91757602007E+01  0.30026983122E+02  0.00000000000E+00 0.  1.
</event>
<event>
12    1  0.8053217E-002  0.1960883E+03  0.7818608E-02  0.1153308E+00
         21   -1    0    0  503  502  0.00000000000E+00  0.00000000000E+00  0.23616001970E+04  0.23616001970E+04  0.00000000000E+00 0.  1.
         21   -1    0    0  501  503 -0.00000000000E+00 -0.00000000000E+00 -0.19700373883E+02  0.19700373883E+02  0.00000000000E+00 0.  1.
          6    2    1    2  501    0 -0.92882987965E+02  0.17928311149E+02  0.67128649773E+03  0.69933983006E+03  0.17176135209E+03 0.  0.
         24    2    3    3    0    0 -0.38176831068E+02 -0.50273574120E+02  0.45608004257E+03  0.46700350251E+03  0.78092019022E+02 0.  0.
         -6    2    1    2    0  502  0.92882987965E+02 -0.17928311149E+02  0.16706133254E+04  0.16819607409E+04  0.17057073882E+03 0.  0.
        -24    2    5    5    0    0  0.22076707343E+02  0.39979000559E+02  0.41623556171E+03  0.42424358259E+03  0.68153305451E+02 0.  0.
          5    1    3    3  501    0 -0.54706156897E+02  0.68201885269E+02  0.21520645516E+03  0.23233632755E+03  0.47000000000E+01 0. -1.
        -13    1    4    4    0    0 -0.57084848642E+02 -0.15094582469E+02  0.23226402840E+03  0.23965205039E+03  0.00000000000E+00 0.  1.
         14    1    4    4    0    0  0.18908017575E+02 -0.35178991651E+02  0.22381601417E+03  0.22735145212E+03  0.00000000000E+00 0. -1.
         -5    1    5    5    0  502  0.70806280621E+02 -0.57907311708E+02  0.12543777637E+04  0.12577171583E+04  0.47000000000E+01 0.  1.
         13    1    6    6    0    0 -0.58370609702E+01 -0.11115317896E+02  0.19728884398E+03  0.19768790943E+03  0.00000000000E+00 0. -1.
        -14    1    6    6    0    0  0.27913768314E+02  0.51094318454E+02  0.21894671772E+03  0.22655567316E+03  0.00000000000E+00 0.  1.
</event>
<event>
12    1  0.8053217E-002  0.1976206E+03  0.7818608E-02  0.1154717E+00
         21   -1    0    0  503  502  0.00000000000E+00  0.00000000000E+00  0.32951266247E+02  0.32951266247E+02  0.00000000000E+00 0. -1.
         21   -1    0    0  501  503 -0.00000000000E+00 -0.00000000000E+00 -0.12740614850E+04  0.12740614850E+04  0.00000000000E+00 0. -1.
          6    2    1    2  501    0 -0.62213586417E+02  0.21806492331E+02 -0.36516284922E+03  0.40904968050E+03  0.17213855242E+03 0.  0.
         24    2    3    3    0    0 -0.56950691475E+02  0.73573777451E+02 -0.30787784538E+03  0.33151767720E+03  0.80366165962E+02 0.  0.
         -6    2    1    2    0  502  0.62213586417E+02 -0.21806492331E+02 -0.87594736950E+03  0.89796307071E+03  0.18630037246E+03 0.  0.
        -24    2    5    5    0    0  0.75616097512E+02 -0.75126028886E+02 -0.72465087944E+03  0.73691861042E+03  0.81045832115E+02 0.  0.
          5    1    3    3  501    0 -0.52628949415E+01 -0.51767285121E+02 -0.57285003835E+02  0.77532003304E+02  0.47000000000E+01 0. -1.
        -13    1    4    4    0    0 -0.58368330950E+02  0.98568590734E+01 -0.14554788872E+03  0.15712481548E+03  0.00000000000E+00 0.  1.
         14    1    4    4    0    0  0.14176394753E+01  0.63716918378E+02 -0.16232995666E+03  0.17439286172E+03  0.00000000000E+00 0. -1.
         -5    1    5    5    0  502 -0.13402511095E+02  0.53319536556E+02 -0.15129649006E+03  0.16104446028E+03  0.47000000000E+01 0.  1.
         11    1    6    6    0    0  0.25674006091E+02 -0.48676060232E+02 -0.56281395443E+03  0.56549806431E+03  0.00000000000E+00 0. -1.
        -12    1    6    6    0    0  0.49942091421E+02 -0.26449968655E+02 -0.16183692500E+03  0.17142054612E+03  0.00000000000E+00 0.  1.
</event>
<event>
12    1  0.8053217E-002  0.3045366E+03  0.7818608E-02  0.1083014E+00
         21   -1    0    0  501  502  0.00000000000E+00  0.00000000000E+00  0.54856465833E+03  0.54856465833E+03  0.00000000000E+00 0.  1.
         21   -1    0    0  502  503 -0.00000000000E+00 -0.00000000000E+00 -0.70954454237E+03  0.70954454237E+03  0.00000000000E+00 0.  1.
         -6    2    1    2    0  503  0.31710263176E+02 -0.24896449626E+03 -0.62955040339E+03  0.69927033335E+03  0.17221041634E+03 0.  0.
        -24    2    3    3    0    0 -0.43395339552E+02 -0.10344217880E+03 -0.33512936543E+03  0.36233794541E+03  0.79960335572E+02 0.  0.
          6    2    1    2  501    0 -0.31710263176E+02  0.24896449626E+03  0.46857051935E+03  0.55883886735E+03  0.17249257050E+03 0.  0.
         24    2    5    5    0    0 -0.39515922673E+02  0.26689695181E+03  0.41348334702E+03  0.50019427820E+03  0.80189442248E+02 0.  0.
          5    1    5    5  501    0  0.78056594969E+01 -0.17932455555E+02  0.55087172326E+02  0.58644589156E+02  0.47000000000E+01 0. -1.
        -11    1    6    6    0    0 -0.53541918358E+01  0.14816479024E+03  0.15956114453E+03  0.21781008076E+03  0.00000000000E+00 0.  1.
         12    1    6    6    0    0 -0.34161730837E+02  0.11873216157E+03  0.25392220249E+03  0.28238419744E+03  0.00000000000E+00 0. -1.
         -5    1    3    3    0  503  0.75105602728E+02 -0.14552231746E+03 -0.29442103797E+03  0.33693238793E+03  0.47000000000E+01 0.  1.
         11    1    4    4    0    0 -0.33046109121E+02 -0.14269009304E+02 -0.39785049394E+02  0.53651655239E+02  0.00000000000E+00 0. -1.
        -12    1    4    4    0    0 -0.10349230430E+02 -0.89173169491E+02 -0.29534431603E+03  0.30868629017E+03  0.00000000000E+00 0.  1.
</event>
<event>
12    1  0.8053217E-002  0.1902479E+03  0.7818608E-02  0.1159411E+00
         21   -1    0    0  503  502  0.00000000000E+00  0.00000000000E+00  0.17846987187E+03  0.17846987187E+03  0.00000000000E+00 0.  1.
         21   -1    0    0  501  503 -0.00000000000E+00 -0.00000000000E+00 -0.32161781767E+03  0.32161781767E+03  0.00000000000E+00 0.  1.
          6    2    1    2  501    0 -0.45600135879E+02  0.51645002090E+02 -0.22758329250E+03  0.29662839983E+03  0.17733492023E+03 0.  0.
         24    2    3    3    0    0 -0.66222645490E+02  0.89348067263E+02 -0.13197850362E+03  0.19170378555E+03  0.83447588810E+02 0.  0.
         -6    2    1    2    0  502  0.45600135879E+02 -0.51645002090E+02  0.84435346693E+02  0.20345928970E+03  0.17181320136E+03 0.  0.
        -24    2    5    5    0    0  0.28715494213E+02  0.28381392678E+02  0.80971915234E+02  0.12146294624E+03  0.81035258954E+02 0.  0.
          5    1    3    3  501    0  0.20622509611E+02 -0.37703065173E+02 -0.95604788876E+02  0.10492461428E+03  0.47000000000E+01 0. -1.
        -13    1    4    4    0    0 -0.72261364446E+02  0.41954934680E+02 -0.51624058524E+02  0.98218963312E+02  0.00000000000E+00 0.  1.
         14    1    4    4    0    0  0.60387189563E+01  0.47393132583E+02 -0.80354445097E+02  0.93484822241E+02  0.00000000000E+00 0. -1.
         -5    1    5    5    0  502  0.16884641665E+02 -0.80026394768E+02  0.34634314585E+01  0.81996343463E+02  0.47000000000E+01 0.  1.
         11    1    6    6    0    0 -0.16085119114E+02  0.22615540637E+02 -0.11084507416E+01  0.27774491863E+02  0.00000000000E+00 0. -1.
        -12    1    6    6    0    0  0.44800613328E+02  0.57658520418E+01  0.82080365976E+02  0.93688454374E+02  0.00000000000E+00 0.  1.
</event>
<event>
12    1  0.8053217E-002  0.1923869E+03  0.7818608E-02  0.1159470E+00
         21   -1    0    0  501  502  0.00000000000E+00  0.00000000000E+00  0.56475228054E+02  0.56475228054E+02  0.00000000000E+00 0. -1.
         21   -1    0    0  502  503 -0.00000000000E+00 -0.00000000000E+00 -0.61178210703E+03  0.61178210703E+03  0.00000000000E+00 0. -1.
         -6    2    1    2    0  503 -0.37765436437E+02 -0.38574445808E+02 -0.26874846728E+03  0.33051243960E+03  0.18465784037E+03 0.  0.
        -24    2    3    3    0    0  0.24516434525E+02  0.23012665375E+02 -0.20398557995E+03  0.22147884254E+03  0.79448867419E+02 0.  0.
          6    2    1    2  501    0  0.37765436437E+02  0.38574445808E+02 -0.28655841170E+03  0.33774489548E+03  0.17041618189E+03 0.  0.
         24    2    5    5    0    0  0.55426709056E+02  0.10114172229E+02 -0.74799214499E+02  0.12330153391E+03  0.80211777303E+02 0.  0.
          5    1    5    5  501    0 -0.17661272619E+02  0.28460273579E+02 -0.21175919720E+03  0.21444336157E+03  0.47000000000E+01 0. -1.
        -11    1    6    6    0    0  0.46945007953E+02 -0.30743843703E+02 -0.46541815140E+02  0.72905131875E+02  0.00000000000E+00 0.  1.
         12    1    6    6    0    0  0.84817011038E+01  0.40858015931E+02 -0.28257399359E+02  0.50396402034E+02  0.00000000000E+00 0. -1.
         -5    1    3    3    0  503 -0.62281870962E+02 -0.61587111183E+02 -0.64762887323E+02  0.10903359706E+03  0.47000000000E+01 0.  1.
         11    1    4    4    0    0 -0.12207468796E+02 -0.22125041343E+02 -0.38419760053E+02  0.45984972668E+02  0.00000000000E+00 0. -1.
        -12    1    4    4    0    0  0.36723903321E+02  0.45137706718E+02 -0.16556581990E+03  0.17549386987E+03  0.00000000000E+00 0.  1.
</event>
<event>
12    1  0.8053217E-002  0.1932432E+03  0.7818608E-02  0.1155737E+00
         21   -1    0    0  503  502  0.00000000000E+00  0.00000000000E+00  0.77249157278E+02  0.77249157278E+02  0.00000000000E+00 0.  1.
         21   -1    0    0  501  503 -0.00000000000E+00 -0.00000000000E+00 -0.48248354485E+03  0.48248354485E+03  0.00000000000E+00 0. -1.
          6    2    1    2  501    0  0.72900468515E+02 -0.48513358336E+02 -0.21565174950E+03  0.28956627498E+03  0.17226411785E+03 0.  0.
         24    2    3    3    0    0  0.54635591016E+02  0.14470515314E+02 -0.51820953852E+02  0.11303527574E+03  0.83048893338E+02 0.  0.
         -6    2    1    2    0  502 -0.72900468515E+02  0.48513358336E+02 -0.18958263807E+03  0.27016642714E+03  0.17140681857E+03 0.  0.
        -24    2    5    5    0    0 -0.30707990655E+02  0.49086302193E+02 -0.20317303646E+03  0.22558703301E+03  0.79106137358E+02 0.  0.
          5    1    3    3  501    0  0.18264877500E+02 -0.62983873650E+02 -0.16383079565E+03  0.17653099924E+03  0.47000000000E+01 0. -1.
        -13    1    4    4    0    0  0.16467403879E+02  0.47260045173E+02 -0.23431465231E+02  0.55260481568E+02  0.00000000000E+00 0.  1.
         14    1    4    4    0    0  0.38168187136E+02 -0.32789529859E+02 -0.28389488621E+02  0.57774794173E+02  0.00000000000E+00 0. -1.
         -5    1    5    5    0  502 -0.42192477860E+02 -0.57294385669E+00  0.13590398388E+02  0.44579394130E+02  0.47000000000E+01 0.  1.
         13    1    6    6    0    0 -0.15621041297E+02  0.68436823156E+02 -0.12163921242E+03  0.14044113960E+03  0.00000000000E+00 0. -1.
        -14    1    6    6    0    0 -0.15086949359E+02 -0.19350520963E+02 -0.81533824040E+02  0.85145893413E+02  0.00000000000E+00 0.  1.
</event>
<event>
12    1  0.8053217E-002  0.1977359E+03  0.7818608E-02  0.1155922E+00
         21   -1    0    0  503  502  0.00000000000E+00  0.00000000000E+00  0.64171574979E+03  0.64171574979E+03  0.00000000000E+00 0. -1.
         21   -1    0    0  501  503 -0.00000000000E+00 -0.00000000000E+00 -0.55599455375E+02  0.55599455375E+02  0.00000000000E+00 0. -1.
          6    2    1    2  501    0 -0.51210095221E+02 -0.15941993249E+02  0.28033197118E+03  0.34305318513E+03  0.19032302215E+03 0.  0.
         24    2    3    3    0    0 -0.94018993387E+02  0.36798294088E+02  0.15328134749E+03  0.19890711112E+03  0.76649734519E+02 0.  0.
         -6    2    1    2    0  502  0.51210095221E+02  0.15941993249E+02  0.30578432323E+03  0.35426202004E+03  0.17064848521E+03 0.  0.
        -24    2    5    5    0    0 -0.32491335694E+01  0.59586029167E+02  0.23098071902E+03  0.25184972255E+03  0.80716407581E+02 0.  0.
          5    1    3    3  501    0  0.42808898165E+02 -0.52740287337E+02  0.12705062370E+03  0.14414607401E+03  0.47000000000E+01 0. -1.
        -11    1    4    4    0    0  0.53253395527E+01  0.20091108190E+02  0.52255308793E+02  0.56237257816E+02  0.00000000000E+00 0.  1.
         12    1    4    4    0    0 -0.99344332939E+02  0.16707185898E+02  0.10102603870E+03  0.14266985331E+03  0.00000000000E+00 0. -1.
         -5    1    5    5    0  502  0.54459228791E+02 -0.43644035918E+02  0.74803604217E+02  0.10241229748E+03  0.47000000000E+01 0.  1.
         13    1    6    6    0    0  0.18770640551E+02  0.25930189746E+02  0.21542774420E+02  0.38585007667E+02  0.00000000000E+00 0. -1.
        -14    1    6    6    0    0 -0.22019774120E+02  0.33655839421E+02  0.20943794460E+03  0.21326471489E+03  0.00000000000E+00 0.  1.
</event>
<event>
12    1  0.8053217E-002  0.1929878E+03  0.7818608E-02  0.1156093E+00
         21   -1    0    0  501  502  0.00000000000E+00  0.00000000000E+00  0.75977388476E+03  0.75977388476E+03  0.00000000000E+00 0.  1.
         21   -1    0    0  502  503 -0.00000000000E+00 -0.00000000000E+00 -0.67750005302E+02  0.67750005302E+02  0.00000000000E+00 0.  1.
         -6    2    1    2    0  503 -0.81526366785E+02  0.26762309115E+02  0.12560903465E+03  0.22913432004E+03  0.17135383673E+03 0.  0.
        -24    2    3    3    0    0 -0.74981784450E+02 -0.29725236406E+02  0.12881779972E+03  0.17198486221E+03  0.80491674273E+02 0.  0.
          6    2    1    2  501    0  0.81526366785E+02 -0.26762309115E+02  0.56641484480E+03  0.59838957002E+03  0.17286275315E+03 0.  0.
         24    2    5    5    0    0  0.49836137836E+02 -0.26703970639E+02  0.13461694168E+03  0.16540482069E+03  0.77719309291E+02 0.  0.
          5    1    5    5  501    0  0.31690228949E+02 -0.58338475617E-01  0.43179790312E+03  0.43298474933E+03  0.47000000000E+01 0. -1.
        -13    1    6    6    0    0  0.29416320355E+02 -0.34420589780E+01  0.13092426406E+03  0.13423237535E+03  0.00000000000E+00 0.  1.
         14    1    6    6    0    0  0.20419817481E+02 -0.23261911661E+02  0.36926776212E+01  0.31172445334E+02  0.00000000000E+00 0. -1.
         -5    1    3    3    0  503 -0.65445823347E+01  0.56487545521E+02 -0.32087650635E+01  0.57149457829E+02  0.47000000000E+01 0.  1.
         13    1    4    4    0    0  0.15976542338E+02 -0.10554037246E+02  0.35111038191E+02  0.39992781975E+02  0.00000000000E+00 0. -1.
        -14    1    4    4    0    0 -0.90958326789E+02 -0.19171199160E+02  0.93706761526E+02  0.13199208024E+03  0.00000000000E+00 0.  1.
</event>
<event>
12    1  0.8053217E-002  0.2142235E+03  0.7818608E-02  0.1138724E+00
         21   -1    0    0  503  502  0.00000000000E+00  0.00000000000E+00  0.32213719878E+03  0.32213719878E+03  0.00000000000E+00 0. -1.
         21   -1    0    0  501  503 -0.00000000000E+00 -0.00000000000E+00 -0.15693400379E+03  0.15693400379E+03  0.00000000000E+00 0.  1.
          6    2    1    2  501    0  0.10918836104E+03  0.66221673460E+02  0.56028802527E+01  0.21193082953E+03  0.16904400615E+03 0.  0.
         24    2    3    3    0    0  0.39163293523E+02 -0.25286351421E+02  0.21443235432E+02  0.95525350490E+02  0.80573675060E+02 0.  0.
         -6    2    1    2    0  502 -0.10918836104E+03 -0.66221673460E+02  0.15960031474E+03  0.26714037303E+03  0.17200090179E+03 0.  0.
        -24    2    5    5    0    0  0.18341640746E+01 -0.61740817498E+02  0.58098718157E+02  0.11657230450E+03  0.79989676971E+02 0.  0.
          5    1    3    3  501    0  0.70025067516E+02  0.91508024881E+02 -0.15840355180E+02  0.11640547904E+03  0.47000000000E+01 0. -1.
        -11    1    4    4    0    0  0.42636285527E+02  0.41395627665E+01  0.41581588345E+02  0.59699391225E+02  0.00000000000E+00 0.  1.
         12    1    4    4    0    0 -0.34729920032E+01 -0.29425914187E+02 -0.20138352912E+02  0.35825959265E+02  0.00000000000E+00 0. -1.
         -5    1    5    5    0  502 -0.11102252511E+03 -0.44808559627E+01  0.10150159658E+03  0.15056806853E+03  0.47000000000E+01 0.  1.
         11    1    6    6    0    0 -0.20198383339E+02 -0.70466575075E+02  0.28485068706E+02  0.78644211685E+02  0.00000000000E+00 0. -1.
        -12    1    6    6    0    0  0.22032547414E+02  0.87257575776E+01  0.29613649451E+02  0.37928092816E+02  0.00000000000E+00 0.  1.
</event>
<event>
12    1  0.8053217E-002  0.2710506E+03  0.7818608E-02  0.1100936E+00
         21   -1    0    0  503  502  0.00000000000E+00  0.00000000000E+00  0.14017397546E+04  0.14017397546E+04  0.00000000000E+00 0.  1.
         21   -1    0    0  501  503 -0.00000000000E+00 -0.00000000000E+00 -0.86333967542E+02  0.86333967542E+02  0.00000000000E+00 0. -1.
          6    2    1    2  501    0  0.20183052109E+03  0.52023132580E+02  0.19026569714E+03  0.33116383390E+03  0.17328151607E+03 0.  0.
         24    2    3    3    0    0  0.82423467691E+02 -0.25691589439E+02  0.12911719054E+03  0.17605467144E+03  0.82887349158E+02 0.  0.
         -6    2    1    2    0  502 -0.20183052109E+03 -0.52023132580E+02  0.11251400899E+04  0.11569098882E+04  0.17046495823E+03 0.  0.
        -24    2    5    5    0    0 -0.57003037845E+02 -0.65066904881E+02  0.38412816459E+03  0.40175036642E+03  0.79786350071E+02 0.  0.
          5    1    3    3  501    0  0.11940705340E+03  0.77714722018E+02  0.61148506602E+02  0.15510916246E+03  0.47000000000E+01 0. -1.
        -11    1    4    4    0    0 -0.16044041616E+02 -0.11004303288E+01  0.77728518055E+01  0.17861675271E+02  0.00000000000E+00 0.  1.
         12    1    4    4    0    0  0.98467509307E+02 -0.24591159110E+02  0.12134433873E+03  0.15819299617E+03  0.00000000000E+00 0. -1.
         -5    1    5    5    0  502 -0.14482748325E+03  0.13043772301E+02  0.74101192530E+03  0.75515952178E+03  0.47000000000E+01 0.  1.
         13    1    6    6    0    0 -0.75844243779E+02 -0.43915984336E+02  0.31696690734E+03  0.32886012733E+03  0.00000000000E+00 0. -1.
        -14    1    6    6    0    0  0.18841205934E+02 -0.21150920545E+02  0.67161257244E+02  0.72890239097E+02  0.00000000000E+00 0.  1.
</event>
<event>
12    1  0.8053217E-002  0.1865182E+03  0.7818608E-02  0.1161642E+00
         21   -1    0    0  501  502  0.00000000000E+00  0.00000000000E+00  0.31327439842E+03  0.31327439842E+03  0.00000000000E+00 0. -1.
         21   -1    0    0  502  503 -0.00000000000E+00 -0.00000000000E+00 -0.54328552546E+03  0.54328552546E+03  0.00000000000E+00 0. -1.
         -6    2    1    2    0  503  0.93826086417E+01  0.71411044565E+02 -0.49701866817E+03  0.53086401563E+03  0.17205079467E+03 0.  0.
        -24    2    3    3    0    0  0.20463726584E+02  0.45765423684E+01 -0.10924585672E+03  0.13718967666E+03  0.80290979111E+02 0.  0.
          6    2    1    2  501    0 -0.93826086417E+01 -0.71411044565E+02  0.26700754114E+03  0.32569590825E+03  0.17203844626E+03 0.  0.
         24    2    5    5    0    0 -0.66973972619E+02 -0.19244292759E+02  0.12299130171E+03  0.16198609664E+03  0.79099806538E+02 0.  0.
          5    1    5    5  501    0  0.57591363977E+02 -0.52166751807E+02  0.14401623943E+03  0.16370981161E+03  0.47000000000E+01 0. -1.
        -11    1    6    6    0    0 -0.70775737486E+02 -0.36617771257E+02  0.69917776606E+02  0.10601208268E+03  0.00000000000E+00 0.  1.
         12    1    6    6    0    0  0.38017648672E+01  0.17373478498E+02  0.53073525105E+02  0.55974013955E+02  0.00000000000E+00 0. -1.
         -5    1    3    3    0  503 -0.11081117942E+02  0.66834502197E+02 -0.38777281145E+03  0.39367433897E+03  0.47000000000E+01 0.  1.
         13    1    4    4    0    0  0.69975259099E+01  0.84210537478E+01 -0.11939405146E+03  0.11989503342E+03  0.00000000000E+00 0. -1.
        -14    1    4    4    0    0  0.13466200674E+02 -0.38445113794E+01  0.10148194740E+02  0.17294643241E+02  0.00000000000E+00 0.  1.
</event>
<event>
12    1  0.8053217E-002  0.1822415E+03  0.7818608E-02  0.1166319E+00
         21   -1    0    0  501  502  0.00000000000E+00  0.00000000000E+00  0.69254070490E+02  0.69254070490E+02  0.00000000000E+00 0. -1.
         21   -1    0    0  502  503 -0.00000000000E+00 -0.00000000000E+00 -0.58438636183E+03  0.58438636183E+03  0.00000000000E+00 0.  1.
         -6    2    1    2    0  503 -0.36843766520E+02  0.47747966767E+02 -0.39910857664E+03  0.43759998652E+03  0.16902295936E+03 0.  0.
        -24    2    3    3    0    0  0.41799363267E+01 -0.30643511655E+02 -0.25679880717E+03  0.26996249497E+03  0.77315099779E+02 0.  0.
          6    2    1    2  501    0  0.36843766520E+02 -0.47747966767E+02 -0.11602371469E+03  0.21604044580E+03  0.17197278967E+03 0.  0.
         24    2    5    5    0    0  0.47069737086E+02  0.30187105299E+02 -0.35521774737E+02  0.10343006320E+03  0.79430221061E+02 0.  0.
          5    1    5    5  501    0 -0.10225970566E+02 -0.77935072066E+02 -0.80501939957E+02  0.11261038260E+03  0.47000000000E+01 0. -1.
        -11    1    6    6    0    0 -0.60517082642E+01 -0.10140040124E+01 -0.41114564757E+02  0.41569926776E+02  0.00000000000E+00 0.  1.
         12    1    6    6    0    0  0.53121445350E+02  0.31201109312E+02  0.55927900192E+01  0.61860136426E+02  0.00000000000E+00 0. -1.
         -5    1    3    3    0  503 -0.41023702847E+02  0.78391478422E+02 -0.14230976947E+03  0.16763749155E+03  0.47000000000E+01 0.  1.
         11    1    4    4    0    0 -0.27590197416E+02 -0.33183840856E+02 -0.86056447689E+02  0.96270963828E+02  0.00000000000E+00 0. -1.
        -12    1    4    4    0    0  0.31770133743E+02  0.25403292007E+01 -0.17074235948E+03  0.17369153115E+03  0.00000000000E+00 0.  1.
</event>
<event>
12    1  0.8053217E-002  0.2181302E+03  0.7818608E-02  0.1135323E+00
         21   -1    0    0  503  502  0.00000000000E+00  0.00000000000E+00  0.54073186381E+03  0.54073186381E+03  0.00000000000E+00 0.  1.
         21   -1    0    0  501  503 -0.00000000000E+00 -0.00000000000E+00 -0.90134290466E+02  0.90134290466E+02  0.00000000000E+00 0. -1.
          6    2    1    2  501    0 -0.10494321635E+03 -0.80422697040E+02  0.27472616807E+03  0.35066701680E+03  0.17323971945E+03 0.  0.
         24    2    3    3    0    0 -0.65716799894E+02 -0.59774972679E+02  0.28115625511E+03  0.30562840794E+03  0.80424739985E+02 0.  0.
         -6    2    1    2    0  502  0.10494321635E+03  0.80422697040E+02  0.17587140528E+03  0.28019913748E+03  0.17349327535E+03 0.  0.
        -24    2    5    5    0    0  0.77053448968E+02 -0.17864499285E+02  0.62350056847E+02  0.12740058174E+03  0.78019255996E+02 0.  0.
          5    1    3    3  501    0 -0.39226416453E+02 -0.20647724361E+02 -0.64300870450E+01  0.45038608864E+02  0.47000000000E+01 0. -1.
        -13    1    4    4    0    0 -0.43967388355E+02 -0.55900175097E+02  0.97684416225E+02  0.12083131212E+03  0.00000000000E+00 0.  1.
         14    1    4    4    0    0 -0.21749411539E+02 -0.38747975826E+01  0.18347183889E+03  0.18479709582E+03  0.00000000000E+00 0. -1.
         -5    1    5    5    0  502  0.27889767379E+02  0.98287196325E+02  0.11352134843E+03  0.15279855574E+03  0.47000000000E+01 0.  1.
         13    1    6    6    0    0  0.23323863934E+02  0.14905659413E+02 -0.11845928395E+02  0.30108260177E+02  0.00000000000E+00 0. -1.
        -14    1    6    6    0    0  0.53729585034E+02 -0.32770158698E+02  0.74195985242E+02  0.97292321563E+02  0.00000000000E+00 0.  1.
</event>
<event>
12    1  0.8053217E-002  0.1965190E+03  0.7818608E-02  0.1153296E+00
         21   -1    0    0  503  502  0.00000000000E+00  0.00000000000E+00  0.85219770225E+02  0.85219770225E+02  0.00000000000E+00 0. -1.
         21   -1    0    0  501  503 -0.00000000000E+00 -0.00000000000E+00 -0.48562172520E+03  0.48562172520E+03  0.00000000000E+00 0. -1.
          6    2    1    2  501    0  0.92665834737E+02 -0.21614563673E+02 -0.12096548799E+03  0.23076474449E+03  0.17194642110E+03 0.  0.
         24    2    3    3    0    0  0.27055490563E+02  0.50245495450E+02 -0.71992391288E+02  0.12172787202E+03  0.79863389857E+02 0.  0.
         -6    2    1    2    0  502 -0.92665834737E+02  0.21614563673E+02 -0.27943646699E+03  0.34007675093E+03  0.16885884979E+03 0.  0.
        -24    2    5    5    0    0 -0.86891889682E+02 -0.75837723041E+01 -0.28587517441E+03  0.30926395783E+03  0.79447254030E+02 0.  0.
          5    1    3    3  501    0  0.65610344173E+02 -0.71860059123E+02 -0.48973096699E+02  0.10903687248E+03  0.47000000000E+01 0. -1.
        -11    1    4    4    0    0 -0.15304610018E+02  0.53517860571E+02 -0.40089951714E+02  0.68597352109E+02  0.00000000000E+00 0.  1.
         12    1    4    4    0    0  0.42360100582E+02 -0.32723651216E+01 -0.31902439575E+02  0.53130519907E+02  0.00000000000E+00 0. -1.
         -5    1    5    5    0  502 -0.57739450548E+01  0.29198335977E+02  0.64387074248E+01  0.30812793100E+02  0.47000000000E+01 0.  1.
         11    1    6    6    0    0 -0.84461170979E+02  0.22569635942E+02 -0.22175088249E+03  0.23836218609E+03  0.00000000000E+00 0. -1.
        -12    1    6    6    0    0 -0.24307187029E+01 -0.30153408246E+02 -0.64124291920E+02  0.70901771744E+02  0.00000000000E+00 0.  1.
</event>
<event>
12    1  0.8053217E-002  0.1742599E+03  0.7818608E-02  0.1173532E+00
         21   -1    0    0  501  502  0.00000000000E+00  0.00000000000E+00  0.63191827170E+03  0.63191827170E+03  0.00000000000E+00 0. -1.
         21   -1    0    0  502  503 -0.00000000000E+00 -0.00000000000E+00 -0.64848571967E+02  0.64848571967E+02  0.00000000000E+00 0. -1.
         -6    2    1    2    0  503  0.10005090173E+02  0.31255721951E+02  0.10579642223E+03  0.20367501715E+03  0.17091988671E+03 0.  0.
        -24    2    3    3    0    0 -0.13757959449E+01  0.83956165179E+02  0.88808127584E+02  0.14695153489E+03  0.81592521683E+02 0.  0.
          6    2    1    2  501    0 -0.10005090173E+02 -0.31255721951E+02  0.46127327751E+03  0.49309182652E+03  0.17114172738E+03 0.  0.
         24    2    5    5    0    0  0.38861984340E+02  0.31776721671E+02  0.27149207203E+03  0.28717903946E+03  0.79017983170E+02 0.  0.
          5    1    5    5  501    0 -0.48867074513E+02 -0.63032443622E+02  0.18978120548E+03  0.20591278706E+03  0.47000000000E+01 0. -1.
        -11    1    6    6    0    0  0.12062596639E+02  0.47255576058E+02  0.83852197534E+02  0.97004055263E+02  0.00000000000E+00 0.  1.
         12    1    6    6    0    0  0.26799387701E+02 -0.15478854387E+02  0.18763987449E+03  0.19017498420E+03  0.00000000000E+00 0. -1.
         -5    1    3    3    0  503  0.11380886118E+02 -0.52700443228E+02  0.16988294643E+02  0.56723482264E+02  0.47000000000E+01 0.  1.
         11    1    4    4    0    0 -0.89464706952E+01  0.85835868742E+02  0.35897629473E+02  0.93469115233E+02  0.00000000000E+00 0. -1.
        -12    1    4    4    0    0  0.75706747503E+01 -0.18797035635E+01  0.52910498112E+02  0.53482419654E+02  0.00000000000E+00 0.  1.
</event>
<event>
12    1  0.8053217E-002  0.2493869E+03  0.7818608E-02  0.1113893E+00
         21   -1    0    0  503  502  0.00000000000E+00  0.00000000000E+00  0.37678869603E+02  0.37678869603E+02  0.00000000000E+00 0.  1.
         21   -1    0    0  501  503 -0.00000000000E+00 -0.00000000000E+00 -0.18446072260E+04  0.18446072260E+04  0.00000000000E+00 0.  1.
          6    2    1    2  501    0  0.17965773081E+03 -0.17088937128E+01 -0.12171875584E+04  0.12424730856E+04  0.17295662919E+03 0.  0.
         24    2    3    3    0    0  0.18713849758E+03 -0.31642001730E+02 -0.87484783242E+03  0.89871367729E+03  0.79407243371E+02 0.  0.
         -6    2    1    2    0  502 -0.17965773081E+03  0.17088937128E+01 -0.58974079800E+03  0.63981301000E+03  0.17113345196E+03 0.  0.
        -24    2    5    5    0    0 -0.41315568358E+02  0.15295828585E+02 -0.35674787266E+03  0.36846277144E+03  0.80961909083E+02 0.  0.
          5    1    3    3  501    0 -0.74807667654E+01  0.29933108017E+02 -0.34233972599E+03  0.34375940834E+03  0.47000000000E+01 0. -1.
        -11    1    4    4    0    0  0.17492278423E+03 -0.44490627748E+01 -0.71414395738E+03  0.73526822756E+03  0.00000000000E+00 0.  1.
         12    1    4    4    0    0  0.12215713347E+02 -0.27192938955E+02 -0.16070387504E+03  0.16344544972E+03  0.00000000000E+00 0. -1.
         -5    1    5    5    0  502 -0.13834216246E+03 -0.13586934872E+02 -0.23299292534E+03  0.27135023856E+03  0.47000000000E+01 0.  1.
         11    1    6    6    0    0  0.15546606006E+02 -0.19842231486E+02 -0.10636426307E+03  0.10931041839E+03  0.00000000000E+00 0. -1.
        -12    1    6    6    0    0 -0.56862174364E+02  0.35138060071E+02 -0.25038360959E+03  0.25915235305E+03  0.00000000000E+00 0.  1.
</event>
<event>
12    1  0.8053217E-002  0.1947280E+03  0.7818608E-02  0.1159208E+00
         21   -1    0    0  503  502  0.00000000000E+00  0.00000000000E+00  0.37261185504E+03  0.37261185504E+03  0.00000000000E+00 0.  1.
         21   -1    0    0  501  503 -0.00000000000E+00 -0.00000000000E+00 -0.97265309906E+02  0.97265309906E+02  0.00000000000E+00 0.  1.
          6    2    1    2  501    0 -0.68059801077E+01  0.25209066445E+02  0.70445886223E+02  0.18720548431E+03  0.17146851627E+03 0.  0.
         24    2    3    3    0    0  0.51625033036E+02 -0.22867136988E+02  0.47797482245E+02  0.10808187951E+03  0.78797483333E+02 0.  0.
         -6    2    1    2    0  502  0.68059801077E+01 -0.25209066445E+02  0.20490065891E+03  0.28267168064E+03  0.19296937740E+03 0.  0.
        -24    2    5    5    0    0 -0.55043538514E+02 -0.65967581621E+02  0.14991778105E+03  0.19030379460E+03  0.79741333114E+02 0.  0.
          5    1    3    3  501    0 -0.58431013143E+02  0.48076203434E+02  0.22648403978E+02  0.79123604798E+02  0.47000000000E+01 0. -1.
        -11    1    4    4    0    0 -0.80037967934E+01 -0.32541886473E+02  0.30329054011E+02  0.45198303680E+02  0.00000000000E+00 0.  1.
         12    1    4    4    0    0  0.59628829829E+02  0.96747494843E+01  0.17468428234E+02  0.62883575831E+02  0.00000000000E+00 0. -1.
         -5    1    5    5    0  502  0.61849518622E+02  0.40758515176E+02  0.54982877861E+02  0.92367886038E+02  0.47000000000E+01 0.  1.
         13    1    6    6    0    0 -0.44764738923E+02 -0.84014051972E+01  0.24028627126E+02  0.51496022970E+02  0.00000000000E+00 0. -1.
        -14    1    6    6    0    0 -0.10278799592E+02 -0.57566176424E+02  0.12588915392E+03  0.13880777163E+03  0.00000000000E+00 0.  1.
</event>
<event>
12    1  0.8053217E-002  0.2119249E+03  0.7818608E-02  0.1140315E+00
         21   -1    0    0  501  502  0.00000000000E+00  0.00000000000E+00  0.63658496249E+03  0.63658496249E+03  0.00000000000E+00 0.  1.
         21   -1    0    0  502  503 -0.00000000000E+00 -0.00000000000E+00 -0.23469833544E+03  0.23469833544E+03  0.00000000000E+00 0. -1.
         -6    2    1    2    0  503 -0.75226105711E+02  0.96327727415E+02 -0.16368757549E+03  0.26777932519E+03  0.17313043227E+03 0.  0.
        -24    2    3    3    0    0 -0.10816431340E+03  0.53970780309E+02 -0.15300528000E+03  0.21286814298E+03  0.85380716603E+02 0.  0.
          6    2    1    2  501    0  0.75226105711E+02 -0.96327727415E+02  0.56557420254E+03  0.60350397274E+03  0.17147847820E+03 0.  0.
         24    2    5    5    0    0  0.67700955880E+02 -0.49830729982E+02  0.53250119086E+03  0.54575873266E+03  0.85020908773E+02 0.  0.
          5    1    5    5  501    0  0.75251498309E+01 -0.46496997433E+02  0.33073011675E+02  0.57745240077E+02  0.47000000000E+01 0. -1.
        -13    1    6    6    0    0  0.86606974355E+01  0.23715005097E+02  0.11082748755E+03  0.11366679877E+03  0.00000000000E+00 0.  1.
         14    1    6    6    0    0  0.59040258444E+02 -0.73545735079E+02  0.42167370332E+03  0.43209193389E+03  0.00000000000E+00 0. -1.
         -5    1    3    3    0  503  0.32938207692E+02  0.42356947106E+02 -0.10682295486E+02  0.54911182203E+02  0.47000000000E+01 0.  1.
         13    1    4    4    0    0 -0.46437236546E+02  0.64319826270E+02 -0.11478797187E+03  0.13953399398E+03  0.00000000000E+00 0. -1.
        -14    1    4    4    0    0 -0.61727076857E+02 -0.10349045961E+02 -0.38217308134E+02  0.73334149007E+02  0.00000000000E+00 0.  1.
</event>
<event>
12    1  0.8053217E-002  0.1836384E+03  0.7818608E-02  0.1164889E+00
         21   -1    0    0  501  502  0.00000000000E+00  0.00000000000E+00  0.41065129924E+03  0.41065129924E+03  0.00000000000E+00 0.  1.
         21   -1    0    0  502  503 -0.00000000000E+00 -0.00000000000E+00 -0.84472135073E+02  0.84472135073E+02  0.00000000000E+00 0.  1.
         -6    2    1    2    0  503 -0.99678972538E+00  0.63873302794E+02  0.11236388506E+03  0.21327236015E+03  0.16964275563E+03 0.  0.
        -24    2    3    3    0    0 -0.13275299183E+01  0.94001160356E+02  0.12925790082E+03  0.17841127929E+03  0.79277986667E+02 0.  0.
          6    2    1    2  501    0  0.99678972538E+00 -0.63873302794E+02  0.21381527910E+03  0.28185107416E+03  0.17216928306E+03 0.  0.
         24    2    5    5    0    0 -0.38298978384E+02  0.56023821347E+01  0.43584695796E+02  0.93777764837E+02  0.73460499858E+02 0.  0.
          5    1    5    5  501    0  0.39295768109E+02 -0.69475684929E+02  0.17023058331E+03  0.18807330933E+03  0.47000000000E+01 0. -1.
        -13    1    6    6    0    0 -0.59272671752E+02 -0.36869205695E+01  0.36766636322E+02  0.69847179946E+02  0.00000000000E+00 0.  1.
         14    1    6    6    0    0  0.20973693368E+02  0.92893027042E+01  0.68180594740E+01  0.23930584891E+02  0.00000000000E+00 0. -1.
         -5    1    3    3    0  503  0.33074019290E+00 -0.30127857562E+02 -0.16894015755E+02  0.34861080859E+02  0.47000000000E+01 0.  1.
         11    1    4    4    0    0  0.20321371407E+02  0.37336342167E+02  0.86087648687E+01  0.43371320188E+02  0.00000000000E+00 0. -1.
        -12    1    4    4    0    0 -0.21648901325E+02  0.56664818189E+02  0.12064913595E+03  0.13503995910E+03  0.00000000000E+00 0.  1.
</event>
<event>
12    1  0.8053217E-002  0.2046958E+03  0.7818608E-02  0.1146031E+00
         21   -1    0    0  501  502  0.00000000000E+00  0.00000000000E+00  0.31486387054E+03  0.31486387054E+03  0.00000000000E+00 0. -1.
         21   -1    0    0  502  503 -0.00000000000E+00 -0.00000000000E+00 -0.17780785239E+03  0.17780785239E+03  0.00000000000E+00 0.  1.
         -6    2    1    2    0  503 -0.10551114819E+03  0.31695172762E+02 -0.55756754006E+02  0.21215370790E+03  0.17252012575E+03 0.  0.
        -24    2    3    3    0    0 -0.13096430168E+03 -0.41277607411E+01 -0.65111959070E+02  0.16697898654E+03  0.80459480545E+02 0.  0.
          6    2    1    2  501    0  0.10551114819E+03 -0.31695172762E+02  0.19281277216E+03  0.28051801503E+03  0.17139546459E+03 0.  0.
         24    2    5    5    0    0  0.74088133281E+01 -0.38112225604E+02  0.33980076213E+02  0.93662022422E+02  0.78169665531E+02 0.  0.
          5    1    5    5  501    0  0.98102334861E+02  0.64170528421E+01  0.15883269594E+03  0.18685599261E+03  0.47000000000E+01 0. -1.
        -13    1    6    6    0    0  0.13362690016E+02 -0.20547321540E+02  0.58203532684E+02  0.63153821134E+02  0.00000000000E+00 0.  1.
         14    1    6    6    0    0 -0.59538766880E+01 -0.17564904064E+02 -0.24223456471E+02  0.30508201288E+02  0.00000000000E+00 0. -1.
         -5    1    3    3    0  503  0.25453153494E+02  0.35822933503E+02  0.93552050643E+01  0.45174721354E+02  0.47000000000E+01 0.  1.
         13    1    4    4    0    0  0.97038676492E+01  0.62013529473E+01 -0.10948329976E+02  0.15889863278E+02  0.00000000000E+00 0. -1.
        -14    1    4    4    0    0 -0.14066816933E+03 -0.10329113688E+02 -0.54163629094E+02  0.15108912327E+03  0.00000000000E+00 0.  1.
</event>
<event>
12    1  0.8053217E-002  0.2526982E+03  0.7818608E-02  0.1112206E+00
         21   -1    0    0  503  502  0.00000000000E+00  0.00000000000E+00  0.26599606207E+03  0.26599606207E+03  0.00000000000E+00 0. -1.
         21   -1    0    0  501  503 -0.00000000000E+00 -0.00000000000E+00 -0.33685045211E+03  0.33685045211E+03  0.00000000000E+00 0. -1.
          6    2    1    2  501    0 -0.12262827108E+03  0.13599362360E+03 -0.19976979639E+03  0.31916439865E+03  0.16860006907E+03 0.  0.
         24    2    3    3    0    0 -0.82816125991E+02  0.11209930199E+02 -0.64755218241E+02  0.13099691117E+03  0.77348427175E+02 0.  0.
         -6    2    1    2    0  502  0.12262827108E+03 -0.13599362360E+03  0.12891540634E+03  0.28368211553E+03  0.17413903109E+03 0.  0.
        -24    2    5    5    0    0  0.92088145605E+02 -0.10959873933E+03  0.16263560828E+03  0.23087557049E+03  0.79756364934E+02 0.  0.
          5    1    3    3  501    0 -0.39812145085E+02  0.12478369340E+03 -0.13501457815E+03  0.18816748749E+03  0.47000000000E+01 0. -1.
        -13    1    4    4    0    0 -0.89360025856E+02  0.10089938373E+02 -0.76130730360E+02  0.11782575772E+03  0.00000000000E+00 0.  1.
         14    1    4    4    0    0  0.65438998644E+01  0.11199918261E+01  0.11375512119E+02  0.13171153446E+02  0.00000000000E+00 0. -1.
         -5    1    5    5    0  502  0.30540125472E+02 -0.26394884271E+02 -0.33720201937E+02  0.52806545031E+02  0.47000000000E+01 0.  1.
         13    1    6    6    0    0  0.77225331946E+02 -0.88640892563E+02  0.74757483638E+02  0.13931848796E+03  0.00000000000E+00 0. -1.
        -14    1    6    6    0    0  0.14862813658E+02 -0.20957846763E+02  0.87878124644E+02  0.91557082531E+02  0.00000000000E+00 0.  1.
</event>
<event>
12    1  0.8053217E-002  0.2259208E+03  0.7818608E-02  0.1130057E+00
         21   -1    0    0  503  502  0.00000000000E+00  0.00000000000E+00  0.17599666936E+03  0.17599666936E+03  0.00000000000E+00 0. -1.
         21   -1    0    0  501  503 -0.00000000000E+00 -0.00000000000E+00 -0.38055270787E+03  0.38055270787E+03  0.00000000000E+00 0.  1.
          6    2    1    2  501    0  0.32086519214E+01  0.14354910278E+03 -0.24021452709E+03  0.32783179808E+03  0.17074550784E+03 0.  0.
         24    2    3    3    0    0 -0.32365590599E+02  0.13694362001E+03 -0.24105228341E+03  0.29133589462E+03  0.83482415156E+02 0.  0.
         -6    2    1    2    0  502 -0.32086519214E+01 -0.14354910278E+03  0.35658488584E+02  0.22871757915E+03  0.17442351575E+03 0.  0.
        -24    2    5    5    0    0  0.11472945884E+02 -0.59666626788E+01  0.45923943163E+02  0.89894142020E+02  0.76188704302E+02 0.  0.
          5    1    3    3  501    0  0.35574242520E+02  0.66054827777E+01  0.83775631967E+00  0.36495903459E+02  0.47000000000E+01 0. -1.
        -13    1    4    4    0    0  0.77463928777E+01  0.41710842916E+01 -0.72596086378E+02  0.73127261019E+02  0.00000000000E+00 0.  1.
         14    1    4    4    0    0 -0.40111983477E+02  0.13277253572E+03 -0.16845619704E+03  0.21820863360E+03  0.00000000000E+00 0. -1.
         -5    1    5    5    0  502 -0.14681597806E+02 -0.13758244011E+03 -0.10265454579E+02  0.13882343713E+03  0.47000000000E+01 0.  1.
         11    1    6    6    0    0 -0.31781065572E+02 -0.69812186801E+01  0.28486696520E+02  0.43246565433E+02  0.00000000000E+00 0. -1.
        -12    1    6    6    0    0  0.43254011457E+02  0.10145560013E+01  0.17437246643E+02  0.46647576587E+02  0.00000000000E+00 0.  1.
</event>
<event>
12    1  0.8053217E-002  0.1841277E+03  0.7818608E-02  0.1165280E+00
         21   -1    0    0  503  502  0.00000000000E+00  0.00000000000E+00  0.32618672734E+03  0.32618672734E+03  0.00000000000E+00 0. -1.
         21   -1    0    0  501  503 -0.00000000000E+00 -0.00000000000E+00 -0.10725930604E+03  0.10725930604E+03  0.00000000000E+00 0.  1.
          6    2    1    2  501    0  0.50639983098E+02 -0.39905607831E+02  0.53904280541E+02  0.18618983241E+03  0.16614486694E+03 0.  0.
         24    2    3    3    0    0  0.21804269856E+01  0.29544162504E+02  0.53927350429E+02  0.10137421056E+03  0.80566492059E+02 0.  0.
         -6    2    1    2    0  502 -0.50639983098E+02  0.39905607831E+02  0.16502314076E+03  0.24725620096E+03  0.17247065404E+03 0.  0.
        -24    2    5    5    0    0 -0.28939354463E+02 -0.31393453923E+02  0.26230740436E+02  0.89649431192E+02  0.74336623433E+02 0.  0.
          5    1    3    3  501    0  0.48459556113E+02 -0.69449770335E+02 -0.23069888075E-01  0.84815621853E+02  0.47000000000E+01 0. -1.
        -11    1    4    4    0    0  0.18747183425E+02  0.22570959655E+02 -0.12987643366E+02  0.32087131164E+02  0.00000000000E+00 0.  1.
         12    1    4    4    0    0 -0.16566756439E+02  0.69732028486E+01  0.66914993795E+02  0.69287079398E+02  0.00000000000E+00 0. -1.
         -5    1    5    5    0  502 -0.21700628635E+02  0.71299061754E+02  0.13879240032E+03  0.15760676977E+03  0.47000000000E+01 0.  1.
         13    1    6    6    0    0 -0.49488536141E+02 -0.15858994123E+01  0.14554943092E+02  0.51608881549E+02  0.00000000000E+00 0. -1.
        -14    1    6    6    0    0  0.20549181678E+02 -0.29807554511E+02  0.11675797344E+02  0.38040549643E+02  0.00000000000E+00 0.  1.
</event>
<event>
12    1  0.8053217E-002  0.1926864E+03  0.7818608E-02  0.1156250E+00
         21   -1    0    0  501  502  0.00000000000E+00  0.00000000000E+00  0.16898340293E+02  0.16898340293E+02  0.00000000000E+00 0. -1.
         21   -1    0    0  502  503 -0.00000000000E+00 -0.00000000000E+00 -0.30886899318E+04  0.30886899318E+04  0.00000000000E+00 0.  1.
         -6    2    1    2    0  503 -0.84539164865E+02 -0.13100909514E+02 -0.23771131295E+04  0.23849098232E+04  0.17265436625E+03 0.  0.
        -24    2    3    3    0    0  0.20719671996E+02 -0.24853538413E+02 -0.11088954203E+04  0.11122685560E+04  0.80282528463E+02 0.  0.
          6    2    1    2  501    0  0.84539164865E+02  0.13100909514E+02 -0.69467846205E+03  0.72067844893E+03  0.17169961235E+03 0.  0.
         24    2    5    5    0    0  0.60983919213E+02  0.29138726998E+02 -0.68061292552E+03  0.68855383989E+03  0.79399825189E+02 0.  0.
          5    1    5    5  501    0  0.23555245652E+02 -0.16037817484E+02 -0.14065536537E+02  0.32124609032E+02  0.47000000000E+01 0. -1.
        -11    1    6    6    0    0 -0.57388075431E+01 -0.16821901596E+02 -0.23227317120E+03  0.23295221902E+03  0.00000000000E+00 0.  1.
         12    1    6    6    0    0  0.66722726756E+02  0.45960628594E+02 -0.44833975432E+03  0.45560162088E+03  0.00000000000E+00 0. -1.
         -5    1    3    3    0  503 -0.10525883686E+03  0.11752628900E+02 -0.12682177092E+04  0.12726412672E+04  0.47000000000E+01 0.  1.
         13    1    4    4    0    0 -0.14241655334E+02  0.21994286254E+02 -0.24484363952E+03  0.24624171293E+03  0.00000000000E+00 0. -1.
        -14    1    4    4    0    0  0.34961327330E+02 -0.46847824667E+02 -0.86405178076E+03  0.86602684308E+03  0.00000000000E+00 0.  1.
</event>
<event>
12    1  0.8053217E-002  0.1771772E+03  0.7818608E-02  0.1171106E+00
         21   -1    0    0  503  502  0.00000000000E+00  0.00000000000E+00  0.11109614483E+04  0.11109614483E+04  0.00000000000E+00 0.  1.
         21   -1    0    0  501  503 -0.00000000000E+00 -0.00000000000E+00 -0.34114694696E+02  0.34114694696E+02  0.00000000000E+00 0.  1.
          6    2    1    2  501    0  0.36535173921E+02  0.17902457036E+02  0.29151607134E+03  0.34000716825E+03  0.17019969949E+03 0.  0.
         24    2    3    3    0    0  0.66718487937E+02  0.47518067840E+02  0.26758070087E+03  0.29119007280E+03  0.80516480398E+02 0.  0.
         -6    2    1    2    0  502 -0.36535173921E+02 -0.17902457036E+02  0.78533068230E+03  0.80506897479E+03  0.17244261858E+03 0.  0.
        -24    2    5    5    0    0 -0.58182285408E+02 -0.37898682730E+02  0.28441739401E+03  0.30326756102E+03  0.79097857502E+02 0.  0.
          5    1    3    3  501    0 -0.30183314016E+02 -0.29615610804E+02  0.23935370474E+02  0.48817095448E+02  0.47000000000E+01 0. -1.
        -11    1    4    4    0    0  0.92361100139E+01  0.46625041958E+02  0.64452373465E+02  0.80083136247E+02  0.00000000000E+00 0.  1.
         12    1    4    4    0    0  0.57482377923E+02  0.89302588155E+00  0.20312832740E+03  0.21110693655E+03  0.00000000000E+00 0. -1.
         -5    1    5    5    0  502  0.21647111487E+02  0.19996225693E+02  0.50091328829E+03  0.50180141377E+03  0.47000000000E+01 0.  1.
         11    1    6    6    0    0 -0.74667374836E+02 -0.17019983900E+02  0.18209509847E+03  0.19754372074E+03  0.00000000000E+00 0. -1.
        -12    1    6    6    0    0  0.16485089428E+02 -0.20878698830E+02  0.10232229554E+03  0.10572384028E+03  0.00000000000E+00 0.  1.
</event>
<event>
12    1  0.8053217E-002  0.2134571E+03  0.7818608E-02  0.1139402E+00
         21   -1    0    0  503  502  0.00000000000E+00  0.00000000000E+00  0.61223671954E+02  0.61223671954E+02  0.00000000000E+00 0.  1.
         21   -1    0    0  501  503 -0.00000000000E+00 -0.00000000000E+00 -0.12375897465E+04  0.12375897465E+04  0.00000000000E+00 0.  1.
          6    2    1    2  501    0  0.99296128470E+02  0.78344130288E+02 -0.10045087897E+04  0.10269380930E+04  0.17194887163E+03 0.  0.
         24    2    3    3    0    0  0.80494689228E+02  0.62591444368E+01 -0.34038928589E+03  0.35863685508E+03  0.78974400864E+02 0.  0.
         -6    2    1    2    0  502 -0.99296128470E+02 -0.78344130288E+02 -0.17185728482E+03  0.27187532540E+03  0.16847475281E+03 0.  0.
        -24    2    5    5    0    0 -0.20159228232E+02 -0.22532603728E+02 -0.14978711497E+03  0.17244314814E+03  0.79914622047E+02 0.  0.
          5    1    3    3  501    0  0.18801439242E+02  0.72084985852E+02 -0.66411950381E+03  0.66830123795E+03  0.47000000000E+01 0. -1.
        -13    1    4    4    0    0  0.42204258801E+02  0.14318573690E+02 -0.29652729310E+03  0.29985772721E+03  0.00000000000E+00 0.  1.
         14    1    4    4    0    0  0.38290430427E+02 -0.80594292536E+01 -0.43861992791E+02  0.58779127875E+02  0.00000000000E+00 0. -1.
         -5    1    5    5    0  502 -0.79136900238E+02 -0.55811526560E+02 -0.22070169852E+02  0.99432177255E+02  0.47000000000E+01 0.  1.
         13    1    6    6    0    0  0.93717668809E+01 -0.18798781849E+02 -0.13475192631E+01  0.21048515901E+02  0.00000000000E+00 0. -1.
        -14    1    6    6    0    0 -0.29530995113E+02 -0.37338218790E+01 -0.14843959570E+03  0.15139463224E+03  0.00000000000E+00 0.  1.
</event>
<event>
12    1  0.8053217E-002  0.2304410E+03  0.7818608E-02  0.1127422E+00
         21   -1    0    0  501  502  0.00000000000E+00  0.00000000000E+00  0.11368753826E+03  0.11368753826E+03  0.00000000000E+00 0.  1.
         21   -1    0    0  502  503 -0.00000000000E+00 -0.00000000000E+00 -0.24074219715E+04  0.24074219715E+04  0.00000000000E+00 0.  1.
         -6    2    1    2    0  503 -0.10998993726E+03 -0.93036300972E+02 -0.22791994304E+04  0.22902105885E+04  0.17193300077E+03 0.  0.
        -24    2    3    3    0    0 -0.13084778164E+03 -0.10911958335E+03 -0.16942893642E+04  0.17046889432E+04  0.79496653666E+02 0.  0.
          6    2    1    2  501    0  0.10998993726E+03  0.93036300972E+02 -0.14535002815E+02  0.23089892118E+03  0.17985968392E+03 0.  0.
         24    2    5    5    0    0  0.11706073430E+02 -0.18866092354E+02 -0.18824789467E+01  0.81352808293E+02  0.78241766943E+02 0.  0.
          5    1    5    5  501    0  0.98283863827E+02  0.11190239333E+03 -0.12652523869E+02  0.14954611289E+03  0.47000000000E+01 0. -1.
        -11    1    6    6    0    0  0.24700365605E+01  0.29166501525E+02  0.10152221273E+02  0.30981502362E+02  0.00000000000E+00 0.  1.
         12    1    6    6    0    0  0.92360368692E+01 -0.48032593879E+02 -0.12034700220E+02  0.50371305931E+02  0.00000000000E+00 0. -1.
         -5    1    3    3    0  503  0.20857844382E+02  0.16083282382E+02 -0.58491006616E+03  0.58552164532E+03  0.47000000000E+01 0.  1.
         11    1    4    4    0    0 -0.24072543835E+02 -0.28223865182E+01 -0.54862309802E+03  0.54915822576E+03  0.00000000000E+00 0. -1.
        -12    1    4    4    0    0 -0.10677523780E+03 -0.10629719684E+03 -0.11456662662E+04  0.11555307175E+04  0.00000000000E+00 0.  1.
</event>
<event>
12    1  0.8053217E-002  0.2025110E+03  0.7818608E-02  0.1148883E+00
         21   -1    0    0  503  502  0.00000000000E+00  0.00000000000E+00  0.80546638015E+03  0.80546638015E+03  0.00000000000E+00 0.  1.
         21   -1    0    0  501  503 -0.00000000000E+00 -0.00000000000E+00 -0.49665450165E+02  0.49665450165E+02  0.00000000000E+00 0.  1.
          6    2    1    2  501    0  0.70079359603E+02 -0.66071465508E+02  0.34358156600E+03  0.39585467487E+03  0.17139450378E+03 0.  0.
         24    2    3    3    0    0  0.33872099760E+02 -0.10887446708E+03  0.26773019190E+03  0.30141642223E+03  0.78558482742E+02 0.  0.
         -6    2    1    2    0  502 -0.70079359603E+02  0.66071465508E+02  0.41221936399E+03  0.45927715544E+03  0.17814080462E+03 0.  0.
        -24    2    5    5    0    0 -0.21849880336E+02  0.90793676470E+02  0.15606058588E+03  0.19740566026E+03  0.76767045551E+02 0.  0.
          5    1    3    3  501    0  0.36207259843E+02  0.42803001574E+02  0.75851374094E+02  0.94438252637E+02  0.47000000000E+01 0. -1.
        -11    1    4    4    0    0 -0.10911463475E+02 -0.77462768098E+02  0.19727329784E+03  0.21221756411E+03  0.00000000000E+00 0.  1.
         12    1    4    4    0    0  0.44783563235E+02 -0.31411698984E+02  0.70456894058E+02  0.89198858117E+02  0.00000000000E+00 0. -1.
         -5    1    5    5    0  502 -0.48229479267E+02 -0.24722210962E+02  0.25615877811E+03  0.26187149518E+03  0.47000000000E+01 0.  1.
         13    1    6    6    0    0  0.26699588607E+02  0.41182757649E+02  0.84434393451E+02  0.97662963076E+02  0.00000000000E+00 0. -1.
        -14    1    6    6    0    0 -0.48549468943E+02  0.49610918821E+02  0.71626192425E+02  0.99742697188E+02  0.00000000000E+00 0.  1.
</event>
<event>
12    1  0.8053217E-002  0.1745273E+03  0.7818608E-02  0.1173561E+00
         21   -1    0    0  503  502  0.00000000000E+00  0.00000000000E+00  0.36885812187E+03  0.36885812187E+03  0.00000000000E+00 0. -1.
         21   -1    0    0  501  503 -0.00000000000E+00 -0.00000000000E+00 -0.81924315140E+02  0.81924315140E+02  0.00000000000E+00 0. -1.
          6    2    1    2  501    0 -0.71149440961E+01 -0.53811341209E+01  0.14204361754E+03  0.22502477969E+03  0.17429911978E+03 0.  0.
         24    2    3    3    0    0  0.38830009909E+02 -0.52648127194E+00  0.14966136449E+02  0.89727763268E+02  0.79492385855E+02 0.  0.
         -6    2    1    2    0  502  0.71149440961E+01  0.53811341209E+01  0.14489018919E+03  0.22575765732E+03  0.17289816043E+03 0.  0.
        -24    2    5    5    0    0 -0.46834143104E+02 -0.37374438928E+02  0.10816933373E+03  0.14759721808E+03  0.80585658646E+02 0.  0.
          5    1    3    3  501    0 -0.45944954005E+02 -0.48546528490E+01  0.12707748109E+03  0.13529701642E+03  0.47000000000E+01 0. -1.
        -13    1    4    4    0    0  0.19102266352E+02  0.39434290700E+02  0.54150478794E+01  0.44150680701E+02  0.00000000000E+00 0.  1.
         14    1    4    4    0    0  0.19727743557E+02 -0.39960771972E+02  0.95510885700E+01  0.45577082567E+02  0.00000000000E+00 0. -1.
         -5    1    5    5    0  502  0.53949087200E+02  0.42755573049E+02  0.36720855460E+02  0.78160439240E+02  0.47000000000E+01 0.  1.
         13    1    6    6    0    0 -0.24046666103E+02  0.10158863059E+02 -0.12584178021E+01  0.26134809444E+02  0.00000000000E+00 0. -1.
        -14    1    6    6    0    0 -0.22787477000E+02 -0.47533301986E+02  0.10942775153E+03  0.12146240863E+03  0.00000000000E+00 0.  1.
</event>
<event>
12    1  0.8053217E-002  0.1932297E+03  0.7818608E-02  0.1156060E+00
         21   -1    0    0  501  502  0.00000000000E+00  0.00000000000E+00  0.39964751903E+03  0.39964751903E+03  0.00000000000E+00 0. -1.
         21   -1    0    0  502  503 -0.00000000000E+00 -0.00000000000E+00 -0.95312535624E+02  0.95312535624E+02  0.00000000000E+00 0. -1.
         -6    2    1    2    0  503 -0.79632868105E+02  0.26632880580E+02  0.10795131449E+03  0.21945278044E+03  0.17162555909E+03 0.  0.
        -24    2    3    3    0    0 -0.91565789450E+02 -0.33114522816E+02  0.90861912986E+02  0.15599977052E+03  0.81235310992E+02 0.  0.
          6    2    1    2  501    0  0.79632868105E+02 -0.26632880580E+02  0.19638366891E+03  0.27550727421E+03  0.17403163137E+03 0.  0.
         24    2    5    5    0    0  0.57102252763E+02 -0.73007724655E+02  0.18587904988E+03  0.22268027532E+03  0.80278818532E+02 0.  0.
          5    1    5    5  501    0  0.22530615342E+02  0.46374844075E+02  0.10504619039E+02  0.52826998890E+02  0.47000000000E+01 0. -1.
        -13    1    6    6    0    0  0.45709286053E+02 -0.59316824533E+02  0.61135229601E+02  0.96671302890E+02  0.00000000000E+00 0.  1.
         14    1    6    6    0    0  0.11392966710E+02 -0.13690900122E+02  0.12474382027E+03  0.12600897243E+03  0.00000000000E+00 0. -1.
         -5    1    3    3    0  503  0.11932921345E+02  0.59747403397E+02  0.17089401507E+02  0.63453009923E+02  0.47000000000E+01 0.  1.
         13    1    4    4    0    0 -0.94038598949E+01 -0.22928689716E+02 -0.89243337089E+01  0.26340104882E+02  0.00000000000E+00 0. -1.
        -14    1    4    4    0    0 -0.82161929555E+02 -0.10185833100E+02  0.99786246695E+02  0.12965966564E+03  0.00000000000E+00 0.  1.
</event>
<event>
12    1  0.8053217E-002  0.2270851E+03  0.7818608E-02  0.1128724E+00
         21   -1    0    0  501  502  0.00000000000E+00  0.00000000000E+00  0.13447214233E+03  0.13447214233E+03  0.00000000000E+00 0. -1.
         21   -1    0    0  502  503 -0.00000000000E+00 -0.00000000000E+00 -0.46056089355E+03  0.46056089355E+03  0.00000000000E+00 0. -1.
         -6    2    1    2    0  503 -0.77153547731E+02 -0.12702412197E+03 -0.28484694070E+03  0.36423329823E+03  0.17158181261E+03 0.  0.
        -24    2    3    3    0    0 -0.32529683375E+02 -0.62996007264E+02 -0.26084924933E+03  0.28244779869E+03  0.81900860061E+02 0.  0.
          6    2    1    2  501    0  0.77153547731E+02  0.12702412197E+03 -0.41241810523E+02  0.23079973765E+03  0.17169692623E+03 0.  0.
         24    2    5    5    0    0 -0.79332200936E+00  0.84676381755E+02 -0.73461929642E+02  0.13630491409E+03  0.77534866431E+02 0.  0.
          5    1    5    5  501    0  0.77946869741E+02  0.42347740215E+02  0.32220119120E+02  0.94494823561E+02  0.47000000000E+01 0. -1.
        -13    1    6    6    0    0 -0.16115610744E+02 -0.22971280984E+01  0.61532823176E+01  0.17402660441E+02  0.00000000000E+00 0.  1.
         14    1    6    6    0    0  0.15322288735E+02  0.86973509853E+02 -0.79615211960E+02  0.11890225365E+03  0.00000000000E+00 0. -1.
         -5    1    3    3    0  503 -0.44623864356E+02 -0.64028114707E+02 -0.23997691372E+02  0.81785499535E+02  0.47000000000E+01 0.  1.
         11    1    4    4    0    0 -0.42958913220E+02 -0.39567105428E+02 -0.76105912257E+02  0.95932965853E+02  0.00000000000E+00 0. -1.
        -12    1    4    4    0    0  0.10429229844E+02 -0.23428901836E+02 -0.18474333707E+03  0.18651483284E+03  0.00000000000E+00 0.  1.
</event>
<event>
12    1  0.8053217E-002  0.2634313E+03  0.7818608E-02  0.1105153E+00
         21   -1    0    0  503  502  0.00000000000E+00  0.00000000000E+00  0.16879898150E+03  0.16879898150E+03  0.00000000000E+00 0.  1.
         21   -1    0    0  501  503 -0.00000000000E+00 -0.00000000000E+00 -0.51558209703E+03  0.51558209703E+03  0.00000000000E+00 0.  1.
          6    2    1    2  501    0 -0.75222044668E+02  0.18498704885E+03 -0.32774397854E+03  0.42026263889E+03  0.17124837498E+03 0.  0.
         24    2    3    3    0    0 -0.10764374376E+03  0.18716269780E+03 -0.28432269725E+03  0.36582554043E+03  0.79824049258E+02 0.  0.
         -6    2    1    2    0  502  0.75222044668E+02 -0.18498704885E+03 -0.19039136992E+02  0.26411843964E+03  0.17180656908E+03 0.  0.
        -24    2    5    5    0    0 -0.11368810968E+02 -0.12155404055E+03 -0.46636780844E+02  0.15318853940E+03  0.79919363362E+02 0.  0.
          5    1    3    3  501    0  0.32421699088E+02 -0.21756489518E+01 -0.43421281283E+02  0.54437098457E+02  0.47000000000E+01 0. -1.
        -11    1    4    4    0    0 -0.46228160286E+02  0.39966168153E+02 -0.36701169277E+02  0.71283330636E+02  0.00000000000E+00 0.  1.
         12    1    4    4    0    0 -0.61415583470E+02  0.14719652964E+03 -0.24762152798E+03  0.29454220979E+03  0.00000000000E+00 0. -1.
         -5    1    5    5    0  502  0.86590855636E+02 -0.63433008295E+02  0.27597643852E+02  0.11092990024E+03  0.47000000000E+01 0.  1.
         11    1    6    6    0    0 -0.19853197333E+02 -0.20485602566E+02 -0.43121502647E+02  0.51703707289E+02  0.00000000000E+00 0. -1.
        -12    1    6    6    0    0  0.84843863655E+01 -0.10106843798E+03 -0.35152781967E+01  0.10148483212E+03  0.00000000000E+00 0.  1.
</event>
<event>
12    1  0.8053217E-002  0.1974105E+03  0.7818608E-02  0.1152239E+00
         21   -1    0    0  503  502  0.00000000000E+00  0.00000000000E+00  0.10692944122E+03  0.10692944122E+03  0.00000000000E+00 0.  1.
         21   -1    0    0  501  503 -0.00000000000E+00 -0.00000000000E+00 -0.38663670848E+03  0.38663670848E+03  0.00000000000E+00 0. -1.
          6    2    1    2  501    0 -0.29410881370E+02  0.90779116204E+02 -0.77908047212E+02  0.21222765321E+03  0.17281511821E+03 0.  0.
         24    2    3    3    0    0 -0.69498643220E+02  0.92353589440E+02 -0.21850815350E+02  0.14313343594E+03  0.81550447331E+02 0.  0.
         -6    2    1    2    0  502  0.29410881370E+02 -0.90779116204E+02 -0.20179922004E+03  0.28133849650E+03  0.17123836170E+03 0.  0.
        -24    2    5    5    0    0  0.21797640069E+02 -0.12664539331E+03 -0.19511725299E+03  0.24377401912E+03  0.69576125394E+02 0.  0.
          5    1    3    3  501    0  0.40087761850E+02 -0.15744732356E+01 -0.56057231862E+02  0.69094217270E+02  0.47000000000E+01 0. -1.
        -11    1    4    4    0    0 -0.61876343970E+02  0.66393534209E+02 -0.50390457814E+02  0.10380742539E+03  0.00000000000E+00 0.  1.
         12    1    4    4    0    0 -0.76222992502E+01  0.25960055231E+02  0.28539642464E+02  0.39326010545E+02  0.00000000000E+00 0. -1.
         -5    1    5    5    0  502  0.76132413010E+01  0.35866277107E+02 -0.66819670515E+01  0.37564477373E+02  0.47000000000E+01 0.  1.
         13    1    6    6    0    0  0.22181183499E+02 -0.75393701560E+02 -0.16871359450E+03  0.18611956401E+03  0.00000000000E+00 0. -1.
        -14    1    6    6    0    0 -0.38354342988E+00 -0.51251691752E+02 -0.26403658487E+02  0.57654455114E+02  0.00000000000E+00 0.  1.
</event>
<event>
12    1  0.8053217E-002  0.2517457E+03  0.7818608E-02  0.1112331E+00
         21   -1    0    0  503  502  0.00000000000E+00  0.00000000000E+00  0.95092138041E+02  0.95092138041E+02  0.00000000000E+00 0. -1.
         21   -1    0    0  501  503 -0.00000000000E+00 -0.00000000000E+00 -0.74919539946E+03  0.74919539946E+03  0.00000000000E+00 0.  1.
          6    2    1    2  501    0  0.12172292647E+03 -0.13719562187E+03 -0.18546877726E+03  0.31268922252E+03  0.17244353585E+03 0.  0.
         24    2    3    3    0    0  0.10051241798E+03 -0.11882943388E+02 -0.11703084261E+03  0.16826279157E+03  0.66122601237E+02 0.  0.
         -6    2    1    2    0  502 -0.12172292647E+03  0.13719562187E+03 -0.46863448417E+03  0.53159831498E+03  0.17128741710E+03 0.  0.
        -24    2    5    5    0    0 -0.13006627381E+03  0.94117042555E+02 -0.24762185037E+03  0.30622296199E+03  0.81735355786E+02 0.  0.
          5    1    3    3  501    0  0.21210508492E+02 -0.12531267848E+03 -0.68437934642E+02  0.14442643095E+03  0.47000000000E+01 0. -1.
        -11    1    4    4    0    0  0.66873959255E+01  0.10963868642E+02  0.39794376036E+01  0.13444835570E+02  0.00000000000E+00 0.  1.
         12    1    4    4    0    0  0.93825022050E+02 -0.22846812030E+02 -0.12101028022E+03  0.15481795600E+03  0.00000000000E+00 0. -1.
         -5    1    5    5    0  502  0.83433473445E+01  0.43078579311E+02 -0.22101263380E+03  0.22537535300E+03  0.47000000000E+01 0.  1.
         13    1    6    6    0    0  0.11671364289E+02  0.54672504562E+01 -0.20316963406E+02  0.24060144928E+02  0.00000000000E+00 0. -1.
        -14    1    6    6    0    0 -0.14173763810E+03  0.88649792099E+02 -0.22730488696E+03  0.28216281706E+03  0.00000000000E+00 0.  1.
</event>
<event>
12    1  0.8053217E-002  0.4071610E+03  0.7818608E-02  0.1041345E+00
         21   -1    0    0  501  502  0.00000000000E+00  0.00000000000E+00  0.12412238359E+03  0.12412238359E+03  0.00000000000E+00 0.  1.
         21   -1    0    0  502  503 -0.00000000000E+00 -0.00000000000E+00 -0.13370975134E+04  0.13370975134E+04  0.00000000000E+00 0.  1.
         -6    2    1    2    0  503 -0.11771942315E+03 -0.34961946720E+03 -0.57740879455E+03  0.70652743839E+03  0.17230342639E+03 0.  0.
        -24    2    3    3    0    0 -0.12873981430E+02 -0.85458788723E+02 -0.12306232945E+03  0.17059252531E+03  0.80551404683E+02 0.  0.
          6    2    1    2  501    0  0.11771942315E+03  0.34961946720E+03 -0.63556633529E+03  0.75469245864E+03  0.17182696567E+03 0.  0.
         24    2    5    5    0    0  0.23906731692E+02  0.13864940960E+03 -0.16855331698E+03  0.23370067793E+03  0.80066195114E+02 0.  0.
          5    1    5    5  501    0  0.93812691462E+02  0.21097005760E+03 -0.46701301832E+03  0.52099178070E+03  0.47000000000E+01 0. -1.
        -11    1    6    6    0    0  0.67451784905E+01  0.13283398951E+03 -0.16962041366E+03  0.21554918448E+03  0.00000000000E+00 0.  1.
         12    1    6    6    0    0  0.17161553202E+02  0.58154200891E+01  0.10670966814E+01  0.18151493449E+02  0.00000000000E+00 0. -1.
         -5    1    3    3    0  503 -0.10484544172E+03 -0.26416067847E+03 -0.45434646510E+03  0.53593491308E+03  0.47000000000E+01 0.  1.
         11    1    4    4    0    0 -0.21948566070E+02 -0.84218947563E+02 -0.57312693092E+02  0.10420803938E+03  0.00000000000E+00 0. -1.
        -12    1    4    4    0    0  0.90745846404E+01 -0.12398411598E+01 -0.65749636354E+02  0.66384485938E+02  0.00000000000E+00 0.  1.
</event>
<event>
12    1  0.8053217E-002  0.2122348E+03  0.7818608E-02  0.1139972E+00
         21   -1    0    0  501  502  0.00000000000E+00  0.00000000000E+00  0.50629386898E+03  0.50629386898E+03  0.00000000000E+00 0.  1.
         21   -1    0    0  502  503 -0.00000000000E+00 -0.00000000000E+00 -0.24493177591E+03  0.24493177591E+03  0.00000000000E+00 0.  1.
         -6    2    1    2    0  503 -0.32274691880E+02 -0.11781213208E+03 -0.16947793898E+03  0.27094786601E+03  0.17253585161E+03 0.  0.
        -24    2    3    3    0    0 -0.68606841590E+02 -0.31049828664E+02 -0.12875701109E+03  0.16834179228E+03  0.78035892711E+02 0.  0.
          6    2    1    2  501    0  0.32274691880E+02  0.11781213208E+03  0.43084003205E+03  0.48027777889E+03  0.17355764885E+03 0.  0.
         24    2    5    5    0    0 -0.25018904638E+01  0.14281869338E+03  0.37893527445E+03  0.41281717817E+03  0.80141385927E+02 0.  0.
          5    1    5    5  501    0  0.34776582344E+02 -0.25006561292E+02  0.51904757604E+02  0.67460600717E+02  0.47000000000E+01 0. -1.
        -13    1    6    6    0    0  0.33140836357E+02  0.39650456507E+02  0.16075176630E+03  0.16885379505E+03  0.00000000000E+00 0.  1.
         14    1    6    6    0    0 -0.35642726821E+02  0.10316823687E+03  0.21818350815E+03  0.24396338312E+03  0.00000000000E+00 0. -1.
         -5    1    3    3    0  503  0.36332149710E+02 -0.86762303420E+02 -0.40720927889E+02  0.10260607373E+03  0.47000000000E+01 0.  1.
         13    1    4    4    0    0 -0.59389020311E+02  0.17351780569E+01 -0.35856371420E+02  0.69395575852E+02  0.00000000000E+00 0. -1.
        -14    1    4    4    0    0 -0.92178212790E+01 -0.32785006721E+02 -0.92900639672E+02  0.98946216433E+02  0.00000000000E+00 0.  1.
</event>
<event>
12    1  0.8053217E-002  0.2140945E+03  0.7818608E-02  0.1138676E+00
         21   -1    0    0  501  502  0.00000000000E+00  0.00000000000E+00  0.40207990344E+02  0.40207990344E+02  0.00000000000E+00 0. -1.
         21   -1    0    0  502  503 -0.00000000000E+00 -0.00000000000E+00 -0.19785748879E+04  0.19785748879E+04  0.00000000000E+00 0. -1.
         -6    2    1    2    0  503 -0.90187692065E+02 -0.87576907362E+02 -0.31079284776E+03  0.37739719404E+03  0.17330006736E+03 0.  0.
        -24    2    3    3    0    0 -0.12966174354E+03 -0.53100646727E+02 -0.22379782311E+03  0.27572597097E+03  0.79419764649E+02 0.  0.
          6    2    1    2  501    0  0.90187692065E+02  0.87576907362E+02 -0.16275740498E+04  0.16413856842E+04  0.17130715759E+03 0.  0.
         24    2    5    5    0    0  0.56268454876E+02  0.74144383624E+02 -0.56198584121E+03  0.57516278648E+03  0.79502305627E+02 0.  0.
          5    1    5    5  501    0  0.33919237189E+02  0.13432523738E+02 -0.10655882086E+04  0.10662228977E+04  0.47000000000E+01 0. -1.
        -11    1    6    6    0    0 -0.16215036890E+02  0.37954797895E+02 -0.17778075038E+03  0.18250887460E+03  0.00000000000E+00 0.  1.
         12    1    6    6    0    0  0.72483491766E+02  0.36189585729E+02 -0.38420509083E+03  0.39265391188E+03  0.00000000000E+00 0. -1.
         -5    1    3    3    0  503  0.39474051472E+02 -0.34476260635E+02 -0.86995024655E+02  0.10167122308E+03  0.47000000000E+01 0.  1.
         11    1    4    4    0    0 -0.75860904988E+02 -0.64314525978E+02 -0.17920600307E+03  0.20495371841E+03  0.00000000000E+00 0. -1.
        -12    1    4    4    0    0 -0.53800838549E+02  0.11213879251E+02 -0.44591820045E+02  0.70772252552E+02  0.00000000000E+00 0.  1.
</event>
<event>
12    1  0.8053217E-002  0.1958151E+03  0.7818608E-02  0.1153560E+00
         21   -1    0    0  501  502  0.00000000000E+00  0.00000000000E+00  0.12002863926E+03  0.12002863926E+03  0.00000000000E+00 0.  1.
         21   -1    0    0  502  503 -0.00000000000E+00 -0.00000000000E+00 -0.40248691654E+03  0.40248691654E+03  0.00000000000E+00 0.  1.
         -6    2    1    2    0  503  0.39706178123E+02 -0.83578299852E+02 -0.26086137273E+03  0.32551308073E+03  0.17131315522E+03 0.  0.
        -24    2    3    3    0    0  0.12938248701E+02  0.20117806501E+02 -0.79391356615E+02  0.11474576526E+03  0.79318842162E+02 0.  0.
          6    2    1    2  501    0 -0.39706178123E+02  0.83578299852E+02 -0.21596904549E+02  0.19700247507E+03  0.17257356724E+03 0.  0.
         24    2    5    5    0    0 -0.77346633506E+02  0.83608529599E+02 -0.52812819085E+02  0.14787683904E+03  0.78137556446E+02 0.  0.
          5    1    5    5  501    0  0.37640455383E+02 -0.30229746814E-01  0.31215914536E+02  0.49125636033E+02  0.47000000000E+01 0. -1.
        -13    1    6    6    0    0 -0.72589878638E+02  0.59853212824E+02 -0.49283254367E+01  0.94212451181E+02  0.00000000000E+00 0.  1.
         14    1    6    6    0    0 -0.47567548687E+01  0.23755316775E+02 -0.47884493649E+02  0.53664387856E+02  0.00000000000E+00 0. -1.
         -5    1    3    3    0  503  0.26767929422E+02 -0.10369610635E+03 -0.18147001612E+03  0.21076731547E+03  0.47000000000E+01 0.  1.
         13    1    4    4    0    0  0.25602447202E+02  0.32591385223E+01  0.62432633514E+01  0.26553448437E+02  0.00000000000E+00 0. -1.
        -14    1    4    4    0    0 -0.12664198501E+02  0.16858667979E+02 -0.85634619967E+02  0.88192316822E+02  0.00000000000E+00 0.  1.
</event>
<event>
12    1  0.8053217E-002  0.1792908E+03  0.7818608E-02  0.1169042E+00
         21   -1    0    0  501  502  0.00000000000E+00  0.00000000000E+00  0.20886315772E+03  0.20886315772E+03  0.00000000000E+00 0. -1.
         21   -1    0    0  502  503 -0.00000000000E+00 -0.00000000000E+00 -0.18503989331E+03  0.18503989331E+03  0.00000000000E+00 0. -1.
         -6    2    1    2    0  503 -0.23208751894E+02 -0.40976963666E+02 -0.71394738370E+02  0.19089647023E+03  0.17066486446E+03 0.  0.
        -24    2    3    3    0    0  0.34456337103E+02  0.19556230116E+02 -0.60562485578E+02  0.10646331478E+03  0.78082888209E+02 0.  0.
          6    2    1    2  501    0  0.23208751894E+02  0.40976963666E+02  0.95218002776E+02  0.20300658080E+03  0.17299550884E+03 0.  0.
         24    2    5    5    0    0 -0.54610260923E+02  0.20518990527E+02  0.64189824952E+02  0.11664012180E+03  0.77982528913E+02 0.  0.
          5    1    5    5  501    0  0.77819012817E+02  0.20457973139E+02  0.31028177824E+02  0.86366458998E+02  0.47000000000E+01 0. -1.
        -11    1    6    6    0    0 -0.47694024825E+02 -0.11550673495E+02  0.54694950952E+01  0.49376648720E+02  0.00000000000E+00 0.  1.
         12    1    6    6    0    0 -0.69162360975E+01  0.32069664022E+02  0.58720329856E+02  0.67263473079E+02  0.00000000000E+00 0. -1.
         -5    1    3    3    0  503 -0.57665088997E+02 -0.60533193783E+02 -0.10832252792E+02  0.84433155449E+02  0.47000000000E+01 0.  1.
         13    1    4    4    0    0  0.40522631498E+02 -0.15181601637E+02 -0.93295796023E+01  0.44267434389E+02  0.00000000000E+00 0. -1.
        -14    1    4    4    0    0 -0.60662943952E+01  0.34737831753E+02 -0.51232905976E+02  0.62195880389E+02  0.00000000000E+00 0.  1.
</event>
<event>
12    1  0.8053217E-002  0.1850746E+03  0.7818608E-02  0.1163074E+00
         21   -1    0    0  501  502  0.00000000000E+00  0.00000000000E+00  0.32033309607E+03  0.32033309607E+03  0.00000000000E+00 0.  1.
         21   -1    0    0  502  503 -0.00000000000E+00 -0.00000000000E+00 -0.10876575905E+03  0.10876575905E+03  0.00000000000E+00 0.  1.
         -6    2    1    2    0  503  0.68064446559E+02 -0.58888097562E+01  0.76076903088E+02  0.19972960594E+03  0.17157148172E+03 0.  0.
        -24    2    3    3    0    0  0.84420867696E+02  0.28441562075E+02  0.99850961972E+02  0.15463633794E+03  0.77500819671E+02 0.  0.
          6    2    1    2  501    0 -0.68064446559E+02  0.58888097562E+01  0.13549043393E+03  0.22936924918E+03  0.17200333664E+03 0.  0.
         24    2    5    5    0    0 -0.95434606377E+02  0.58444423859E+00  0.43375186417E+02  0.13301277163E+03  0.81871148456E+02 0.  0.
          5    1    5    5  501    0  0.27370159818E+02  0.53043655176E+01  0.92115247515E+02  0.96356477555E+02  0.47000000000E+01 0. -1.
        -11    1    6    6    0    0  0.12652586513E+02 -0.10681740713E+02  0.17897094694E+01  0.16655046987E+02  0.00000000000E+00 0.  1.
         12    1    6    6    0    0 -0.10808719289E+03  0.11266184951E+02  0.41585476948E+02  0.11635772464E+03  0.00000000000E+00 0. -1.
         -5    1    3    3    0  503 -0.16356421137E+02 -0.34330371831E+02 -0.23774058884E+02  0.45093267993E+02  0.47000000000E+01 0.  1.
         13    1    4    4    0    0  0.11578158037E+02 -0.24323074693E+02  0.14280283632E+02  0.30489214595E+02  0.00000000000E+00 0. -1.
        -14    1    4    4    0    0  0.72842709660E+02  0.52764636768E+02  0.85570678341E+02  0.12414712335E+03  0.00000000000E+00 0.  1.
</event>
<event>
12    1  0.8053217E-002  0.2250564E+03  0.7818608E-02  0.1130205E+00
         21   -1    0    0  503  502  0.00000000000E+00  0.00000000000E+00  0.15769652040E+03  0.15769652040E+03  0.00000000000E+00 0.  1.
         21   -1    0    0  501  503 -0.00000000000E+00 -0.00000000000E+00 -0.87885325942E+03  0.87885325942E+03  0.00000000000E+00 0. -1.
          6    2    1    2  501    0  0.61604240959E+02 -0.13078832110E+03 -0.77347258847E+03  0.80549276735E+03  0.17221523073E+03 0.  0.
         24    2    3    3    0    0 -0.28390071456E+02 -0.75517776641E+02 -0.49557218307E+03  0.50816376663E+03  0.78292364424E+02 0.  0.
         -6    2    1    2    0  502 -0.61604240959E+02  0.13078832110E+03  0.52315849459E+02  0.23105701246E+03  0.17248109306E+03 0.  0.
        -24    2    5    5    0    0 -0.74339762986E+02  0.36963130937E+02 -0.13141788164E+02  0.11585218551E+03  0.79726713728E+02 0.  0.
          5    1    3    3  501    0  0.89994312415E+02 -0.55270544459E+02 -0.27790040540E+03  0.29732900073E+03  0.47000000000E+01 0. -1.
        -11    1    4    4    0    0  0.77861376508E+01  0.13215027658E+02 -0.45897552805E+02  0.48392625978E+02  0.00000000000E+00 0.  1.
         12    1    4    4    0    0 -0.36176209107E+02 -0.88732804299E+02 -0.44967463027E+03  0.45977114065E+03  0.00000000000E+00 0. -1.
         -5    1    5    5    0  502  0.12735522028E+02  0.93825190162E+02  0.65457637622E+02  0.11520482695E+03  0.47000000000E+01 0.  1.
         11    1    6    6    0    0 -0.19603517925E+01 -0.17889488995E+02  0.11987304460E+02  0.21623419338E+02  0.00000000000E+00 0. -1.
        -12    1    6    6    0    0 -0.72379411194E+02  0.54852619933E+02 -0.25129092623E+02  0.94228766172E+02  0.00000000000E+00 0.  1.
</event>
<event>
12    1  0.8053217E-002  0.2087173E+03  0.7818608E-02  0.1142659E+00
         21   -1    0    0  503  502  0.00000000000E+00  0.00000000000E+00  0.32375457095E+02  0.32375457095E+02  0.00000000000E+00 0.  1.
         21   -1    0    0  501  503 -0.00000000000E+00 -0.00000000000E+00 -0.14580936278E+04  0.14580936278E+04  0.00000000000E+00 0.  1.
          6    2    1    2  501    0  0.11668546995E+03 -0.85911388525E+01 -0.50308588990E+03  0.54452339290E+03  0.17239781388E+03 0.  0.
         24    2    3    3    0    0  0.95383192662E+02  0.54801905505E+02 -0.27475891898E+03  0.30655751143E+03  0.79898948485E+02 0.  0.
         -6    2    1    2    0  502 -0.11668546995E+03  0.85911388525E+01 -0.92263228079E+03  0.94594569198E+03  0.17283986826E+03 0.  0.
        -24    2    5    5    0    0 -0.89766933166E+01  0.36390434620E+02 -0.55179783696E+03  0.55875806803E+03  0.79529120215E+02 0.  0.
          5    1    3    3  501    0  0.21302277293E+02 -0.63393044358E+02 -0.22832697093E+03  0.23796588147E+03  0.47000000000E+01 0. -1.
        -13    1    4    4    0    0  0.17555363101E+02  0.43641243071E+02 -0.50971439754E+02  0.69360194211E+02  0.00000000000E+00 0.  1.
         14    1    4    4    0    0  0.77827829561E+02  0.11160662434E+02 -0.22378747922E+03  0.23719731722E+03  0.00000000000E+00 0. -1.
         -5    1    5    5    0  502 -0.10770877664E+03 -0.27799295767E+02 -0.37083444383E+03  0.38718762395E+03  0.47000000000E+01 0.  1.
         13    1    6    6    0    0  0.34206774832E+01  0.37255044486E+02 -0.99679621817E+02  0.10646908650E+03  0.00000000000E+00 0. -1.
        -14    1    6    6    0    0 -0.12397370800E+02 -0.86460986673E+00 -0.45211821514E+03  0.45228898153E+03  0.00000000000E+00 0.  1.
</event>
<event>
12    1  0.8053217E-002  0.1955003E+03  0.7818608E-02  0.1153778E+00
         21   -1    0    0  501  502  0.00000000000E+00  0.00000000000E+00  0.16258680457E+04  0.16258680457E+04  0.00000000000E+00 0. -1.
         21   -1    0    0  502  503 -0.00000000000E+00 -0.00000000000E+00 -0.40810643963E+02  0.40810643963E+02  0.00000000000E+00 0. -1.
         -6    2    1    2    0  503 -0.88699908732E+02  0.26446815634E+02  0.24730186411E+03  0.31471335575E+03  0.17122843347E+03 0.  0.
        -24    2    3    3    0    0 -0.12843184891E+03  0.24862007468E+02  0.20483701290E+03  0.25634819254E+03  0.81506654565E+02 0.  0.
          6    2    1    2  501    0  0.88699908732E+02 -0.26446815634E+02  0.13377555376E+04  0.13519653339E+04  0.17220127117E+03 0.  0.
         24    2    5    5    0    0  0.91562715186E+02  0.12530268482E+02  0.56103651254E+03  0.57424948434E+03  0.80372653454E+02 0.  0.
          5    1    5    5  501    0 -0.28628064536E+01 -0.38977084116E+02  0.77671902509E+03  0.77771584957E+03  0.47000000000E+01 0. -1.
        -11    1    6    6    0    0  0.22355440380E+02  0.41400986883E+02  0.24037329450E+03  0.24493494674E+03  0.00000000000E+00 0.  1.
         12    1    6    6    0    0  0.69207274805E+02 -0.28870718401E+02  0.32066321804E+03  0.32931453760E+03  0.00000000000E+00 0. -1.
         -5    1    3    3    0  503  0.39731940178E+02  0.15848081665E+01  0.42464851218E+02  0.58365163207E+02  0.47000000000E+01 0.  1.
         13    1    4    4    0    0 -0.18600354079E+02  0.30209963842E+01 -0.41083175347E+01  0.19286727664E+02  0.00000000000E+00 0. -1.
        -14    1    4    4    0    0 -0.10983149483E+03  0.21841011084E+02  0.20894533043E+03  0.23706146488E+03  0.00000000000E+00 0.  1.
</event>
<event>
12    1  0.8053217E-002  0.1938516E+03  0.7818608E-02  0.1155150E+00
         21   -1    0    0  501  502  0.00000000000E+00  0.00000000000E+00  0.26931682719E+03  0.26931682719E+03  0.00000000000E+00 0.  1.
         21   -1    0    0  502  503 -0.00000000000E+00 -0.00000000000E+00 -0.19581719853E+03  0.19581719853E+03  0.00000000000E+00 0.  1.
         -6    2    1    2    0  503 -0.58933188461E+02  0.64655282997E+02 -0.88396324042E+02  0.21256969998E+03  0.17239066368E+03 0.  0.
        -24    2    3    3    0    0 -0.91315419234E+02  0.87663155841E+02 -0.85203892857E+02  0.17244174589E+03  0.80331299535E+02 0.  0.
          6    2    1    2  501    0  0.58933188461E+02 -0.64655282997E+02  0.16189595270E+03  0.25256432574E+03  0.17298847595E+03 0.  0.
         24    2    5    5    0    0  0.53922521128E+02 -0.10940883655E+03  0.12910723992E+03  0.19666104293E+03  0.84433136912E+02 0.  0.
          5    1    5    5  501    0  0.50106673333E+01  0.44753553549E+02  0.32788712785E+02  0.55903282807E+02  0.47000000000E+01 0. -1.
        -11    1    6    6    0    0  0.60327790784E+02 -0.27919340473E+02  0.62030645593E+02  0.90921575580E+02  0.00000000000E+00 0.  1.
         12    1    6    6    0    0 -0.64052696561E+01 -0.81489496073E+02  0.67076594322E+02  0.10573946735E+03  0.00000000000E+00 0. -1.
         -5    1    3    3    0  503  0.32382230773E+02 -0.23007872844E+02 -0.31924311855E+01  0.40127954091E+02  0.47000000000E+01 0.  1.
         13    1    4    4    0    0 -0.87696488615E+01  0.52430003918E+01  0.15347145261E+02  0.18437208626E+02  0.00000000000E+00 0. -1.
        -14    1    4    4    0    0 -0.82545770373E+02  0.82420155450E+02 -0.10055103812E+03  0.15400453726E+03  0.00000000000E+00 0.  1.
</event>
<event>
12    1  0.8053217E-002  0.2415495E+03  0.7818608E-02  0.1119098E+00
         21   -1    0    0  501  502  0.00000000000E+00  0.00000000000E+00  0.18343949121E+03  0.18343949121E+03  0.00000000000E+00 0.  1.
         21   -1    0    0  502  503 -0.00000000000E+00 -0.00000000000E+00 -0.49570196376E+03  0.49570196376E+03  0.00000000000E+00 0. -1.
         -6    2    1    2    0  503  0.13642950592E+03  0.10161478226E+03 -0.36049574163E+03  0.43282338473E+03  0.16864260606E+03 0.  0.
        -24    2    3    3    0    0  0.15517003811E+03  0.52369605026E+02 -0.24947851243E+03  0.30984692273E+03  0.83338293144E+02 0.  0.
          6    2    1    2  501    0 -0.13642950592E+03 -0.10161478226E+03  0.48233269088E+02  0.24631807024E+03  0.17148635346E+03 0.  0.
         24    2    5    5    0    0 -0.47366614150E+02 -0.96860709112E+02  0.75842663515E+02  0.15283454997E+03  0.77334965891E+02 0.  0.
          5    1    5    5  501    0 -0.89062891768E+02 -0.47540731447E+01 -0.27609394427E+02  0.93483520270E+02  0.47000000000E+01 0. -1.
        -13    1    6    6    0    0 -0.36561234484E+02 -0.76174027575E+02  0.91643245531E+02  0.12465027395E+03  0.00000000000E+00 0.  1.
         14    1    6    6    0    0 -0.10805379666E+02 -0.20686681537E+02 -0.15800582016E+02  0.28184276020E+02  0.00000000000E+00 0. -1.
         -5    1    3    3    0  503 -0.18740532188E+02  0.49245177230E+02 -0.11101722920E+03  0.12297646200E+03  0.47000000000E+01 0.  1.
         11    1    4    4    0    0  0.97292116326E+02  0.72504323589E+02 -0.14899229498E+03  0.19214925658E+03  0.00000000000E+00 0. -1.
        -12    1    4    4    0    0  0.57877921780E+02 -0.20134718563E+02 -0.10048621745E+03  0.11769766616E+03  0.00000000000E+00 0.  1.
</event>
<event>
12    1  0.8053217E-002  0.2208909E+03  0.7818608E-02  0.1133384E+00
         21   -1    0    0  503  502  0.00000000000E+00  0.00000000000E+00  0.23793662966E+03  0.23793662966E+03  0.00000000000E+00 0. -1.
         21   -1    0    0  501  503 -0.00000000000E+00 -0.00000000000E+00 -0.24885746375E+03  0.24885746375E+03  0.00000000000E+00 0.  1.
          6    2    1    2  501    0 -0.10727316512E+03 -0.86646657149E+02 -0.10851469599E+03  0.24610616776E+03  0.17256196398E+03 0.  0.
         24    2    3    3    0    0 -0.57219829172E+02 -0.11029062696E+03 -0.30425031788E+02  0.15027058249E+03  0.78850708026E+02 0.  0.
         -6    2    1    2    0  502  0.10727316512E+03  0.86646657149E+02  0.97593861898E+02  0.24068792566E+03  0.17143786200E+03 0.  0.
        -24    2    5    5    0    0  0.46983858935E+02 -0.32622642630E+01  0.95498942053E+02  0.13231406682E+03  0.78541956794E+02 0.  0.
          5    1    3    3  501    0 -0.50053335952E+02  0.23643969814E+02 -0.78089664200E+02  0.95835585267E+02  0.47000000000E+01 0. -1.
        -11    1    4    4    0    0 -0.37532473750E+02 -0.43559536113E+02 -0.51899137032E+02  0.77457344370E+02  0.00000000000E+00 0.  1.
         12    1    4    4    0    0 -0.19687355422E+02 -0.66731090850E+02  0.21474105244E+02  0.72813238120E+02  0.00000000000E+00 0. -1.
         -5    1    5    5    0  502  0.60289306189E+02  0.89908921412E+02  0.20949198451E+01  0.10837385884E+03  0.47000000000E+01 0.  1.
         13    1    6    6    0    0 -0.13169560412E+02 -0.24410079582E+02  0.31551563824E+02  0.42009409498E+02  0.00000000000E+00 0. -1.
        -14    1    6    6    0    0  0.60153419347E+02  0.21147815319E+02  0.63947378229E+02  0.90304657323E+02  0.00000000000E+00 0.  1.
</event>
<event>
12    1  0.8053217E-002  0.1741127E+03  0.7818608E-02  0.1174171E+00
         21   -1    0    0  503  502  0.00000000000E+00  0.00000000000E+00  0.57421396173E+03  0.57421396173E+03  0.00000000000E+00 0. -1.
         21   -1    0    0  501  503 -0.00000000000E+00 -0.00000000000E+00 -0.35851616084E+03  0.35851616084E+03  0.00000000000E+00 0. -1.
          6    2    1    2  501    0  0.18281809884E+02  0.27252861684E+01 -0.32316911516E+03  0.36708789283E+03  0.17312883154E+03 0.  0.
         24    2    3    3    0    0  0.32898471634E+02  0.63306543829E+02 -0.14558092440E+03  0.17882374043E+03  0.75459238432E+02 0.  0.
         -6    2    1    2    0  502 -0.18281809884E+02 -0.27252861684E+01  0.53886691605E+03  0.56564222974E+03  0.17097346897E+03 0.  0.
        -24    2    5    5    0    0 -0.27259811935E+02 -0.61994181874E+00  0.54568820518E+03  0.55324638443E+03  0.86962422536E+02 0.  0.
          5    1    3    3  501    0 -0.14616661749E+02 -0.60581257661E+02 -0.17758819076E+03  0.18826415240E+03  0.47000000000E+01 0. -1.
        -11    1    4    4    0    0  0.48899420904E+02  0.53656274674E+02 -0.69567921362E+02  0.10054772429E+03  0.00000000000E+00 0.  1.
         12    1    4    4    0    0 -0.16000949270E+02  0.96502691556E+01 -0.76013003042E+02  0.78276016146E+02  0.00000000000E+00 0. -1.
         -5    1    5    5    0  502  0.89780020505E+01 -0.21053443496E+01 -0.68212891274E+01  0.12395845312E+02  0.47000000000E+01 0.  1.
         11    1    6    6    0    0 -0.43557388993E+02  0.19325545605E+02  0.48477327709E+03  0.48710969302E+03  0.00000000000E+00 0. -1.
        -12    1    6    6    0    0  0.16297577059E+02 -0.19945487424E+02  0.60914928090E+02  0.66136691411E+02  0.00000000000E+00 0.  1.
</event>
<event>
12    1  0.8053217E-002  0.1810738E+03  0.7818608E-02  0.1166968E+00
         21   -1    0    0  503  502  0.00000000000E+00  0.00000000000E+00  0.20660930342E+04  0.20660930342E+04  0.00000000000E+00 0. -1.
         21   -1    0    0  501  503 -0.00000000000E+00 -0.00000000000E+00 -0.21314604289E+02  0.21314604289E+02  0.00000000000E+00 0. -1.
          6    2    1    2  501    0  0.38308370081E+02  0.28934204171E+02  0.48960016491E+03  0.52172339732E+03  0.17373043038E+03 0.  0.
         24    2    3    3    0    0  0.41905838191E+02 -0.45828094248E+02  0.22566617432E+03  0.24734121053E+03  0.79975863199E+02 0.  0.
         -6    2    1    2    0  502 -0.38308370081E+02 -0.28934204171E+02  0.15551782650E+04  0.15656842411E+04  0.17459377917E+03 0.  0.
        -24    2    5    5    0    0 -0.28787408794E+02 -0.53039602221E+01  0.15178312312E+04  0.15202317598E+04  0.80225370325E+02 0.  0.
          5    1    3    3  501    0 -0.35974681097E+01  0.74762298419E+02  0.26393399059E+03  0.27438218679E+03  0.47000000000E+01 0. -1.
        -13    1    4    4    0    0  0.10773949407E+02  0.15225797058E+02  0.11970011688E+03  0.12114462788E+03  0.00000000000E+00 0.  1.
         14    1    4    4    0    0  0.31131888784E+02 -0.61053891307E+02  0.10596605744E+03  0.12619658265E+03  0.00000000000E+00 0. -1.
         -5    1    5    5    0  502 -0.95209612872E+01 -0.23630243949E+02  0.37347033759E+02  0.45452481379E+02  0.47000000000E+01 0.  1.
         13    1    6    6    0    0 -0.31376374244E+02 -0.32650066879E+02  0.12831025493E+04  0.12839013419E+04  0.00000000000E+00 0. -1.
        -14    1    6    6    0    0  0.25889654504E+01  0.27346106657E+02  0.23472868195E+03  0.23633041790E+03  0.00000000000E+00 0.  1.
</event>
<event>
12    1  0.8053217E-002  0.2765922E+03  0.7818608E-02  0.1097649E+00
         21   -1    0    0  501  502  0.00000000000E+00  0.00000000000E+00  0.13205630415E+03  0.13205630415E+03  0.00000000000E+00 0.  1.
         21   -1    0    0  502  503 -0.00000000000E+00 -0.00000000000E+00 -0.57885113991E+03  0.57885113991E+03  0.00000000000E+00 0.  1.
         -6    2    1    2    0  503  0.21417249001E+03 -0.31527133039E+02 -0.20998685761E+03  0.34679033619E+03  0.17118773705E+03 0.  0.
        -24    2    3    3    0    0  0.19314657519E+03 -0.79527476094E+02 -0.16736503956E+03  0.27907895310E+03  0.79017634954E+02 0.  0.
          6    2    1    2  501    0 -0.21417249001E+03  0.31527133039E+02 -0.23680797815E+03  0.36411710787E+03  0.17216107032E+03 0.  0.
         24    2    5    5    0    0 -0.46946235755E+02 -0.16028959954E+02 -0.48099065820E+02  0.10748635039E+03  0.82334189606E+02 0.  0.
          5    1    5    5  501    0 -0.16722625425E+03  0.47556092992E+02 -0.18870891233E+03  0.25663075748E+03  0.47000000000E+01 0. -1.
        -11    1    6    6    0    0 -0.64642696873E+02 -0.30022431528E+02 -0.45997545398E+02  0.84828054537E+02  0.00000000000E+00 0.  1.
         12    1    6    6    0    0  0.17696461117E+02  0.13993471575E+02 -0.21015204222E+01  0.22658295851E+02  0.00000000000E+00 0. -1.
         -5    1    3    3    0  503  0.21025914822E+02  0.48000343056E+02 -0.42621818046E+02  0.67711383099E+02  0.47000000000E+01 0.  1.
         13    1    4    4    0    0  0.47846846169E+02 -0.59126611328E+02 -0.66458444023E+02  0.10100495848E+03  0.00000000000E+00 0. -1.
        -14    1    4    4    0    0  0.14529972902E+03 -0.20400864767E+02 -0.10090659554E+03  0.17807399462E+03  0.00000000000E+00 0.  1.
</event>
<event>
12    1  0.8053217E-002  0.1871871E+03  0.7818608E-02  0.1161324E+00
         21   -1    0    0  503  502  0.00000000000E+00  0.00000000000E+00  0.21204532247E+03  0.21204532247E+03  0.00000000000E+00 0. -1.
         21   -1    0    0  501  503 -0.00000000000E+00 -0.00000000000E+00 -0.16454144566E+03  0.16454144566E+03  0.00000000000E+00 0. -1.
          6    2    1    2  501    0  0.41758722966E+02 -0.55223900693E+02  0.13997296705E+02  0.18770972239E+03  0.17391246480E+03 0.  0.
         24    2    3    3    0    0  0.55760899415E+02  0.27311067384E+02 -0.54349602109E+01  0.10164123507E+03  0.80288414911E+02 0.  0.
         -6    2    1    2    0  502 -0.41758722966E+02  0.55223900693E+02  0.33506580104E+02  0.18887704575E+03  0.17250616612E+03 0.  0.
        -24    2    5    5    0    0 -0.32970262498E-01  0.71645833451E+02 -0.29634709135E+02  0.11129076654E+03  0.79839164536E+02 0.  0.
          5    1    3    3  501    0 -0.14002176449E+02 -0.82534968078E+02  0.19432256916E+02  0.86068487321E+02  0.47000000000E+01 0. -1.
        -13    1    4    4    0    0  0.50889770170E+02  0.49730853069E+02  0.12847566700E+02  0.72304816057E+02  0.00000000000E+00 0.  1.
         14    1    4    4    0    0  0.48711292442E+01 -0.22419785685E+02 -0.18282526910E+02  0.29336419013E+02  0.00000000000E+00 0. -1.
         -5    1    5    5    0  502 -0.41725752703E+02 -0.16421932757E+02  0.63141289239E+02  0.77586279205E+02  0.47000000000E+01 0.  1.
         11    1    6    6    0    0 -0.19059748957E+02  0.82943127121E+02 -0.24740128303E+02  0.88627931915E+02  0.00000000000E+00 0. -1.
        -12    1    6    6    0    0  0.19026778695E+02 -0.11297293671E+02 -0.48945808312E+01  0.22662834626E+02  0.00000000000E+00 0.  1.
</event>
<event>
12    1  0.8053217E-002  0.1844047E+03  0.7818608E-02  0.1164732E+00
         21   -1    0    0  503  502  0.00000000000E+00  0.00000000000E+00  0.25567405040E+03  0.25567405040E+03  0.00000000000E+00 0. -1.
         21   -1    0    0  501  503 -0.00000000000E+00 -0.00000000000E+00 -0.16422115688E+03  0.16422115688E+03  0.00000000000E+00 0. -1.
          6    2    1    2  501    0 -0.55069923389E+02  0.20211904940E+02 -0.51118702273E+02  0.18680348730E+03  0.16982698132E+03 0.  0.
         24    2    3    3    0    0 -0.25667992187E+02 -0.28357753073E+02  0.26033367479E+02  0.90897193948E+02  0.78240371056E+02 0.  0.
         -6    2    1    2    0  502  0.55069923389E+02 -0.20211904940E+02  0.14257159580E+03  0.23309171998E+03  0.17482526256E+03 0.  0.
        -24    2    5    5    0    0  0.99513346594E+02 -0.20211944701E+02  0.69395311112E+02  0.14734746940E+03  0.81142705623E+02 0.  0.
          5    1    3    3  501    0 -0.29401931202E+02  0.48569658013E+02 -0.77152069752E+02  0.95906293354E+02  0.47000000000E+01 0. -1.
        -11    1    4    4    0    0 -0.98231896259E+01 -0.40300070198E+02 -0.15966258352E+02  0.44446733493E+02  0.00000000000E+00 0.  1.
         12    1    4    4    0    0 -0.15844802561E+02  0.11942317125E+02  0.41999625831E+02  0.46450460455E+02  0.00000000000E+00 0. -1.
         -5    1    5    5    0  502 -0.44443423205E+02  0.39761457518E-04  0.73176284687E+02  0.85744250575E+02  0.47000000000E+01 0.  1.
         11    1    6    6    0    0  0.58774343964E+02 -0.50921024050E+02  0.51551063602E+02  0.93299980478E+02  0.00000000000E+00 0. -1.
        -12    1    6    6    0    0  0.40739002629E+02  0.30709079349E+02  0.17844247510E+02  0.54047488924E+02  0.00000000000E+00 0.  1.
</event>
<event>
12    1  0.8053217E-002  0.2220459E+03  0.7818608E-02  0.1132658E+00
         21   -1    0    0  503  502  0.00000000000E+00  0.00000000000E+00  0.52139919306E+02  0.52139919306E+02  0.00000000000E+00 0. -1.
         21   -1    0    0  501  503 -0.00000000000E+00 -0.00000000000E+00 -0.94853609005E+03  0.94853609005E+03  0.00000000000E+00 0. -1.
          6    2    1    2  501    0 -0.49492215171E+02  0.13117051527E+03 -0.39938449017E+03  0.45695991250E+03  0.17218945148E+03 0.  0.
         24    2    3    3    0    0 -0.90677259300E+01  0.29250205655E+02 -0.77759018810E+02  0.11712624337E+03  0.82062742436E+02 0.  0.
         -6    2    1    2    0  502  0.49492215171E+02 -0.13117051527E+03 -0.49701168057E+03  0.54371609685E+03  0.17015110907E+03 0.  0.
        -24    2    5    5    0    0  0.70958517718E+02 -0.13812195144E+03 -0.48938299939E+03  0.51943830069E+03  0.78788599600E+02 0.  0.
          5    1    3    3  501    0 -0.40424489241E+02  0.10192030961E+03 -0.32162547136E+03  0.33983366912E+03  0.47000000000E+01 0. -1.
        -11    1    4    4    0    0 -0.16719790476E+02  0.40885546193E+02 -0.66542197552E+01  0.44670548705E+02  0.00000000000E+00 0.  1.
         12    1    4    4    0    0  0.76520645457E+01 -0.11635340538E+02 -0.71104799055E+02  0.72455694668E+02  0.00000000000E+00 0. -1.
         -5    1    5    5    0  502 -0.21466302547E+02  0.69514361751E+01 -0.76286811783E+01  0.24277796161E+02  0.47000000000E+01 0.  1.
         11    1    6    6    0    0  0.23693966330E+02 -0.11009512545E+03 -0.25602969868E+03  0.27970260510E+03  0.00000000000E+00 0. -1.
        -12    1    6    6    0    0  0.47264551389E+02 -0.28026825991E+02 -0.23335330071E+03  0.23973569560E+03  0.00000000000E+00 0.  1.
</event>
<event>
12    1  0.8053217E-002  0.1922549E+03  0.7818608E-02  0.1156681E+00
         21   -1    0    0  501  502  0.00000000000E+00  0.00000000000E+00  0.31842819617E+03  0.31842819617E+03  0.00000000000E+00 0. -1.
         21   -1    0    0  502  503 -0.00000000000E+00 -0.00000000000E+00 -0.33459550220E+03  0.33459550220E+03  0.00000000000E+00 0. -1.
         -6    2    1    2    0  503 -0.83849466997E+02  0.96489394304E+01 -0.27233028932E+03  0.33274036215E+03  0.17154744817E+03 0.  0.
        -24    2    3    3    0    0 -0.20213854350E+02 -0.24371270605E+02 -0.48314489708E+02  0.97342753061E+02  0.78350257939E+02 0.  0.
          6    2    1    2  501    0  0.83849466997E+02 -0.96489394304E+01  0.25616298329E+03  0.32028333621E+03  0.17273710168E+03 0.  0.
         24    2    5    5    0    0  0.23769532159E+02  0.57938698826E+02  0.12865370485E+03  0.16389154133E+03  0.79917320206E+02 0.  0.
          5    1    5    5  501    0  0.60079934839E+02 -0.67587638257E+02  0.12750927845E+03  0.15639179488E+03  0.47000000000E+01 0. -1.
        -13    1    6    6    0    0  0.45014351974E+02  0.14807489755E+02  0.36017724198E+02  0.59521677504E+02  0.00000000000E+00 0.  1.
         14    1    6    6    0    0 -0.21244819815E+02  0.43131209072E+02  0.92635980648E+02  0.10436986383E+03  0.00000000000E+00 0. -1.
         -5    1    3    3    0  503 -0.63635612647E+02  0.34020210036E+02 -0.22401579962E+03  0.23539760909E+03  0.47000000000E+01 0.  1.
         13    1    4    4    0    0 -0.72530176817E+01  0.11297941667E+02 -0.56875120005E+02  0.58438249692E+02  0.00000000000E+00 0. -1.
        -14    1    4    4    0    0 -0.12960836668E+02 -0.35669212273E+02  0.85606302977E+01  0.38904503369E+02  0.00000000000E+00 0.  1.
</event>
<event>
12    1  0.8053217E-002  0.2237881E+03  0.7818608E-02  0.1131408E+00
         21   -1    0    0  503  502  0.00000000000E+00  0.00000000000E+00  0.71387851393E+03  0.71387851393E+03  0.00000000000E+00 0. -1.
         21   -1    0    0  501  503 -0.00000000000E+00 -0.00000000000E+00 -0.11419170554E+03  0.11419170554E+03  0.00000000000E+00 0. -1.
          6    2    1    2  501    0  0.86357224201E+02 -0.11330352979E+03  0.40428378490E+02  0.22569899091E+03  0.17032416352E+03 0.  0.
         24    2    3    3    0    0  0.11302211903E+03 -0.89897973590E+02  0.69345681567E+02  0.17968663285E+03  0.81380694439E+02 0.  0.
         -6    2    1    2    0  502 -0.86357224201E+02  0.11330352979E+03  0.55925842990E+03  0.60237122856E+03  0.17258576288E+03 0.  0.
        -24    2    5    5    0    0 -0.81317701212E+02  0.12159342924E+03  0.56632438166E+03  0.58948181821E+03  0.73266487412E+02 0.  0.
          5    1    3    3  501    0 -0.26664894831E+02 -0.23405556195E+02 -0.28917303076E+02  0.46012358061E+02  0.47000000000E+01 0. -1.
        -11    1    4    4    0    0 -0.24158943072E+01 -0.11718613224E+01 -0.12416601261E+02  0.12703613310E+02  0.00000000000E+00 0.  1.
         12    1    4    4    0    0  0.11543801334E+03 -0.88726112268E+02  0.81762282828E+02  0.16698301954E+03  0.00000000000E+00 0. -1.
         -5    1    5    5    0  502 -0.50395229884E+01 -0.82898994504E+01 -0.70659517587E+01  0.12889410347E+02  0.47000000000E+01 0.  1.
         13    1    6    6    0    0 -0.35370508840E+02  0.34532130596E+01  0.95720989190E+02  0.10210536395E+03  0.00000000000E+00 0. -1.
        -14    1    6    6    0    0 -0.45947192372E+02  0.11814021618E+03  0.47060339247E+03  0.48737645426E+03  0.00000000000E+00 0.  1.
</event>
<event>
12    1  0.8053217E-002  0.1829548E+03  0.7818608E-02  0.1165866E+00
         21   -1    0    0  503  502  0.00000000000E+00  0.00000000000E+00  0.35657002223E+03  0.35657002223E+03  0.00000000000E+00 0.  1.
         21   -1    0    0  501  503 -0.00000000000E+00 -0.00000000000E+00 -0.11342470656E+03  0.11342470656E+03  0.00000000000E+00 0. -1.
          6    2    1    2  501    0 -0.45025220970E+02 -0.21653521019E+02  0.20389179750E+02  0.18408740354E+03  0.17600087499E+03 0.  0.
         24    2    3    3    0    0  0.35349877647E+02 -0.38925420307E+02 -0.10231124212E+02  0.96234298889E+02  0.79947246258E+02 0.  0.
         -6    2    1    2    0  502  0.45025220970E+02  0.21653521019E+02  0.22275613592E+03  0.28590732524E+03  0.17212366787E+03 0.  0.
        -24    2    5    5    0    0 -0.31517560112E+02  0.11459592463E+02  0.17497418395E+03  0.19497923031E+03  0.79222827173E+02 0.  0.
          5    1    3    3  501    0 -0.80375098618E+02  0.17271899288E+02  0.30620303962E+02  0.87853104655E+02  0.47000000000E+01 0. -1.
        -11    1    4    4    0    0 -0.48480713660E+01 -0.19089555057E+02  0.30076356361E+02  0.35951385511E+02  0.00000000000E+00 0.  1.
         12    1    4    4    0    0  0.40197949013E+02 -0.19835865250E+02 -0.40307480573E+02  0.60282913377E+02  0.00000000000E+00 0. -1.
         -5    1    5    5    0  502  0.76542781082E+02  0.10193928556E+02  0.47781951961E+02  0.90928094935E+02  0.47000000000E+01 0.  1.
         11    1    6    6    0    0 -0.48533441129E+01  0.26394366689E+02  0.12410200899E+02  0.29567391301E+02  0.00000000000E+00 0. -1.
        -12    1    6    6    0    0 -0.26664215999E+02 -0.14934774227E+02  0.16256398306E+03  0.16541183900E+03  0.00000000000E+00 0.  1.
</event>
<event>
12    1  0.8053217E-002  0.1732658E+03  0.7818608E-02  0.1177252E+00
         21   -1    0    0  501  502  0.00000000000E+00  0.00000000000E+00  0.52823059898E+03  0.52823059898E+03  0.00000000000E+00 0.  1.
         21   -1    0    0  502  503 -0.00000000000E+00 -0.00000000000E+00 -0.80950095021E+02  0.80950095021E+02  0.00000000000E+00 0.  1.
         -6    2    1    2    0  503 -0.42937186298E+01  0.53998795683E+01  0.50736241470E+02  0.18054141246E+03  0.17312839367E+03 0.  0.
        -24    2    3    3    0    0 -0.26192861654E+02 -0.52415926031E+02  0.62349249601E+02  0.11746057701E+03  0.80473989109E+02 0.  0.
          6    2    1    2  501    0  0.42937186298E+01 -0.53998795683E+01  0.39654426249E+03  0.42863928154E+03  0.16259362488E+03 0.  0.
         24    2    5    5    0    0  0.18670968377E+02  0.18726455682E+02  0.39096990144E+03  0.39962292643E+03  0.78369217777E+02 0.  0.
          5    1    5    5  501    0 -0.14377249747E+02 -0.24126335250E+02  0.55743610468E+01  0.29016355112E+02  0.47000000000E+01 0. -1.
        -11    1    6    6    0    0 -0.24854579023E+02  0.65673295190E+01  0.56006868708E+02  0.61625070044E+02  0.00000000000E+00 0.  1.
         12    1    6    6    0    0  0.43525547400E+02  0.12159126163E+02  0.33496303273E+03  0.33799785639E+03  0.00000000000E+00 0. -1.
         -5    1    3    3    0  503  0.21899143025E+02  0.57815805600E+02 -0.11613008130E+02  0.63080835443E+02  0.47000000000E+01 0.  1.
         11    1    4    4    0    0 -0.27871213788E+02  0.53089038224E+01  0.51359066653E+02  0.58674890245E+02  0.00000000000E+00 0. -1.
        -12    1    4    4    0    0  0.16783521340E+01 -0.57724829854E+02  0.10990182948E+02  0.58785686768E+02  0.00000000000E+00 0.  1.
</event>
<event>
12    1  0.8053217E-002  0.1795419E+03  0.7818608E-02  0.1168424E+00
         21   -1    0    0  501  502  0.00000000000E+00  0.00000000000E+00  0.69046780842E+03  0.69046780842E+03  0.00000000000E+00 0.  1.
         21   -1    0    0  502  503 -0.00000000000E+00 -0.00000000000E+00 -0.84421936910E+02  0.84421936910E+02  0.00000000000E+00 0.  1.
         -6    2    1    2    0  503 -0.28406355308E+02 -0.42838157430E+02  0.43679986782E+02  0.18477884282E+03  0.17202688963E+03 0.  0.
        -24    2    3    3    0    0  0.16503559547E+02 -0.22120220383E+02  0.86036836767E+02  0.11949235028E+03  0.78194711248E+02 0.  0.
          6    2    1    2  501    0  0.28406355308E+02  0.42838157430E+02  0.56236588473E+03  0.59011090251E+03  0.17127013808E+03 0.  0.
         24    2    5    5    0    0 -0.92008321216E+01  0.47719611547E+02  0.53482012157E+03  0.54300476481E+03  0.80372853225E+02 0.  0.
          5    1    5    5  501    0  0.37607187430E+02 -0.48814541174E+01  0.27545763164E+02  0.47106137700E+02  0.47000000000E+01 0. -1.
        -13    1    6    6    0    0  0.11593253525E+02  0.67084276717E+01  0.40605673109E+03  0.40627758416E+03  0.00000000000E+00 0.  1.
         14    1    6    6    0    0 -0.20794085646E+02  0.41011183876E+02  0.12876339047E+03  0.13672718064E+03  0.00000000000E+00 0. -1.
         -5    1    3    3    0  503 -0.44909914855E+02 -0.20717937047E+02 -0.42356849985E+02  0.65286492542E+02  0.47000000000E+01 0.  1.
         13    1    4    4    0    0 -0.18196182403E+02 -0.34258395147E+02  0.68593514436E+02  0.78802340795E+02  0.00000000000E+00 0. -1.
        -14    1    4    4    0    0  0.34699741950E+02  0.12138174764E+02  0.17443322331E+02  0.40690009486E+02  0.00000000000E+00 0.  1.
</event>
<event>
12    1  0.8053217E-002  0.1960987E+03  0.7818608E-02  0.1153746E+00
         21   -1    0    0  503  502  0.00000000000E+00  0.00000000000E+00  0.12346571788E+03  0.12346571788E+03  0.00000000000E+00 0.  1.
         21   -1    0    0  501  503 -0.00000000000E+00 -0.00000000000E+00 -0.65081165819E+03  0.65081165819E+03  0.00000000000E+00 0.  1.
          6    2    1    2  501    0  0.55846091506E+02  0.72752203465E+02 -0.54620797653E+03  0.58034288458E+03  0.17332928491E+03 0.  0.
         24    2    3    3    0    0  0.45687673394E+02  0.31761666414E+02 -0.52322578990E+03  0.53203461935E+03  0.78736535514E+02 0.  0.
         -6    2    1    2    0  502 -0.55846091506E+02 -0.72752203465E+02  0.18862036217E+02  0.19393449149E+03  0.16983268689E+03 0.  0.
        -24    2    5    5    0    0 -0.53724600770E+02 -0.53671084664E+02 -0.52235554921E+02  0.12014053996E+03  0.77060223765E+02 0.  0.
          5    1    3    3  501    0  0.10158418112E+02  0.40990537051E+02 -0.22982186634E+02  0.48308265222E+02  0.47000000000E+01 0. -1.
        -13    1    4    4    0    0 -0.14257320634E+02 -0.42121206095E+01 -0.26264987440E+02  0.30180502264E+02  0.00000000000E+00 0.  1.
         14    1    4    4    0    0  0.59944994028E+02  0.35973787023E+02 -0.49696080246E+03  0.50185411709E+03  0.00000000000E+00 0. -1.
         -5    1    5    5    0  502 -0.21214907365E+01 -0.19081118802E+02  0.71097591138E+02  0.73793951536E+02  0.47000000000E+01 0.  1.
         11    1    6    6    0    0 -0.71797839283E+02 -0.28600681151E+02 -0.37367351779E+02  0.85844322276E+02  0.00000000000E+00 0. -1.
        -12    1    6    6    0    0  0.18073238513E+02 -0.25070403513E+02 -0.14868203142E+02  0.34296217683E+02  0.00000000000E+00 0.  1.
</event>
<event>
12    1  0.8053217E-002  0.1905992E+03  0.7818608E-02  0.1158242E+00
         21   -1    0    0  503  502  0.00000000000E+00  0.00000000000E+00  0.83954408147E+02  0.83954408147E+02  0.00000000000E+00 0. -1.
         21   -1    0    0  501  503 -0.00000000000E+00 -0.00000000000E+00 -0.13488239673E+04  0.13488239673E+04  0.00000000000E+00 0. -1.
          6    2    1    2  501    0  0.20801135177E+02  0.77281993226E+02 -0.12246187922E+04  0.12393624398E+04  0.17298230331E+03 0.  0.
         24    2    3    3    0    0  0.54878984792E+02 -0.92165154701E+01 -0.74114748366E+03  0.74701105305E+03  0.75028486075E+02 0.  0.
         -6    2    1    2    0  502 -0.20801135177E+02 -0.77281993226E+02 -0.40250766915E+02  0.19341593562E+03  0.17141880355E+03 0.  0.
        -24    2    5    5    0    0 -0.65065415540E+02 -0.73500275605E+02  0.57185153121E+01  0.12931528965E+03  0.83987760464E+02 0.  0.
          5    1    3    3  501    0 -0.34077849615E+02  0.86498508696E+02 -0.48347130853E+03  0.49235138673E+03  0.47000000000E+01 0. -1.
        -13    1    4    4    0    0  0.61688307103E+01 -0.32985563772E+02 -0.41846083983E+03  0.41980421194E+03  0.00000000000E+00 0.  1.
         14    1    4    4    0    0  0.48710154082E+02  0.23769048302E+02 -0.32268664382E+03  0.32720684111E+03  0.00000000000E+00 0. -1.
         -5    1    5    5    0  502  0.44264280363E+02 -0.37817176212E+01 -0.45969282227E+02  0.64100645961E+02  0.47000000000E+01 0.  1.
         11    1    6    6    0    0 -0.72993843544E+02 -0.22081290930E+02 -0.40979026063E+01  0.76370658045E+02  0.00000000000E+00 0. -1.
        -12    1    6    6    0    0  0.79284280039E+01 -0.51418984675E+02  0.98164179184E+01  0.52944631610E+02  0.00000000000E+00 0.  1.
</event>
<event>
12    1  0.8053217E-002  0.2133066E+03  0.7818608E-02  0.1139007E+00
         21   -1    0    0  501  502  0.00000000000E+00  0.00000000000E+00  0.76477628557E+03  0.76477628557E+03  0.00000000000E+00 0. -1.
         21   -1    0    0  502  503 -0.00000000000E+00 -0.00000000000E+00 -0.75366173833E+02  0.75366173833E+02  0.00000000000E+00 0.  1.
         -6    2    1    2    0  503 -0.93690830846E+02  0.83215557386E+02  0.53765829011E+03  0.57836329144E+03  0.17240898811E+03 0.  0.
        -24    2    3    3    0    0 -0.11995848629E+03  0.40719871450E+02  0.47222641155E+03  0.49590546114E+03  0.82923436139E+02 0.  0.
          6    2    1    2  501    0  0.93690830846E+02 -0.83215557386E+02  0.15175182162E+03  0.26177916796E+03  0.17261783406E+03 0.  0.
         24    2    5    5    0    0  0.17549617765E+02 -0.98149771922E+02  0.57877092986E+02  0.13989779215E+03  0.79248139054E+02 0.  0.
          5    1    5    5  501    0  0.76141213082E+02  0.14934214535E+02  0.93874728632E+02  0.12188137581E+03  0.47000000000E+01 0. -1.
        -11    1    6    6    0    0  0.50577344134E+01 -0.17502740896E+02 -0.20027449764E+02  0.27074441090E+02  0.00000000000E+00 0.  1.
         12    1    6    6    0    0  0.12491883351E+02 -0.80647031026E+02  0.77904542750E+02  0.11282335106E+03  0.00000000000E+00 0. -1.
         -5    1    3    3    0  503  0.26267655439E+02  0.42495685936E+02  0.65431878567E+02  0.82457830303E+02  0.47000000000E+01 0.  1.
         13    1    4    4    0    0 -0.83813200815E+02  0.37685603596E+02  0.18676770721E+03  0.20815146842E+03  0.00000000000E+00 0. -1.
        -14    1    4    4    0    0 -0.36145285471E+02  0.30342678541E+01  0.28545870433E+03  0.28775399271E+03  0.00000000000E+00 0.  1.
</event>
<event>
12    1  0.8053217E-002  0.1827776E+03  0.7818608E-02  0.1165366E+00
         21   -1    0    0  503  502  0.00000000000E+00  0.00000000000E+00  0.45588738568E+03  0.45588738568E+03  0.00000000000E+00 0.  1.
         21   -1    0    0  501  503 -0.00000000000E+00 -0.00000000000E+00 -0.10881379672E+03  0.10881379672E+03  0.00000000000E+00 0.  1.
          6    2    1    2  501    0  0.37127012945E+02  0.48188606596E+02  0.11633017856E+02  0.18314745021E+03  0.17235749046E+03 0.  0.
         24    2    3    3    0    0  0.78566271327E+02 -0.22791381996E+01  0.29481223781E+02  0.11528837672E+03  0.79021603316E+02 0.  0.
         -6    2    1    2    0  502 -0.37127012945E+02 -0.48188606596E+02  0.33544057110E+03  0.38155373219E+03  0.17135436063E+03 0.  0.
        -24    2    5    5    0    0  0.21664533274E+02 -0.79715622154E+02  0.21348536745E+03  0.24246541379E+03  0.79934612976E+02 0.  0.
          5    1    3    3  501    0 -0.41439258382E+02  0.50467744796E+02 -0.17848205925E+02  0.67859073489E+02  0.47000000000E+01 0. -1.
        -11    1    4    4    0    0  0.56250856604E+02  0.14980500038E+02 -0.17239796859E+02  0.60710665009E+02  0.00000000000E+00 0.  1.
         12    1    4    4    0    0  0.22315414723E+02 -0.17259638238E+02  0.46721020640E+02  0.54577711714E+02  0.00000000000E+00 0. -1.
         -5    1    5    5    0  502 -0.58791546219E+02  0.31527015557E+02  0.12195520365E+03  0.13908831840E+03  0.47000000000E+01 0.  1.
         13    1    6    6    0    0  0.43325951973E+02 -0.31507497268E+02  0.15318424958E+03  0.16228146788E+03  0.00000000000E+00 0. -1.
        -14    1    6    6    0    0 -0.21661418699E+02 -0.48208124886E+02  0.60301117871E+02  0.80183945909E+02  0.00000000000E+00 0.  1.
</event>
<event>
12    1  0.8053217E-002  0.3198191E+03  0.7818608E-02  0.1076126E+00
         21   -1    0    0  503  502  0.00000000000E+00  0.00000000000E+00  0.50988728143E+03  0.50988728143E+03  0.00000000000E+00 0. -1.
         21   -1    0    0  501  503 -0.00000000000E+00 -0.00000000000E+00 -0.10721608527E+04  0.10721608527E+04  0.00000000000E+00 0.  1.
          6    2    1    2  501    0 -0.21130382151E+03 -0.16142873210E+03 -0.99492079205E+03  0.10440259321E+04  0.17150575466E+03 0.  0.
         24    2    3    3    0    0 -0.11398655183E+03 -0.14835717982E+03 -0.50263143571E+03  0.54201754887E+03  0.78370123836E+02 0.  0.
         -6    2    1    2    0  502  0.21130382151E+03  0.16142873210E+03  0.43264722077E+03  0.53802220206E+03  0.17769561540E+03 0.  0.
        -24    2    5    5    0    0  0.15461351438E+03  0.15533137315E+03  0.41853851176E+03  0.47909755206E+03  0.79541210981E+02 0.  0.
          5    1    3    3  501    0 -0.97317269675E+02 -0.13071552271E+02 -0.49228935634E+03  0.50200838322E+03  0.47000000000E+01 0. -1.
        -11    1    4    4    0    0 -0.90130489126E+02 -0.73070055173E+02 -0.36879369692E+03  0.38661547941E+03  0.00000000000E+00 0.  1.
         12    1    4    4    0    0 -0.23856062706E+02 -0.75287124651E+02 -0.13383773880E+03  0.15540206946E+03  0.00000000000E+00 0. -1.
         -5    1    5    5    0  502  0.56690307122E+02  0.60973589415E+01  0.14108709017E+02  0.58924650001E+02  0.47000000000E+01 0.  1.
         11    1    6    6    0    0  0.11273879556E+03  0.57115788828E+02  0.22760052263E+03  0.26033487522E+03  0.00000000000E+00 0. -1.
        -12    1    6    6    0    0  0.41874718827E+02  0.98215584327E+02  0.19093798913E+03  0.21876267683E+03  0.00000000000E+00 0.  1.
</event>
<event>
12    1  0.8053217E-002  0.1987817E+03  0.7818608E-02  0.1150995E+00
         21   -1    0    0  503  502  0.00000000000E+00  0.00000000000E+00  0.11348935903E+04  0.11348935903E+04  0.00000000000E+00 0.  1.
         21   -1    0    0  501  503 -0.00000000000E+00 -0.00000000000E+00 -0.77227508513E+02  0.77227508513E+02  0.00000000000E+00 0. -1.
          6    2    1    2  501    0  0.87141173096E+02 -0.46376782800E+02  0.78113179996E+02  0.21260219480E+03  0.17132902356E+03 0.  0.
         24    2    3    3    0    0  0.93169326063E+02 -0.77590144654E+02  0.20624642205E+02  0.14674147385E+03  0.80043303380E+02 0.  0.
         -6    2    1    2    0  502 -0.87141173096E+02  0.46376782800E+02  0.97955290182E+03  0.99951890404E+03  0.17253916088E+03 0.  0.
        -24    2    5    5    0    0 -0.20251383564E+01  0.76933876588E+02  0.50747175185E+03  0.51883067087E+03  0.75728221676E+02 0.  0.
          5    1    3    3  501    0 -0.60281529673E+01  0.31213361854E+02  0.57488537791E+02  0.65860720948E+02  0.47000000000E+01 0. -1.
        -13    1    4    4    0    0 -0.15192933015E+01 -0.25967764066E+02  0.28527170764E+02  0.38606119910E+02  0.00000000000E+00 0.  1.
         14    1    4    4    0    0  0.94688619364E+02 -0.51622380589E+02 -0.79025285592E+01  0.10813535394E+03  0.00000000000E+00 0. -1.
         -5    1    5    5    0  502 -0.85116034739E+02 -0.30557093788E+02  0.47208114997E+03  0.48068823317E+03  0.47000000000E+01 0.  1.
         11    1    6    6    0    0  0.59279784074E+01  0.51312735150E+02  0.12275976180E+03  0.13318444666E+03  0.00000000000E+00 0. -1.
        -12    1    6    6    0    0 -0.79531167638E+01  0.25621141438E+02  0.38471199005E+03  0.38564622421E+03  0.00000000000E+00 0.  1.
</event>
<event>
12    1  0.8053217E-002  0.2561242E+03  0.7818608E-02  0.1109843E+00
         21   -1    0    0  501  502  0.00000000000E+00  0.00000000000E+00  0.31951740789E+03  0.31951740789E+03  0.00000000000E+00 0. -1.
         21   -1    0    0  502  503 -0.00000000000E+00 -0.00000000000E+00 -0.50255783303E+03  0.50255783303E+03  0.00000000000E+00 0. -1.
         -6    2    1    2    0  503 -0.18445262457E+03 -0.17707187259E+02  0.22539364934E+03  0.34117723234E+03  0.17681428537E+03 0.  0.
        -24    2    3    3    0    0 -0.12123826957E+03 -0.84614313087E+02  0.14670292404E+03  0.21998755286E+03  0.70812961402E+02 0.  0.
          6    2    1    2  501    0  0.18445262457E+03  0.17707187259E+02 -0.40843407448E+03  0.48089800858E+03  0.17351710658E+03 0.  0.
         24    2    5    5    0    0  0.75771297080E+02  0.54041795032E+02 -0.29662387403E+03  0.32072483483E+03  0.78847269836E+02 0.  0.
          5    1    5    5  501    0  0.10868132749E+03 -0.36334607774E+02 -0.11181020045E+03  0.16017317375E+03  0.47000000000E+01 0. -1.
        -13    1    6    6    0    0 -0.44892340644E+01  0.30885825811E+01  0.31109546678E+01  0.62745998908E+01  0.00000000000E+00 0.  1.
         14    1    6    6    0    0  0.80260531145E+02  0.50953212451E+02 -0.29973482870E+03  0.31445023494E+03  0.00000000000E+00 0. -1.
         -5    1    3    3    0  503 -0.63214354993E+02  0.66907125828E+02  0.78690725302E+02  0.12118967948E+03  0.47000000000E+01 0.  1.
         11    1    4    4    0    0 -0.76462250052E+02 -0.20428542702E+02  0.10445370688E+03  0.13105105082E+03  0.00000000000E+00 0. -1.
        -12    1    4    4    0    0 -0.44776019523E+02 -0.64185770385E+02  0.42249217156E+02  0.88936502037E+02  0.00000000000E+00 0.  1.
</event>
<event>
12    1  0.8053217E-002  0.1871172E+03  0.7818608E-02  0.1161140E+00
         21   -1    0    0  501  502  0.00000000000E+00  0.00000000000E+00  0.42339813668E+03  0.42339813668E+03  0.00000000000E+00 0. -1.
         21   -1    0    0  502  503 -0.00000000000E+00 -0.00000000000E+00 -0.95844956564E+02  0.95844956564E+02  0.00000000000E+00 0. -1.
         -6    2    1    2    0  503 -0.27935294485E+02  0.67474527479E+02  0.67328406353E+02  0.19886169080E+03  0.17227787214E+03 0.  0.
        -24    2    3    3    0    0  0.10804221405E+02  0.93985314283E+02  0.79620827782E+02  0.15010960845E+03  0.85108447477E+02 0.  0.
          6    2    1    2  501    0  0.27935294485E+02 -0.67474527479E+02  0.26022477377E+03  0.32038140245E+03  0.17202940916E+03 0.  0.
         24    2    5    5    0    0  0.75225691951E+02 -0.78715427980E+02  0.21478152077E+03  0.25367369090E+03  0.79776039398E+02 0.  0.
          5    1    5    5  501    0 -0.47290397466E+02  0.11240900500E+02  0.45443253000E+02  0.66707711547E+02  0.47000000000E+01 0. -1.
        -11    1    6    6    0    0 -0.99908811804E+01  0.84357520778E+01  0.19796950439E+02  0.23725489806E+02  0.00000000000E+00 0.  1.
         12    1    6    6    0    0  0.85216573132E+02 -0.87151180057E+02  0.19498457033E+03  0.22994820110E+03  0.00000000000E+00 0. -1.
         -5    1    3    3    0  503 -0.38739515890E+02 -0.26510786804E+02 -0.12292421429E+02  0.48752082344E+02  0.47000000000E+01 0.  1.
         13    1    4    4    0    0  0.24995070007E+02  0.97888743855E+02  0.41454221101E+02  0.10920353541E+03  0.00000000000E+00 0. -1.
        -14    1    4    4    0    0 -0.14190848602E+02 -0.39034295725E+01  0.38166606681E+02  0.40906073046E+02  0.00000000000E+00 0.  1.
</event>
<event>
12    1  0.8053217E-002  0.2206635E+03  0.7818608E-02  0.1135354E+00
         21   -1    0    0  501  502  0.00000000000E+00  0.00000000000E+00  0.11453413501E+03  0.11453413501E+03  0.00000000000E+00 0. -1.
         21   -1    0    0  502  503 -0.00000000000E+00 -0.00000000000E+00 -0.76024867739E+03  0.76024867739E+03  0.00000000000E+00 0. -1.
         -6    2    1    2    0  503  0.55893640085E+01  0.12198780753E+03 -0.62571555243E+03  0.66348499957E+03  0.18379370481E+03 0.  0.
        -24    2    3    3    0    0 -0.58188739524E+02  0.87009073889E+02 -0.51088360301E+03  0.52747167337E+03  0.79169451403E+02 0.  0.
          6    2    1    2  501    0 -0.55893640085E+01 -0.12198780753E+03 -0.19998989954E+02  0.21129781283E+03  0.17127329018E+03 0.  0.
         24    2    5    5    0    0 -0.45381500018E+02 -0.24976025279E+02  0.22766974077E+02  0.97958862492E+02  0.79964499932E+02 0.  0.
          5    1    5    5  501    0  0.39792136009E+02 -0.97011782255E+02 -0.42765964031E+02  0.11333895034E+03  0.47000000000E+01 0. -1.
        -11    1    6    6    0    0 -0.47219445879E+02 -0.48947447061E+02  0.27666043480E+02  0.73423011411E+02  0.00000000000E+00 0.  1.
         12    1    6    6    0    0  0.18379458615E+01  0.23971421782E+02 -0.48990694029E+01  0.24535851080E+02  0.00000000000E+00 0. -1.
         -5    1    3    3    0  503  0.63778103533E+02  0.34978733645E+02 -0.11483194942E+03  0.13601332621E+03  0.47000000000E+01 0.  1.
         13    1    4    4    0    0 -0.23749711286E+02  0.55944941481E+02 -0.12696931003E+03  0.14076608595E+03  0.00000000000E+00 0. -1.
        -14    1    4    4    0    0 -0.34439028238E+02  0.31064132407E+02 -0.38391429298E+03  0.38670558742E+03  0.00000000000E+00 0.  1.
</event>
<event>
12    1  0.8053217E-002  0.1992104E+03  0.7818608E-02  0.1150535E+00
         21   -1    0    0  501  502  0.00000000000E+00  0.00000000000E+00  0.20976625649E+04  0.20976625649E+04  0.00000000000E+00 0.  1.
         21   -1    0    0  502  503 -0.00000000000E+00 -0.00000000000E+00 -0.19277690476E+02  0.19277690476E+02  0.00000000000E+00 0.  1.
         -6    2    1    2    0  503  0.24371291258E+02 -0.98356406980E+02  0.11932322891E+04  0.12096476456E+04  0.17081038629E+03 0.  0.
        -24    2    3    3    0    0 -0.39456635586E+02 -0.99315523571E+02  0.81341714571E+03  0.82447682983E+03  0.81818033986E+02 0.  0.
          6    2    1    2  501    0 -0.24371291258E+02  0.98356406980E+02  0.88515258536E+03  0.90729260984E+03  0.17151337518E+03 0.  0.
         24    2    5    5    0    0  0.24257089117E+02  0.46501236179E+02  0.24753869897E+03  0.26571078635E+03  0.81092805812E+02 0.  0.
          5    1    5    5  501    0 -0.48628380374E+02  0.51855170801E+02  0.63761388638E+03  0.64158182349E+03  0.47000000000E+01 0. -1.
        -13    1    6    6    0    0 -0.24696504610E+02  0.38415301958E+02  0.97156652522E+02  0.10735486898E+03  0.00000000000E+00 0.  1.
         14    1    6    6    0    0  0.48953593727E+02  0.80859342217E+01  0.15038204645E+03  0.15835591737E+03  0.00000000000E+00 0. -1.
         -5    1    3    3    0  503  0.63827926844E+02  0.95911659041E+00  0.37981514338E+03  0.38517081573E+03  0.47000000000E+01 0.  1.
         11    1    4    4    0    0 -0.15126587256E+02  0.12713381201E+02  0.13594696183E+03  0.13737547138E+03  0.00000000000E+00 0. -1.
        -12    1    4    4    0    0 -0.24330048330E+02 -0.11202890477E+03  0.67747018387E+03  0.68710135846E+03  0.00000000000E+00 0.  1.
</event>
<event>
12    1  0.8053217E-002  0.1744391E+03  0.7818608E-02  0.1173544E+00
         21   -1    0    0  501  502  0.00000000000E+00  0.00000000000E+00  0.18885305189E+03  0.18885305189E+03  0.00000000000E+00 0.  1.
         21   -1    0    0  502  503 -0.00000000000E+00 -0.00000000000E+00 -0.23795634579E+03  0.23795634579E+03  0.00000000000E+00 0.  1.
         -6    2    1    2    0  503 -0.29335310039E+02  0.87826755793E+01 -0.14657021824E+03  0.22784165392E+03  0.17173029605E+03 0.  0.
        -24    2    3    3    0    0 -0.25448356733E+02  0.71469964060E+02 -0.10106757656E+03  0.15014104296E+03  0.81068508856E+02 0.  0.
          6    2    1    2  501    0  0.29335310039E+02 -0.87826755793E+01  0.97466924340E+02  0.19896774376E+03  0.17073566092E+03 0.  0.
         24    2    5    5    0    0  0.18259589254E+02 -0.25029895520E+02  0.12962711913E+03  0.16098074762E+03  0.90286780978E+02 0.  0.
          5    1    5    5  501    0  0.11075720785E+02  0.16247219941E+02 -0.32160194793E+02  0.37986996141E+02  0.47000000000E+01 0. -1.
        -13    1    6    6    0    0  0.44369431823E+02 -0.44296031752E+02  0.91434833804E+02  0.11086529548E+03  0.00000000000E+00 0.  1.
         14    1    6    6    0    0 -0.26109842568E+02  0.19266136232E+02  0.38192285329E+02  0.50115452137E+02  0.00000000000E+00 0. -1.
         -5    1    3    3    0  503 -0.38869533066E+01 -0.62687288481E+02 -0.45502641680E+02  0.77700610956E+02  0.47000000000E+01 0.  1.
         13    1    4    4    0    0  0.28608319462E+02  0.14630375479E+02 -0.23356082510E+02  0.39723927541E+02  0.00000000000E+00 0. -1.
        -14    1    4    4    0    0 -0.54056676195E+02  0.56839588582E+02 -0.77711494045E+02  0.11041711542E+03  0.00000000000E+00 0.  1.
</event>
<event>
12    1  0.8053217E-002  0.1966164E+03  0.7818608E-02  0.1152942E+00
         21   -1    0    0  501  502  0.00000000000E+00  0.00000000000E+00  0.90413370711E+03  0.90413370711E+03  0.00000000000E+00 0. -1.
         21   -1    0    0  502  503 -0.00000000000E+00 -0.00000000000E+00 -0.43625347061E+02  0.43625347061E+02  0.00000000000E+00 0. -1.
         -6    2    1    2    0  503  0.50618605597E+02  0.80000721727E+02  0.50682204892E+03  0.54309621667E+03  0.17065331108E+03 0.  0.
        -24    2    3    3    0    0  0.90462970543E+02  0.57229789902E+02  0.26217930764E+03  0.29414190436E+03  0.79515235386E+02 0.  0.
          6    2    1    2  501    0 -0.50618605597E+02 -0.80000721727E+02  0.35368631114E+03  0.40466283751E+03  0.17232424862E+03 0.  0.
         24    2    5    5    0    0 -0.55245878307E+02  0.17906177334E+02  0.16017179987E+03  0.18769019267E+03  0.78739219543E+02 0.  0.
          5    1    5    5  501    0  0.46272727096E+01 -0.97906899060E+02  0.19351451126E+03  0.21697264483E+03  0.47000000000E+01 0. -1.
        -13    1    6    6    0    0 -0.70994198691E+02 -0.27578880706E+01  0.10596699139E+03  0.12758050579E+03  0.00000000000E+00 0.  1.
         14    1    6    6    0    0  0.15748320384E+02  0.20664065404E+02  0.54204808485E+02  0.60109686880E+02  0.00000000000E+00 0. -1.
         -5    1    3    3    0  503 -0.39844364945E+02  0.22770931825E+02  0.24464274128E+03  0.24895431231E+03  0.47000000000E+01 0.  1.
         13    1    4    4    0    0  0.68358955862E+02  0.77472456132E+02  0.20669558467E+03  0.23108005761E+03  0.00000000000E+00 0. -1.
        -14    1    4    4    0    0  0.22104014681E+02 -0.20242666230E+02  0.55483722969E+02  0.63061846751E+02  0.00000000000E+00 0.  1.
</event>
<event>
12    1  0.8053217E-002  0.1850344E+03  0.7818608E-02  0.1164548E+00
         21   -1    0    0  501  502  0.00000000000E+00  0.00000000000E+00  0.31387594456E+03  0.31387594456E+03  0.00000000000E+00 0. -1.
         21   -1    0    0  502  503 -0.00000000000E+00 -0.00000000000E+00 -0.16157599001E+03  0.16157599001E+03  0.00000000000E+00 0. -1.
         -6    2    1    2    0  503 -0.40000152300E+02  0.28769091083E+02 -0.64984813153E+02  0.19005676764E+03  0.17167083678E+03 0.  0.
        -24    2    3    3    0    0  0.15281143904E+02  0.66030259171E+02 -0.64171203854E+02  0.12321988922E+03  0.80446809813E+02 0.  0.
          6    2    1    2  501    0  0.40000152300E+02 -0.28769091083E+02  0.21728476770E+03  0.28539516694E+03  0.17835374470E+03 0.  0.
         24    2    5    5    0    0  0.41979751919E+02  0.17049007098E+02  0.22113624969E+03  0.23913351058E+03  0.78934319166E+02 0.  0.
          5    1    5    5  501    0 -0.19795996194E+01 -0.45818098181E+02 -0.38514819818E+01  0.46261656359E+02  0.47000000000E+01 0. -1.
        -11    1    6    6    0    0  0.32907732497E+02 -0.20416949195E+02  0.47583199677E+02  0.61350888861E+02  0.00000000000E+00 0.  1.
         12    1    6    6    0    0  0.90720194223E+01  0.37465956293E+02  0.17355305001E+03  0.17778262172E+03  0.00000000000E+00 0. -1.
         -5    1    3    3    0  503 -0.55281296204E+02 -0.37261168088E+02 -0.81360929881E+00  0.66836878423E+02  0.47000000000E+01 0.  1.
         11    1    4    4    0    0  0.45932768778E+02  0.27763729749E+02 -0.20153990696E+02  0.57330857992E+02  0.00000000000E+00 0. -1.
        -12    1    4    4    0    0 -0.30651624874E+02  0.38266529422E+02 -0.44017213157E+02  0.65889031223E+02  0.00000000000E+00 0.  1.
</event>
<event>
12    1  0.8053217E-002  0.1933545E+03  0.7818608E-02  0.1155517E+00
         21   -1    0    0  503  502  0.00000000000E+00  0.00000000000E+00  0.13367887007E+04  0.13367887007E+04  0.00000000000E+00 0. -1.
         21   -1    0    0  501  503 -0.00000000000E+00 -0.00000000000E+00 -0.39715409084E+02  0.39715409084E+02  0.00000000000E+00 0. -1.
          6    2    1    2  501    0  0.87424274945E+02 -0.83049094261E+00  0.27396717155E+03  0.33532668921E+03  0.17245951364E+03 0.  0.
         24    2    3    3    0    0  0.44527086218E+02  0.38938038341E+02  0.25416642558E+03  0.27339233474E+03  0.81510518131E+02 0.  0.
         -6    2    1    2    0  502 -0.87424274945E+02  0.83049094261E+00  0.10231061201E+04  0.10411774206E+04  0.17222251489E+03 0.  0.
        -24    2    5    5    0    0 -0.11970698532E+03  0.28068720081E+02  0.87225524208E+03  0.88445418712E+03  0.79450527981E+02 0.  0.
          5    1    3    3  501    0  0.42897188727E+02 -0.39768529284E+02  0.19800745966E+02  0.61934354464E+02  0.47000000000E+01 0. -1.
        -13    1    4    4    0    0  0.80046418733E+01  0.58479023689E+02  0.13946753342E+03  0.15144326786E+03  0.00000000000E+00 0.  1.
         14    1    4    4    0    0  0.36522444345E+02 -0.19540985348E+02  0.11469889217E+03  0.12194906689E+03  0.00000000000E+00 0. -1.
         -5    1    5    5    0  502  0.32282710375E+02 -0.27238229138E+02  0.15085087798E+03  0.15672323345E+03  0.47000000000E+01 0.  1.
         13    1    6    6    0    0 -0.78074824901E+02 -0.16368656623E+02  0.36873440431E+03  0.37726472420E+03  0.00000000000E+00 0. -1.
        -14    1    6    6    0    0 -0.41632160419E+02  0.44437376704E+02  0.50352083777E+03  0.50718946292E+03  0.00000000000E+00 0.  1.
</event>
<event>
12    1  0.8053217E-002  0.3384150E+03  0.7818608E-02  0.1067841E+00
         21   -1    0    0  503  502  0.00000000000E+00  0.00000000000E+00  0.56411945248E+03  0.56411945248E+03  0.00000000000E+00 0. -1.
         21   -1    0    0  501  503 -0.00000000000E+00 -0.00000000000E+00 -0.33536452878E+03  0.33536452878E+03  0.00000000000E+00 0. -1.
          6    2    1    2  501    0  0.28667055994E+03 -0.22238952664E+02 -0.16997631926E+03  0.37870390001E+03  0.17846600187E+03 0.  0.
         24    2    3    3    0    0  0.20283865632E+03  0.15260988190E+01 -0.38318760719E+02  0.22075337466E+03  0.78216849374E+02 0.  0.
         -6    2    1    2    0  502 -0.28667055994E+03  0.22238952664E+02  0.39873124297E+03  0.52078008125E+03  0.17190319356E+03 0.  0.
        -24    2    5    5    0    0 -0.19268954467E+03  0.78000589536E+02  0.23286530829E+03  0.32209593577E+03  0.79411506992E+02 0.  0.
          5    1    3    3  501    0  0.83831903620E+02 -0.23765051483E+02 -0.13165755854E+03  0.15795052535E+03  0.47000000000E+01 0. -1.
        -11    1    4    4    0    0  0.10423133330E+03  0.35826914012E+02 -0.37262144660E+02  0.11634520202E+03  0.00000000000E+00 0.  1.
         12    1    4    4    0    0  0.98607323022E+02 -0.34300815193E+02 -0.10566160589E+01  0.10440817264E+03  0.00000000000E+00 0. -1.
         -5    1    5    5    0  502 -0.93981015273E+02 -0.55761636871E+02  0.16586593468E+03  0.19868414548E+03  0.47000000000E+01 0.  1.
         13    1    6    6    0    0 -0.13167326087E+03  0.29550787166E+02  0.19036611391E+03  0.23334599627E+03  0.00000000000E+00 0. -1.
        -14    1    6    6    0    0 -0.61016283800E+02  0.48449802369E+02  0.42499194378E+02  0.88749939499E+02  0.00000000000E+00 0.  1.
</event>
<event>
12    1  0.8053217E-002  0.1899324E+03  0.7818608E-02  0.1158630E+00
         21   -1    0    0  501  502  0.00000000000E+00  0.00000000000E+00  0.21688018657E+03  0.21688018657E+03  0.00000000000E+00 0.  1.
         21   -1    0    0  502  503 -0.00000000000E+00 -0.00000000000E+00 -0.17024198881E+03  0.17024198881E+03  0.00000000000E+00 0.  1.
         -6    2    1    2    0  503  0.80379648794E+02 -0.14692217704E+01 -0.75710283955E+01  0.18960516373E+03  0.17155101600E+03 0.  0.
        -24    2    3    3    0    0  0.12189690023E+03  0.14844950677E+01  0.75484293769E+01  0.14507321326E+03  0.78282823200E+02 0.  0.
          6    2    1    2  501    0 -0.80379648794E+02  0.14692217704E+01  0.54209226159E+02  0.19751701165E+03  0.17207929317E+03 0.  0.
         24    2    5    5    0    0 -0.87415214236E+01 -0.43699100136E+02  0.64819326237E+02  0.11203682201E+03  0.79778937585E+02 0.  0.
          5    1    5    5  501    0 -0.71638127371E+02  0.45168321907E+02 -0.10610100078E+02  0.85480189639E+02  0.47000000000E+01 0. -1.
        -13    1    6    6    0    0  0.26599454100E+02  0.81725666066E+01  0.26911548084E+02  0.38711151154E+02  0.00000000000E+00 0.  1.
         14    1    6    6    0    0 -0.35340975524E+02 -0.51871666743E+02  0.37907778153E+02  0.73325670854E+02  0.00000000000E+00 0. -1.
         -5    1    3    3    0  503 -0.41517251432E+02 -0.29537168381E+01 -0.15119457772E+02  0.44531950473E+02  0.47000000000E+01 0.  1.
         13    1    4    4    0    0  0.41998121004E+02  0.36358876494E+02  0.15107957976E+02  0.57567876997E+02  0.00000000000E+00 0. -1.
        -14    1    4    4    0    0  0.79898779223E+02 -0.34874381427E+02 -0.75595285994E+01  0.87505336259E+02  0.00000000000E+00 0.  1.
</event>
<event>
12    1  0.8053217E-002  0.2582554E+03  0.7818608E-02  0.1108235E+00
         21   -1    0    0  503  502  0.00000000000E+00  0.00000000000E+00  0.19319778204E+03  0.19319778204E+03  0.00000000000E+00 0. -1.
         21   -1    0    0  501  503 -0.00000000000E+00 -0.00000000000E+00 -0.48597489739E+03  0.48597489739E+03  0.00000000000E+00 0. -1.
          6    2    1    2  501    0 -0.17452823815E+03  0.82302468959E+02 -0.32931865539E+03  0.41834492328E+03  0.17125389263E+03 0.  0.
         24    2    3    3    0    0 -0.42062050402E+02 -0.11340516999E+02 -0.85805370432E+02  0.12570673427E+03  0.80881382512E+02 0.  0.
         -6    2    1    2    0  502  0.17452823815E+03 -0.82302468959E+02  0.36541540037E+02  0.26082775616E+03  0.17164507544E+03 0.  0.
        -24    2    5    5    0    0  0.16935320283E+03 -0.69380705099E+02  0.79657757760E+02  0.21527722155E+03  0.80651932392E+02 0.  0.
          5    1    3    3  501    0 -0.13246618775E+03  0.93642985958E+02 -0.24351328496E+03  0.29263818901E+03  0.47000000000E+01 0. -1.
        -13    1    4    4    0    0  0.16168866679E+02  0.29649327913E+01 -0.56736247815E+02  0.59069661353E+02  0.00000000000E+00 0.  1.
         14    1    4    4    0    0 -0.58230917081E+02 -0.14305449790E+02 -0.29069122617E+02  0.66637072921E+02  0.00000000000E+00 0. -1.
         -5    1    5    5    0  502  0.51750353171E+01 -0.12921763860E+02 -0.43116217722E+02  0.45550534601E+02  0.47000000000E+01 0.  1.
         13    1    6    6    0    0  0.14925060541E+03 -0.29118946518E+02  0.76346529398E+02  0.17015419129E+03  0.00000000000E+00 0. -1.
        -14    1    6    6    0    0  0.20102597425E+02 -0.40261758581E+02  0.33112283616E+01  0.45123030267E+02  0.00000000000E+00 0.  1.
</event>
<event>
12    1  0.8053217E-002  0.1905816E+03  0.7818608E-02  0.1158252E+00
         21   -1    0    0  501  502  0.00000000000E+00  0.00000000000E+00  0.71758917540E+02  0.71758917540E+02  0.00000000000E+00 0.  1.
         21   -1    0    0  502  503 -0.00000000000E+00 -0.00000000000E+00 -0.12884609419E+04  0.12884609419E+04  0.00000000000E+00 0. -1.
         -6    2    1    2    0  503 -0.27879940149E+02  0.74551415659E+02 -0.11386745975E+04  0.11542839200E+04  0.17162844860E+03 0.  0.
        -24    2    3    3    0    0 -0.87155707630E+01  0.74759567198E+02 -0.38414180118E+03  0.39949312310E+03  0.79780185070E+02 0.  0.
          6    2    1    2  501    0  0.27879940149E+02 -0.74551415659E+02 -0.78027426944E+02  0.20593593951E+03  0.17316502876E+03 0.  0.
         24    2    5    5    0    0  0.71693577375E+02 -0.10981482903E+01 -0.42315985570E+02  0.11313284506E+03  0.76597800429E+02 0.  0.
          5    1    5    5  501    0 -0.43813637226E+02 -0.73453267369E+02 -0.35711441373E+02  0.92803094448E+02  0.47000000000E+01 0. -1.
        -13    1    6    6    0    0  0.40931395054E+02 -0.15893057464E+02  0.15018610990E+02  0.46406110080E+02  0.00000000000E+00 0.  1.
         14    1    6    6    0    0  0.30762182321E+02  0.14794909174E+02 -0.57334596561E+02  0.66726734982E+02  0.00000000000E+00 0. -1.
         -5    1    3    3    0  503 -0.19164369386E+02 -0.20815153911E+00 -0.75453279627E+03  0.75479079687E+03  0.47000000000E+01 0.  1.
         11    1    4    4    0    0  0.25310375219E+02  0.33641085343E+02 -0.27269803730E+03  0.27592853652E+03  0.00000000000E+00 0. -1.
        -12    1    4    4    0    0 -0.34025945982E+02  0.41118481856E+02 -0.11144376388E+03  0.12356458658E+03  0.00000000000E+00 0.  1.
</event>
<event>
12    1  0.8053217E-002  0.1852818E+03  0.7818608E-02  0.1162819E+00
         21   -1    0    0  501  502  0.00000000000E+00  0.00000000000E+00  0.66036356361E+02  0.66036356361E+02  0.00000000000E+00 0. -1.
         21   -1    0    0  502  503 -0.00000000000E+00 -0.00000000000E+00 -0.51948679595E+03  0.51948679595E+03  0.00000000000E+00 0. -1.
         -6    2    1    2    0  503  0.53682321535E+02 -0.41602906345E+02 -0.22822621412E+03  0.29396695167E+03  0.17238552839E+03 0.  0.
        -24    2    3    3    0    0  0.60957133223E+02  0.19672867548E+02 -0.69029165875E+02  0.12316462873E+03  0.79383286778E+02 0.  0.
          6    2    1    2  501    0 -0.53682321535E+02  0.41602906345E+02 -0.22522422547E+03  0.29155620065E+03  0.17223958005E+03 0.  0.
         24    2    5    5    0    0  0.99688094849E+01  0.61981967134E+02 -0.69257797970E+02  0.12180818415E+03  0.78098973957E+02 0.  0.
          5    1    5    5  501    0 -0.63651131020E+02 -0.20379060788E+02 -0.15596642750E+03  0.16974801650E+03  0.47000000000E+01 0. -1.
        -13    1    6    6    0    0  0.23909278840E+02  0.76051825453E+01  0.79780374580E+01  0.26327580555E+02  0.00000000000E+00 0.  1.
         14    1    6    6    0    0 -0.13940469355E+02  0.54376784588E+02 -0.77235835428E+02  0.95480603592E+02  0.00000000000E+00 0. -1.
         -5    1    3    3    0  503 -0.72748116871E+01 -0.61275773894E+02 -0.15919704825E+03  0.17080232294E+03  0.47000000000E+01 0.  1.
         11    1    4    4    0    0  0.34301854102E+02  0.50621723490E+02 -0.42157899416E+02  0.74272906010E+02  0.00000000000E+00 0. -1.
        -12    1    4    4    0    0  0.26655279120E+02 -0.30948855942E+02 -0.26871266458E+02  0.48891722717E+02  0.00000000000E+00 0.  1.
</event>
<event>
12    1  0.8053217E-002  0.2196609E+03  0.7818608E-02  0.1134333E+00
         21   -1    0    0  503  502  0.00000000000E+00  0.00000000000E+00  0.13623298546E+03  0.13623298546E+03  0.00000000000E+00 0. -1.
         21   -1    0    0  501  503 -0.00000000000E+00 -0.00000000000E+00 -0.56424358811E+03  0.56424358811E+03  0.00000000000E+00 0. -1.
          6    2    1    2  501    0  0.60231381438E+02 -0.12073889899E+03 -0.42824486268E+03  0.48081551886E+03  0.17200058061E+03 0.  0.
         24    2    3    3    0    0  0.40135518051E+02  0.63981276481E+01 -0.17039986419E+03  0.19259025884E+03  0.80019361654E+02 0.  0.
         -6    2    1    2    0  502 -0.60231381438E+02  0.12073889899E+03  0.23426002711E+00  0.21966105471E+03  0.17333557927E+03 0.  0.
        -24    2    5    5    0    0  0.74520582917E+00  0.11544878156E+03  0.41452600440E+02  0.14572073334E+03  0.78658995338E+02 0.  0.
          5    1    3    3  501    0  0.20095863387E+02 -0.12713702664E+03 -0.25784499849E+03  0.28822526002E+03  0.47000000000E+01 0. -1.
        -13    1    4    4    0    0  0.55623939374E+02 -0.17006324869E+01 -0.64201348089E+02  0.84963097159E+02  0.00000000000E+00 0.  1.
         14    1    4    4    0    0 -0.15488421323E+02  0.80987601350E+01 -0.10619851610E+03  0.10762716168E+03  0.00000000000E+00 0. -1.
         -5    1    5    5    0  502 -0.60976587267E+02  0.52901174289E+01 -0.41218340413E+02  0.73940321365E+02  0.47000000000E+01 0.  1.
         13    1    6    6    0    0 -0.36467695736E+02  0.33129828135E+02  0.12115830942E+02  0.50737281204E+02  0.00000000000E+00 0. -1.
        -14    1    6    6    0    0  0.37212901565E+02  0.82318953425E+02  0.29336769498E+02  0.94983452140E+02  0.00000000000E+00 0.  1.
</event>
<event>
12    1  0.8053217E-002  0.1951659E+03  0.7818608E-02  0.1154125E+00
         21   -1    0    0  501  502  0.00000000000E+00  0.00000000000E+00  0.34087125289E+03  0.34087125289E+03  0.00000000000E+00 0.  1.
         21   -1    0    0  502  503 -0.00000000000E+00 -0.00000000000E+00 -0.22423347078E+03  0.22423347078E+03  0.00000000000E+00 0.  1.
         -6    2    1    2    0  503  0.71327389262E+00  0.90658263181E+02 -0.14245406640E+03  0.24073097589E+03  0.17157742355E+03 0.  0.
        -24    2    3    3    0    0 -0.47934693070E+02  0.40754198138E+02 -0.25935216394E+02  0.10487895049E+03  0.79801750232E+02 0.  0.
          6    2    1    2  501    0 -0.71327389262E+00 -0.90658263181E+02  0.25909184852E+03  0.32437374778E+03  0.17283030069E+03 0.  0.
         24    2    5    5    0    0 -0.13503699109E+02 -0.21161950664E+02  0.36465083184E+02  0.90754187225E+02  0.79223999910E+02 0.  0.
          5    1    5    5  501    0  0.12790425217E+02 -0.69496312517E+02  0.22262676533E+03  0.23361956055E+03  0.47000000000E+01 0. -1.
        -13    1    6    6    0    0  0.15575704838E+02 -0.41362115427E+02  0.33039463735E+02  0.55181820717E+02  0.00000000000E+00 0.  1.
         14    1    6    6    0    0 -0.29079403947E+02  0.20200164763E+02  0.34256194491E+01  0.35572366508E+02  0.00000000000E+00 0. -1.
         -5    1    3    3    0  503  0.48647966962E+02  0.49904065044E+02 -0.11651885001E+03  0.13585202540E+03  0.47000000000E+01 0.  1.
         11    1    4    4    0    0  0.10374718454E+02  0.41793973292E+02 -0.74602378668E+01  0.43703845776E+02  0.00000000000E+00 0. -1.
        -12    1    4    4    0    0 -0.58309411524E+02 -0.10397751547E+01 -0.18474978527E+02  0.61175104709E+02  0.00000000000E+00 0.  1.
</event>
<event>
12    1  0.8053217E-002  0.2057204E+03  0.7818608E-02  0.1145045E+00
         21   -1    0    0  503  502  0.00000000000E+00  0.00000000000E+00  0.74303004951E+02  0.74303004951E+02  0.00000000000E+00 0. -1.
         21   -1    0    0  501  503 -0.00000000000E+00 -0.00000000000E+00 -0.58343003105E+03  0.58343003105E+03  0.00000000000E+00 0. -1.
          6    2    1    2  501    0  0.10896697247E+03 -0.29931668608E+02 -0.20266205008E+03  0.28862376619E+03  0.17164517468E+03 0.  0.
         24    2    3    3    0    0  0.33780460703E+02  0.31673402781E+02 -0.44177701343E+02  0.10264641497E+03  0.80251437624E+02 0.  0.
         -6    2    1    2    0  502 -0.10896697247E+03  0.29931668608E+02 -0.30646497601E+03  0.36910926980E+03  0.17190452483E+03 0.  0.
        -24    2    5    5    0    0 -0.73774471624E+02  0.49217278915E+02 -0.30632295941E+03  0.32870435612E+03  0.79672988303E+02 0.  0.
          5    1    3    3  501    0  0.75186511769E+02 -0.61605071389E+02 -0.15848434874E+03  0.18597735123E+03  0.47000000000E+01 0. -1.
        -11    1    4    4    0    0  0.31060956246E+02 -0.12536236673E+01 -0.58803517089E+02  0.66514721657E+02  0.00000000000E+00 0.  1.
         12    1    4    4    0    0  0.27195044578E+01  0.32927026449E+02  0.14625815745E+02  0.36131693310E+02  0.00000000000E+00 0. -1.
         -5    1    5    5    0  502 -0.35192500849E+02 -0.19285610307E+02 -0.14201660143E+00  0.40404913682E+02  0.47000000000E+01 0.  1.
         13    1    6    6    0    0  0.14245420219E+02  0.92412294970E+01 -0.92466702549E+02  0.94012889542E+02  0.00000000000E+00 0. -1.
        -14    1    6    6    0    0 -0.88019891843E+02  0.39976049418E+02 -0.21385625686E+03  0.23469146658E+03  0.00000000000E+00 0.  1.
</event>
<event>
12    1  0.8053217E-002  0.2596510E+03  0.7818608E-02  0.1108118E+00
         21   -1    0    0  503  502  0.00000000000E+00  0.00000000000E+00  0.62808853838E+03  0.62808853838E+03  0.00000000000E+00 0. -1.
         21   -1    0    0  501  503 -0.00000000000E+00 -0.00000000000E+00 -0.11360706231E+03  0.11360706231E+03  0.00000000000E+00 0.  1.
          6    2    1    2  501    0 -0.18278030535E+03 -0.53670088153E+02  0.35536509974E+03  0.43716863549E+03  0.16894656955E+03 0.  0.
         24    2    3    3    0    0 -0.17005025857E+03  0.19766159250E+01  0.21343434099E+03  0.28411622602E+03  0.79036792225E+02 0.  0.
         -6    2    1    2    0  502  0.18278030535E+03  0.53670088153E+02  0.15911637634E+03  0.30452696520E+03  0.17643563395E+03 0.  0.
        -24    2    5    5    0    0  0.13630961955E+03  0.86574541238E+02  0.16781936138E+03  0.24673371628E+03  0.81478372136E+02 0.  0.
          5    1    3    3  501    0 -0.12730046777E+02 -0.55646704078E+02  0.14193075875E+03  0.15305240947E+03  0.47000000000E+01 0. -1.
        -13    1    4    4    0    0 -0.82628558213E+02  0.42428075653E+01  0.44636868048E+02  0.94010265596E+02  0.00000000000E+00 0.  1.
         14    1    4    4    0    0 -0.87421700357E+02 -0.22661916403E+01  0.16879747294E+03  0.19010596043E+03  0.00000000000E+00 0. -1.
         -5    1    5    5    0  502  0.46470685801E+02 -0.32904453084E+02 -0.87029850370E+01  0.57793248915E+02  0.47000000000E+01 0.  1.
         13    1    6    6    0    0  0.11618811647E+03  0.38080682028E+02  0.85877749238E+02  0.14941487398E+03  0.00000000000E+00 0. -1.
        -14    1    6    6    0    0  0.20121503078E+02  0.48493859209E+02  0.81941612138E+02  0.97318842301E+02  0.00000000000E+00 0.  1.
</event>
<event>
12    1  0.8053217E-002  0.1873877E+03  0.7818608E-02  0.1161046E+00
         21   -1    0    0  501  502  0.00000000000E+00  0.00000000000E+00  0.90941828882E+02  0.90941828882E+02  0.00000000000E+00 0.  1.
         21   -1    0    0  502  503 -0.00000000000E+00 -0.00000000000E+00 -0.43918514629E+03  0.43918514629E+03  0.00000000000E+00 0.  1.
         -6    2    1    2    0  503 -0.34602135459E+02  0.56362572641E+02 -0.26822666416E+03  0.32719979618E+03  0.17532859402E+03 0.  0.
        -24    2    3    3    0    0 -0.38998368659E+02  0.10463987388E+03 -0.21703255538E+03  0.25653897637E+03  0.78985697056E+02 0.  0.
          6    2    1    2  501    0  0.34602135459E+02 -0.56362572641E+02 -0.80016653246E+02  0.20292717899E+03  0.17436378008E+03 0.  0.
         24    2    5    5    0    0 -0.47343854223E+02 -0.46333745906E+02 -0.47067727714E+02  0.11391344812E+03  0.79828855229E+02 0.  0.
          5    1    5    5  501    0  0.81945989682E+02 -0.10028826735E+02 -0.32948925532E+02  0.89013730875E+02  0.47000000000E+01 0. -1.
        -11    1    6    6    0    0  0.37759171001E+00 -0.36146802399E+02  0.11263754724E+02  0.37862990765E+02  0.00000000000E+00 0.  1.
         12    1    6    6    0    0 -0.47721445933E+02 -0.10186943507E+02 -0.58331482438E+02  0.76050457351E+02  0.00000000000E+00 0. -1.
         -5    1    3    3    0  503  0.43962331996E+01 -0.48277301243E+02 -0.51194108777E+02  0.70660819802E+02  0.47000000000E+01 0.  1.
         11    1    4    4    0    0 -0.57450345886E+02  0.56943787956E+02 -0.98588140433E+02  0.12752552162E+03  0.00000000000E+00 0. -1.
        -12    1    4    4    0    0  0.18451977228E+02  0.47696085928E+02 -0.11844441495E+03  0.12901345476E+03  0.00000000000E+00 0.  1.
</event>
<event>
12    1  0.8053217E-002  0.2275714E+03  0.7818608E-02  0.1130121E+00
         21   -1    0    0  503  502  0.00000000000E+00  0.00000000000E+00  0.26335376950E+03  0.26335376950E+03  0.00000000000E+00 0.  1.
         21   -1    0    0  501  503 -0.00000000000E+00 -0.00000000000E+00 -0.24432760086E+03  0.24432760086E+03  0.00000000000E+00 0. -1.
          6    2    1    2  501    0 -0.95534867456E+02  0.93806343004E+02 -0.11174429708E+03  0.25352617242E+03  0.18401682337E+03 0.  0.
         24    2    3    3    0    0 -0.10280672516E+02  0.16875145378E+02 -0.11197050812E+03  0.13859650656E+03  0.79253606750E+02 0.  0.
         -6    2    1    2    0  502  0.95534867456E+02 -0.93806343004E+02  0.13077046573E+03  0.25415519794E+03  0.17195176372E+03 0.  0.
        -24    2    5    5    0    0 -0.17772688766E+02 -0.65401599583E+02  0.62291325114E+02  0.11866750682E+03  0.74890121491E+02 0.  0.
          5    1    3    3  501    0 -0.85254194940E+02  0.76931197626E+02  0.22621103398E+00  0.11492966586E+03  0.47000000000E+01 0. -1.
        -11    1    4    4    0    0  0.19340852207E+01  0.40683492465E+02 -0.10235754695E+03  0.11016330906E+03  0.00000000000E+00 0.  1.
         12    1    4    4    0    0 -0.12214757736E+02 -0.23808347087E+02 -0.96129611647E+01  0.28433197497E+02  0.00000000000E+00 0. -1.
         -5    1    5    5    0  502  0.11330755622E+03 -0.28404743421E+02  0.68479140613E+02  0.13548769112E+03  0.47000000000E+01 0.  1.
         13    1    6    6    0    0 -0.31627636637E+02 -0.49321438320E+02  0.64703719515E+01  0.58947242433E+02  0.00000000000E+00 0. -1.
        -14    1    6    6    0    0  0.13854947871E+02 -0.16080161262E+02  0.55820953163E+02  0.59720264390E+02  0.00000000000E+00 0.  1.
</event>
<event>
12    1  0.8053217E-002  0.2162085E+03  0.7818608E-02  0.1136767E+00
         21   -1    0    0  501  502  0.00000000000E+00  0.00000000000E+00  0.27558943080E+03  0.27558943080E+03  0.00000000000E+00 0.  1.
         21   -1    0    0  502  503 -0.00000000000E+00 -0.00000000000E+00 -0.21474064314E+03  0.21474064314E+03  0.00000000000E+00 0.  1.
         -6    2    1    2    0  503  0.42891067791E+02  0.12428336952E+03 -0.82072850093E+02  0.23126194498E+03  0.17163954916E+03 0.  0.
        -24    2    3    3    0    0 -0.33492277267E+02  0.23611107843E+02 -0.39756021076E+02  0.97912315462E+02  0.79542839133E+02 0.  0.
          6    2    1    2  501    0 -0.42891067791E+02 -0.12428336952E+03  0.14292163775E+03  0.25906812897E+03  0.17147507479E+03 0.  0.
         24    2    5    5    0    0 -0.73529959606E+02 -0.38333607387E+02  0.11671941160E+03  0.16401682726E+03  0.80012362570E+02 0.  0.
          5    1    5    5  501    0  0.30638891814E+02 -0.85949762132E+02  0.26202226149E+02  0.95051301713E+02  0.47000000000E+01 0. -1.
        -11    1    6    6    0    0 -0.48827184315E+02 -0.57897340805E+02  0.10690047316E+03  0.13101109557E+03  0.00000000000E+00 0.  1.
         12    1    6    6    0    0 -0.24702775291E+02  0.19563733417E+02  0.98189384459E+01  0.33005731692E+02  0.00000000000E+00 0. -1.
         -5    1    3    3    0  503  0.76383345058E+02  0.10067226168E+03 -0.42316829017E+02  0.13334962951E+03  0.47000000000E+01 0.  1.
         11    1    4    4    0    0 -0.88863621575E+01  0.10434799020E+02 -0.61198857945E+02  0.62714852122E+02  0.00000000000E+00 0. -1.
        -12    1    4    4    0    0 -0.24605915109E+02  0.13176308823E+02  0.21442836869E+02  0.35197463340E+02  0.00000000000E+00 0.  1.
</event>
<event>
12    1  0.8053217E-002  0.2228077E+03  0.7818608E-02  0.1131866E+00
         21   -1    0    0  503  502  0.00000000000E+00  0.00000000000E+00  0.11826621100E+03  0.11826621100E+03  0.00000000000E+00 0. -1.
         21   -1    0    0  501  503 -0.00000000000E+00 -0.00000000000E+00 -0.48335868102E+03  0.48335868102E+03  0.00000000000E+00 0.  1.
          6    2    1    2  501    0  0.13961202075E+03  0.27123170635E+02 -0.29206650866E+03  0.36715517828E+03  0.17109323988E+03 0.  0.
         24    2    3    3    0    0  0.54600281464E+02 -0.36828618079E+02 -0.85055156923E+02  0.13436210097E+03  0.80506252001E+02 0.  0.
         -6    2    1    2    0  502 -0.13961202075E+03 -0.27123170635E+02 -0.73025961353E+02  0.23446971374E+03  0.17151114514E+03 0.  0.
        -24    2    5    5    0    0 -0.16309524183E+03  0.29980231145E+01 -0.74288856554E+02  0.19596733862E+03  0.79216901915E+02 0.  0.
          5    1    3    3  501    0  0.85011739286E+02  0.63951788714E+02 -0.20701135174E+03  0.23279307732E+03  0.47000000000E+01 0. -1.
        -11    1    4    4    0    0  0.59338707742E+02  0.68947200884E+01 -0.43944760147E+02  0.74160375849E+02  0.00000000000E+00 0.  1.
         12    1    4    4    0    0 -0.47384262776E+01 -0.43723338168E+02 -0.41110396776E+02  0.60201725118E+02  0.00000000000E+00 0. -1.
         -5    1    5    5    0  502  0.23483221080E+02 -0.30121193749E+02  0.12628952013E+01  0.38502375115E+02  0.47000000000E+01 0.  1.
         11    1    6    6    0    0 -0.87470668790E+02 -0.35502931348E+02 -0.24304760484E+02  0.97479728226E+02  0.00000000000E+00 0. -1.
        -12    1    6    6    0    0 -0.75624573041E+02  0.38500954462E+02 -0.49984096070E+02  0.98487610399E+02  0.00000000000E+00 0.  1.
</event>
<event>
12    1  0.8053217E-002  0.2092696E+03  0.7818608E-02  0.1142663E+00
         21   -1    0    0  503  502  0.00000000000E+00  0.00000000000E+00  0.42943056285E+03  0.42943056285E+03  0.00000000000E+00 0. -1.
         21   -1    0    0  501  503 -0.00000000000E+00 -0.00000000000E+00 -0.16015855834E+03  0.16015855834E+03  0.00000000000E+00 0. -1.
          6    2    1    2  501    0 -0.22581367692E+02 -0.11724976580E+03 -0.44416093764E+02  0.21393123709E+03  0.17186145313E+03 0.  0.
         24    2    3    3    0    0  0.33679217924E+02 -0.81694259620E+02  0.21990056063E+02  0.11979668314E+03  0.77842410999E+02 0.  0.
         -6    2    1    2    0  502  0.22581367692E+02  0.11724976580E+03  0.31368809827E+03  0.37565788410E+03  0.16870446686E+03 0.  0.
        -24    2    5    5    0    0 -0.38762890002E+02  0.23977607948E+02  0.17401619915E+03  0.19679161342E+03  0.79798585331E+02 0.  0.
          5    1    3    3  501    0 -0.56260585617E+02 -0.35555506180E+02 -0.66406149827E+02  0.94134553956E+02  0.47000000000E+01 0. -1.
        -11    1    4    4    0    0  0.53049621382E+01 -0.73193540337E+02 -0.12381902130E+02  0.74422768497E+02  0.00000000000E+00 0.  1.
         12    1    4    4    0    0  0.28374255786E+02 -0.85007192831E+01  0.34371958194E+02  0.45373914641E+02  0.00000000000E+00 0. -1.
         -5    1    5    5    0  502  0.61344257694E+02  0.93272157852E+02  0.13967189913E+03  0.17886627068E+03  0.47000000000E+01 0.  1.
         13    1    6    6    0    0 -0.55491090009E+02  0.12940312151E+02  0.16546705959E+03  0.17500303014E+03  0.00000000000E+00 0. -1.
        -14    1    6    6    0    0  0.16728200007E+02  0.11037295797E+02  0.85491395583E+01  0.21788583276E+02  0.00000000000E+00 0.  1.
</event>
<event>
12    1  0.8053217E-002  0.2805185E+03  0.7818608E-02  0.1096056E+00
         21   -1    0    0  503  502  0.00000000000E+00  0.00000000000E+00  0.18657948295E+03  0.18657948295E+03  0.00000000000E+00 0. -1.
         21   -1    0    0  501  503 -0.00000000000E+00 -0.00000000000E+00 -0.48838503139E+03  0.48838503139E+03  0.00000000000E+00 0.  1.
          6    2    1    2  501    0 -0.21544882001E+03 -0.16943296092E+02 -0.20886467339E+02  0.28129495707E+03  0.17884445484E+03 0.  0.
         24    2    3    3    0    0 -0.15565135292E+03 -0.79426954393E+02 -0.31509228350E+02  0.19403169059E+03  0.78227109955E+02 0.  0.
         -6    2    1    2    0  502  0.21544882001E+03  0.16943296092E+02 -0.28091908110E+03  0.39366955727E+03  0.17133277815E+03 0.  0.
        -24    2    5    5    0    0  0.14980346064E+03  0.17435521251E+02 -0.91332427921E+02  0.19298387129E+03  0.78460741574E+02 0.  0.
          5    1    3    3  501    0 -0.59797467085E+02  0.62483658300E+02  0.10622761010E+02  0.87263266475E+02  0.47000000000E+01 0. -1.
        -11    1    4    4    0    0 -0.46221039195E+02  0.73820893758E+01 -0.27511743590E+02  0.54293422652E+02  0.00000000000E+00 0.  1.
         12    1    4    4    0    0 -0.10943031373E+03 -0.86809043769E+02 -0.39974847595E+01  0.13973826794E+03  0.00000000000E+00 0. -1.
         -5    1    5    5    0  502  0.65645359370E+02 -0.49222515852E+00 -0.18958665318E+03  0.20068568598E+03  0.47000000000E+01 0.  1.
         11    1    6    6    0    0  0.10461233912E+02  0.25723261291E+02 -0.33238045118E+01  0.27967324914E+02  0.00000000000E+00 0. -1.
        -12    1    6    6    0    0  0.13934222673E+03 -0.82877400403E+01 -0.88008623409E+02  0.16501654638E+03  0.00000000000E+00 0.  1.
</event>
<event>
12    1  0.8053217E-002  0.1737905E+03  0.7818608E-02  0.1174035E+00
         21   -1    0    0  501  502  0.00000000000E+00  0.00000000000E+00  0.23852590600E+03  0.23852590600E+03  0.00000000000E+00 0. -1.
         21   -1    0    0  502  503 -0.00000000000E+00 -0.00000000000E+00 -0.13994044393E+03  0.13994044393E+03  0.00000000000E+00 0. -1.
         -6    2    1    2    0  503  0.15294711684E+02 -0.20517755733E+02 -0.95587014313E+01  0.17405316176E+03  0.17189597970E+03 0.  0.
        -24    2    3    3    0    0 -0.41475251717E+01  0.19173206072E+02 -0.63082174591E+02  0.10448143473E+03  0.80945633947E+02 0.  0.
          6    2    1    2  501    0 -0.15294711684E+02  0.20517755733E+02  0.10814416350E+03  0.20441318818E+03  0.17156539539E+03 0.  0.
         24    2    5    5    0    0  0.44556666009E+02  0.52187734152E+02  0.55383196158E+02  0.11844235231E+03  0.79072348659E+02 0.  0.
          5    1    5    5  501    0 -0.59851377693E+02 -0.31669978419E+02  0.52760967340E+02  0.85970835866E+02  0.47000000000E+01 0. -1.
        -13    1    6    6    0    0  0.25625824508E+02  0.72515920221E+02  0.41319399040E+02  0.87307126309E+02  0.00000000000E+00 0.  1.
         14    1    6    6    0    0  0.18930841501E+02 -0.20328186069E+02  0.14063797118E+02  0.31135226002E+02  0.00000000000E+00 0. -1.
         -5    1    3    3    0  503  0.19442236856E+02 -0.39690961805E+02  0.53523473159E+02  0.69571727030E+02  0.47000000000E+01 0.  1.
         11    1    4    4    0    0  0.24807679628E+02  0.98576521772E+01 -0.68561561845E+02  0.73575009600E+02  0.00000000000E+00 0. -1.
        -12    1    4    4    0    0 -0.28955204800E+02  0.93155538949E+01  0.54793872542E+01  0.30906425126E+02  0.00000000000E+00 0.  1.
</event>
<event>
12    1  0.8053217E-002  0.1844677E+03  0.7818608E-02  0.1164547E+00
         21   -1    0    0  501  502  0.00000000000E+00  0.00000000000E+00  0.20159048976E+03  0.20159048976E+03  0.00000000000E+00 0. -1.
         21   -1    0    0  502  503 -0.00000000000E+00 -0.00000000000E+00 -0.31442734817E+03  0.31442734817E+03  0.00000000000E+00 0. -1.
         -6    2    1    2    0  503  0.52695991708E+02 -0.16189073415E+02 -0.23463774515E+03  0.29846807268E+03  0.17603796557E+03 0.  0.
        -24    2    3    3    0    0  0.22643076243E+02 -0.40701000527E+02 -0.41273669573E+02  0.10119727397E+03  0.79800326530E+02 0.  0.
          6    2    1    2  501    0 -0.52695991708E+02  0.16189073415E+02  0.12180088674E+03  0.21754976525E+03  0.17162019319E+03 0.  0.
         24    2    5    5    0    0 -0.86026190245E+01 -0.34917001928E+02  0.12062822356E+03  0.14987760265E+03  0.81356778332E+02 0.  0.
          5    1    5    5  501    0 -0.44093372684E+02  0.51106075344E+02  0.11726631775E+01  0.67672162597E+02  0.47000000000E+01 0. -1.
        -13    1    6    6    0    0 -0.10360695652E+02 -0.51085211532E+02  0.35158236111E+02  0.62874036120E+02  0.00000000000E+00 0.  1.
         14    1    6    6    0    0  0.17580766275E+01  0.16168209603E+02  0.85469987449E+02  0.87003566534E+02  0.00000000000E+00 0. -1.
         -5    1    3    3    0  503  0.30052915466E+02  0.24511927112E+02 -0.19336407557E+03  0.19727079870E+03  0.47000000000E+01 0.  1.
         11    1    4    4    0    0  0.36002868287E+01 -0.39337321113E+02 -0.61684912352E+02  0.73248995280E+02  0.00000000000E+00 0. -1.
        -12    1    4    4    0    0  0.19042789414E+02 -0.13636794141E+01  0.20411242779E+02  0.27948278695E+02  0.00000000000E+00 0.  1.
</event>
<event>
12    1  0.8053217E-002  0.1994616E+03  0.7818608E-02  0.1150344E+00
         21   -1    0    0  501  502  0.00000000000E+00  0.00000000000E+00  0.90845223396E+03  0.90845223396E+03  0.00000000000E+00 0. -1.
         21   -1    0    0  502  503 -0.00000000000E+00 -0.00000000000E+00 -0.43981443095E+02  0.43981443095E+02  0.00000000000E+00 0. -1.
         -6    2    1    2    0  503 -0.39431748990E+02  0.92047611076E+02  0.38945980776E+03  0.43724403890E+03  0.17168512505E+03 0.  0.
        -24    2    3    3    0    0  0.20669045606E+02 -0.36051531013E+01  0.21091351011E+03  0.22590916907E+03  0.78168007170E+02 0.  0.
          6    2    1    2  501    0  0.39431748990E+02 -0.92047611076E+02  0.47501098311E+03  0.51518963816E+03  0.17250305404E+03 0.  0.
         24    2    5    5    0    0  0.29829974406E+02 -0.12933932582E+03  0.42118917787E+03  0.44884400693E+03  0.80262883204E+02 0.  0.
          5    1    5    5  501    0  0.96017745838E+01  0.37291714748E+02  0.53821805244E+02  0.66345631233E+02  0.47000000000E+01 0. -1.
        -13    1    6    6    0    0 -0.89108016724E+01 -0.12624681526E+02  0.15329824086E+03  0.15407509734E+03  0.00000000000E+00 0.  1.
         14    1    6    6    0    0  0.38740776078E+02 -0.11671464430E+03  0.26789093701E+03  0.29476890958E+03  0.00000000000E+00 0. -1.
         -5    1    3    3    0  503 -0.60100794596E+02  0.95652764177E+02  0.17854629764E+03  0.21133486983E+03  0.47000000000E+01 0.  1.
         11    1    4    4    0    0  0.98433808582E+01  0.16309277936E+02  0.63298336323E+01  0.20073651570E+02  0.00000000000E+00 0. -1.
        -12    1    4    4    0    0  0.10825664748E+02 -0.19914431038E+02  0.20458367648E+03  0.20583551750E+03  0.00000000000E+00 0.  1.
</event>
<event>
12    1  0.8053217E-002  0.1800119E+03  0.7818608E-02  0.1168314E+00
         21   -1    0    0  503  502  0.00000000000E+00  0.00000000000E+00  0.12862148425E+04  0.12862148425E+04  0.00000000000E+00 0.  1.
         21   -1    0    0  501  503 -0.00000000000E+00 -0.00000000000E+00 -0.25257890837E+02  0.25257890837E+02  0.00000000000E+00 0.  1.
          6    2    1    2  501    0 -0.48207831134E+02  0.13034560482E+01  0.55553496679E+03  0.58397208510E+03  0.17343183926E+03 0.  0.
         24    2    3    3    0    0 -0.67425539038E+01  0.33571764397E+02  0.68652464139E+02  0.94240245899E+02  0.54731505707E+02 0.  0.
         -6    2    1    2    0  502  0.48207831134E+02 -0.13034560482E+01  0.70542198490E+03  0.72750064826E+03  0.17120549776E+03 0.  0.
        -24    2    5    5    0    0 -0.84723405551E+01  0.15544711025E+02  0.15479713127E+03  0.17368992064E+03  0.76763390280E+02 0.  0.
          5    1    3    3  501    0 -0.41465277230E+02 -0.32268308349E+02  0.48688250265E+03  0.48973183920E+03  0.47000000000E+01 0. -1.
        -13    1    4    4    0    0 -0.30856988729E+02  0.20220668887E+02  0.41932424279E+02  0.55851207772E+02  0.00000000000E+00 0.  1.
         14    1    4    4    0    0  0.24114434825E+02  0.13351095510E+02  0.26720039860E+02  0.38389038127E+02  0.00000000000E+00 0. -1.
         -5    1    5    5    0  502  0.56680171689E+02 -0.16848167073E+02  0.55062485363E+03  0.55381072762E+03  0.47000000000E+01 0.  1.
         11    1    6    6    0    0 -0.16352360466E+02 -0.43475183496E+01  0.15101755352E+03  0.15196250222E+03  0.00000000000E+00 0. -1.
        -12    1    6    6    0    0  0.78800199114E+01  0.19892229374E+02  0.37795777469E+01  0.21727418421E+02  0.00000000000E+00 0.  1.
</event>
<event>
12    1  0.8053217E-002  0.2267701E+03  0.7818608E-02  0.1128989E+00
         21   -1    0    0  503  502  0.00000000000E+00  0.00000000000E+00  0.76848318504E+03  0.76848318504E+03  0.00000000000E+00 0. -1.
         21   -1    0    0  501  503 -0.00000000000E+00 -0.00000000000E+00 -0.66993226878E+02  0.66993226878E+02  0.00000000000E+00 0. -1.
          6    2    1    2  501    0 -0.13349006982E+03 -0.63164025398E+02  0.37129467246E+03  0.43490982845E+03  0.17169022174E+03 0.  0.
         24    2    3    3    0    0 -0.43454530882E+02 -0.22989812602E+02  0.96079689528E+02  0.14253037897E+03  0.93095512528E+02 0.  0.
         -6    2    1    2    0  502  0.13349006982E+03  0.63164025398E+02  0.33019528570E+03  0.40056658346E+03  0.17209116260E+03 0.  0.
        -24    2    5    5    0    0  0.16613221704E+02 -0.17678895134E+02  0.10048232670E+03  0.13040753965E+03  0.79503999575E+02 0.  0.
          5    1    3    3  501    0 -0.90035538940E+02 -0.40174212796E+02  0.27521498293E+03  0.29237944948E+03  0.47000000000E+01 0. -1.
        -11    1    4    4    0    0 -0.71697928846E+02 -0.20440226440E+02  0.55146634149E+02  0.92733743134E+02  0.00000000000E+00 0.  1.
         12    1    4    4    0    0  0.28243397965E+02 -0.25495861624E+01  0.40933055380E+02  0.49796635839E+02  0.00000000000E+00 0. -1.
         -5    1    5    5    0  502  0.11687684812E+03  0.80842920532E+02  0.22971295899E+03  0.27015904382E+03  0.47000000000E+01 0.  1.
         11    1    6    6    0    0  0.22202319838E+02  0.27312069681E+02  0.28279857824E+02  0.45151329050E+02  0.00000000000E+00 0. -1.
        -12    1    6    6    0    0 -0.55890981344E+01 -0.44990964815E+02  0.72202468878E+02  0.85256210595E+02  0.00000000000E+00 0.  1.
</event>
<event>
12    1  0.8053217E-002  0.3374659E+03  0.7818608E-02  0.1067922E+00
         21   -1    0    0  501  502  0.00000000000E+00  0.00000000000E+00  0.22439335213E+03  0.22439335213E+03  0.00000000000E+00 0.  1.
         21   -1    0    0  502  503 -0.00000000000E+00 -0.00000000000E+00 -0.52496941063E+03  0.52496941063E+03  0.00000000000E+00 0. -1.
         -6    2    1    2    0  503  0.28958633197E+03 -0.16349844754E+02 -0.21982603715E+03  0.40274892985E+03  0.17249826896E+03 0.  0.
        -24    2    3    3    0    0  0.25022012822E+03 -0.31325589091E+02 -0.23884367122E+03  0.35629754320E+03  0.79436987042E+02 0.  0.
          6    2    1    2  501    0 -0.28958633197E+03  0.16349844754E+02 -0.80750021349E+02  0.34661383292E+03  0.17173532582E+03 0.  0.
         24    2    5    5    0    0 -0.23293431419E+03  0.45530082663E+02 -0.11409501734E+03  0.27453806611E+03  0.77602149493E+02 0.  0.
          5    1    5    5  501    0 -0.56652017782E+02 -0.29180237909E+02  0.33344995994E+02  0.72075766809E+02  0.47000000000E+01 0. -1.
        -11    1    6    6    0    0 -0.17170918695E+03  0.46581094373E+02 -0.47661703842E+02  0.18418871097E+03  0.00000000000E+00 0.  1.
         12    1    6    6    0    0 -0.61225127239E+02 -0.10510117098E+01 -0.66433313501E+02  0.90349355137E+02  0.00000000000E+00 0. -1.
         -5    1    3    3    0  503  0.39366203746E+02  0.14975744337E+02  0.19017634066E+02  0.46451386645E+02  0.47000000000E+01 0.  1.
         11    1    4    4    0    0  0.61664776455E+02 -0.15143855145E+02 -0.11111593404E+03  0.12797902875E+03  0.00000000000E+00 0. -1.
        -12    1    4    4    0    0  0.18855535177E+03 -0.16181733946E+02 -0.12772773718E+03  0.22831851445E+03  0.00000000000E+00 0.  1.
</event>
<event>
12    1  0.8053217E-002  0.2011217E+03  0.7818608E-02  0.1149220E+00
         21   -1    0    0  501  502  0.00000000000E+00  0.00000000000E+00  0.35797184039E+03  0.35797184039E+03  0.00000000000E+00 0.  1.
         21   -1    0    0  502  503 -0.00000000000E+00 -0.00000000000E+00 -0.14451383488E+03  0.14451383488E+03  0.00000000000E+00 0.  1.
         -6    2    1    2    0  503 -0.29794868163E+02  0.99289528939E+02  0.22655261809E+03  0.30294560110E+03  0.17234791479E+03 0.  0.
        -24    2    3    3    0    0 -0.77595355624E+02  0.52875105231E+02  0.18987647190E+03  0.22674576495E+03  0.80893456923E+02 0.  0.
          6    2    1    2  501    0  0.29794868163E+02 -0.99289528939E+02 -0.13094612583E+02  0.19954007418E+03  0.16999596348E+03 0.  0.
         24    2    5    5    0    0  0.40398252539E+02 -0.27375398255E+02 -0.61417867025E+02  0.11212553951E+03  0.80115859742E+02 0.  0.
          5    1    5    5  501    0 -0.10603384375E+02 -0.71914130683E+02  0.48323254442E+02  0.87414534673E+02  0.47000000000E+01 0. -1.
        -11    1    6    6    0    0 -0.13343666928E+02  0.10274136178E+02 -0.39506423812E+02  0.42946115583E+02  0.00000000000E+00 0.  1.
         12    1    6    6    0    0  0.53741919466E+02 -0.37649534433E+02 -0.21911443213E+02  0.69179423925E+02  0.00000000000E+00 0. -1.
         -5    1    3    3    0  503  0.47800487460E+02  0.46414423708E+02  0.36676146191E+02  0.76199836148E+02  0.47000000000E+01 0.  1.
         11    1    4    4    0    0 -0.51508103778E+02  0.24601473850E+02  0.34543907446E+02  0.66720302847E+02  0.00000000000E+00 0. -1.
        -12    1    4    4    0    0 -0.26087251845E+02  0.28273631382E+02  0.15533256446E+03  0.16002546210E+03  0.00000000000E+00 0.  1.
</event>
<event>
12    1  0.8053217E-002  0.2130402E+03  0.7818608E-02  0.1139401E+00
         21   -1    0    0  501  502  0.00000000000E+00  0.00000000000E+00  0.67290472547E+02  0.67290472547E+02  0.00000000000E+00 0.  1.
         21   -1    0    0  502  503 -0.00000000000E+00 -0.00000000000E+00 -0.79719058827E+03  0.79719058827E+03  0.00000000000E+00 0.  1.
         -6    2    1    2    0  503 -0.65451034609E+02 -0.10686228551E+03 -0.53780237818E+03  0.57846132659E+03  0.17228674468E+03 0.  0.
        -24    2    3    3    0    0 -0.46465374262E+02 -0.69534230307E+02 -0.52009651450E+03  0.53275108034E+03  0.79556828853E+02 0.  0.
          6    2    1    2  501    0  0.65451034609E+02  0.10686228551E+03 -0.19209773754E+03  0.28601973422E+03  0.17088698488E+03 0.  0.
         24    2    5    5    0    0  0.25192607868E+02  0.79715005498E+02 -0.32949294540E+02  0.11956243445E+03  0.78869323120E+02 0.  0.
          5    1    5    5  501    0  0.40258426740E+02  0.27147280012E+02 -0.15914844300E+03  0.16645729977E+03  0.47000000000E+01 0. -1.
        -13    1    6    6    0    0 -0.17050750027E+02  0.62222958628E+02 -0.23759413310E+01  0.64560589791E+02  0.00000000000E+00 0.  1.
         14    1    6    6    0    0  0.42243357896E+02  0.17492046869E+02 -0.30573353209E+02  0.55001844664E+02  0.00000000000E+00 0. -1.
         -5    1    3    3    0  503 -0.18985660347E+02 -0.37328055202E+02 -0.17705863677E+02  0.45710246253E+02  0.47000000000E+01 0.  1.
         11    1    4    4    0    0  0.91964593801E+01  0.94711295266E+01 -0.13768675409E+03  0.13831818179E+03  0.00000000000E+00 0. -1.
        -12    1    4    4    0    0 -0.55661833642E+02 -0.79005359834E+02 -0.38240976041E+03  0.39443289855E+03  0.00000000000E+00 0.  1.
</event>
<event>
12    1  0.8053217E-002  0.2442995E+03  0.7818608E-02  0.1117935E+00
         21   -1    0    0  501  502  0.00000000000E+00  0.00000000000E+00  0.17879347683E+03  0.17879347683E+03  0.00000000000E+00 0.  1.
         21   -1    0    0  502  503 -0.00000000000E+00 -0.00000000000E+00 -0.35284310392E+03  0.35284310392E+03  0.00000000000E+00 0.  1.
         -6    2    1    2    0  503  0.15586025208E+03  0.49542845016E+02 -0.16161551270E+03  0.29291951201E+03  0.18148100425E+03 0.  0.
        -24    2    3    3    0    0  0.10066087232E+02  0.13618569843E+01 -0.19439341608E+02  0.83602767012E+02  0.80674369433E+02 0.  0.
          6    2    1    2  501    0 -0.15586025208E+03 -0.49542845016E+02 -0.12434114389E+02  0.23871706873E+03  0.17344832093E+03 0.  0.
         24    2    5    5    0    0 -0.13859413403E+03 -0.46305088211E+02 -0.66915540147E+02  0.18128086365E+03  0.83860400849E+02 0.  0.
          5    1    5    5  501    0 -0.17266118044E+02 -0.32377568051E+01  0.54481425758E+02  0.57436205081E+02  0.47000000000E+01 0. -1.
        -13    1    6    6    0    0 -0.13674322960E+03 -0.25239338882E+02 -0.75768147580E+02  0.15835576168E+03  0.00000000000E+00 0.  1.
         14    1    6    6    0    0 -0.18509044284E+01 -0.21065749329E+02  0.88526074335E+01  0.22925101970E+02  0.00000000000E+00 0. -1.
         -5    1    3    3    0  503  0.14579416485E+03  0.48180988032E+02 -0.14217617109E+03  0.20931674500E+03  0.47000000000E+01 0.  1.
         13    1    4    4    0    0  0.18758185521E+02 -0.98216534079E+01  0.27423282374E+02  0.34646368004E+02  0.00000000000E+00 0. -1.
        -14    1    4    4    0    0 -0.86920982899E+01  0.11183510392E+02 -0.46862623982E+02  0.48956399008E+02  0.00000000000E+00 0.  1.
</event>
<event>
12    1  0.8053217E-002  0.2960541E+03  0.7818608E-02  0.1087287E+00
         21   -1    0    0  501  502  0.00000000000E+00  0.00000000000E+00  0.10226089072E+04  0.10226089072E+04  0.00000000000E+00 0. -1.
         21   -1    0    0  502  503 -0.00000000000E+00 -0.00000000000E+00 -0.87231670550E+02  0.87231670550E+02  0.00000000000E+00 0.  1.
         -6    2    1    2    0  503 -0.21826767586E+03 -0.10148708867E+03  0.54366673429E+03  0.61883636345E+03  0.17159405369E+03 0.  0.
        -24    2    3    3    0    0 -0.19015985450E+03 -0.37291182823E+02  0.48236567420E+03  0.52561043402E+03  0.77706384101E+02 0.  0.
          6    2    1    2  501    0  0.21826767586E+03  0.10148708867E+03  0.39171050238E+03  0.49100421432E+03  0.17235896644E+03 0.  0.
         24    2    5    5    0    0  0.72525059147E+02  0.61277067061E+01  0.19401795314E+03  0.22749186910E+03  0.93873059897E+02 0.  0.
          5    1    5    5  501    0  0.14574261671E+03  0.95359381964E+02  0.19769254924E+03  0.26351234522E+03  0.47000000000E+01 0. -1.
        -13    1    6    6    0    0 -0.80823461730E+01  0.15172770387E+02 -0.10405789034E-01  0.17191200922E+02  0.00000000000E+00 0.  1.
         14    1    6    6    0    0  0.80607405320E+02 -0.90450636806E+01  0.19402835893E+03  0.21030066818E+03  0.00000000000E+00 0. -1.
         -5    1    3    3    0  503 -0.28107821362E+02 -0.64195905847E+02  0.61301060093E+02  0.93225929428E+02  0.47000000000E+01 0.  1.
         13    1    4    4    0    0 -0.12175822727E+03 -0.10373115492E+01  0.36704717619E+03  0.38671665528E+03  0.00000000000E+00 0. -1.
        -14    1    4    4    0    0 -0.68401627233E+02 -0.36253871273E+02  0.11531849800E+03  0.13889377874E+03  0.00000000000E+00 0.  1.
</event>
<event>
12    1  0.8053217E-002  0.2217343E+03  0.7818608E-02  0.1133492E+00
         21   -1    0    0  503  502  0.00000000000E+00  0.00000000000E+00  0.18770898049E+02  0.18770898049E+02  0.00000000000E+00 0. -1.
         21   -1    0    0  501  503 -0.00000000000E+00 -0.00000000000E+00 -0.26274205278E+04  0.26274205278E+04  0.00000000000E+00 0. -1.
          6    2    1    2  501    0 -0.78532449639E+02 -0.10563492669E+03 -0.15255205520E+04  0.15415508599E+04  0.17843770825E+03 0.  0.
         24    2    3    3    0    0  0.27126001676E+01 -0.14790240273E+02 -0.34656862038E+03  0.35630689252E+03  0.81355292487E+02 0.  0.
         -6    2    1    2    0  502  0.78532449639E+02  0.10563492669E+03 -0.10831290778E+04  0.11046405660E+04  0.17244157699E+03 0.  0.
        -24    2    5    5    0    0  0.81144544556E+02  0.90452142739E+01 -0.47197784621E+03  0.48588026227E+03  0.81549303738E+02 0.  0.
          5    1    3    3  501    0 -0.81245049807E+02 -0.90844686414E+02 -0.11789519316E+04  0.11852439674E+04  0.47000000000E+01 0. -1.
        -13    1    4    4    0    0 -0.19185679130E+02 -0.25001396685E+02 -0.52393283684E+02  0.61140954320E+02  0.00000000000E+00 0.  1.
         14    1    4    4    0    0  0.21898279298E+02  0.10211156412E+02 -0.29417533670E+03  0.29516593820E+03  0.00000000000E+00 0. -1.
         -5    1    5    5    0  502 -0.26120949167E+01  0.96589712413E+02 -0.61115123160E+03  0.61876030373E+03  0.47000000000E+01 0.  1.
         13    1    6    6    0    0  0.33986582849E+02  0.30238293479E+02 -0.35607208049E+03  0.35896625010E+03  0.00000000000E+00 0. -1.
        -14    1    6    6    0    0  0.47157961707E+02 -0.21193079206E+02 -0.11590576572E+03  0.12691401217E+03  0.00000000000E+00 0.  1.
</event>
<event>
12    1  0.8053217E-002  0.2271756E+03  0.7818608E-02  0.1128851E+00
         21   -1    0    0  501  502  0.00000000000E+00  0.00000000000E+00  0.18724258248E+04  0.18724258248E+04  0.00000000000E+00 0.  1.
         21   -1    0    0  502  503 -0.00000000000E+00 -0.00000000000E+00 -0.32034888343E+02  0.32034888343E+02  0.00000000000E+00 0. -1.
         -6    2    1    2    0  503  0.16070030853E+02  0.14766165240E+03  0.56088400863E+03  0.60514431390E+03  0.17189112840E+03 0.  0.
        -24    2    3    3    0    0  0.43268926365E+02  0.38550346484E+02  0.13665861629E+03  0.16624303741E+03  0.74852126739E+02 0.  0.
          6    2    1    2  501    0 -0.16070030853E+02 -0.14766165240E+03  0.12795069278E+04  0.12993163992E+04  0.17036113853E+03 0.  0.
         24    2    5    5    0    0 -0.23046308103E+02 -0.16683077146E+03  0.12449332815E+04  0.12588991927E+04  0.81269079063E+02 0.  0.
          5    1    5    5  501    0  0.69762772499E+01  0.19169119059E+02  0.34573646299E+02  0.40417206585E+02  0.47000000000E+01 0. -1.
        -13    1    6    6    0    0 -0.12439692361E+02 -0.13562634788E+03  0.11570689973E+04  0.11650570444E+04  0.00000000000E+00 0.  1.
         14    1    6    6    0    0 -0.10606615742E+02 -0.31204423572E+02  0.87864284184E+02  0.93842148223E+02  0.00000000000E+00 0. -1.
         -5    1    3    3    0  503 -0.27198895512E+02  0.10911130591E+03  0.42422539234E+03  0.43890127649E+03  0.47000000000E+01 0.  1.
         13    1    4    4    0    0 -0.75276085202E+01  0.14420442683E+02 -0.22131082615E+01  0.16416817761E+02  0.00000000000E+00 0. -1.
        -14    1    4    4    0    0  0.50796534886E+02  0.24129903800E+02  0.13887172455E+03  0.14982621965E+03  0.00000000000E+00 0.  1.
</event>
<event>
12    1  0.8053217E-002  0.1820446E+03  0.7818608E-02  0.1166037E+00
         21   -1    0    0  503  502  0.00000000000E+00  0.00000000000E+00  0.28829053079E+03  0.28829053079E+03  0.00000000000E+00 0.  1.
         21   -1    0    0  501  503 -0.00000000000E+00 -0.00000000000E+00 -0.13369377156E+03  0.13369377156E+03  0.00000000000E+00 0.  1.
          6    2    1    2  501    0 -0.55751546367E+02 -0.10580746920E+02 -0.26404920094E+01  0.18206378688E+03  0.17297416907E+03 0.  0.
         24    2    3    3    0    0 -0.92410773460E+02 -0.47780216224E+02 -0.51275105726E+01  0.12956640876E+03  0.77061422261E+02 0.  0.
         -6    2    1    2    0  502  0.55751546367E+02  0.10580746920E+02  0.15723725123E+03  0.23992051547E+03  0.17209913840E+03 0.  0.
        -24    2    5    5    0    0 -0.19364007109E+02  0.47969250094E+02  0.10169770494E+03  0.13918830738E+03  0.79717927694E+02 0.  0.
          5    1    3    3  501    0  0.36659227094E+02  0.37199469304E+02  0.24870185632E+01  0.52497378115E+02  0.47000000000E+01 0. -1.
        -13    1    4    4    0    0 -0.97236534240E+01 -0.44923625623E+02  0.49006886913E+01  0.46224434282E+02  0.00000000000E+00 0.  1.
         14    1    4    4    0    0 -0.82687120036E+02 -0.28565906010E+01 -0.10028199264E+02  0.83341974480E+02  0.00000000000E+00 0. -1.
         -5    1    5    5    0  502  0.75115553475E+02 -0.37388503175E+02  0.55539546295E+02  0.10073220809E+03  0.47000000000E+01 0.  1.
         13    1    6    6    0    0  0.10995762120E+02  0.40424818854E+02  0.11096359516E+02  0.43338227449E+02  0.00000000000E+00 0. -1.
        -14    1    6    6    0    0 -0.30359769229E+02  0.75444312407E+01  0.90601345424E+02  0.95850079932E+02  0.00000000000E+00 0.  1.
</event>
<event>
12    1  0.8053217E-002  0.1759939E+03  0.7818608E-02  0.1172113E+00
         21   -1    0    0  503  502  0.00000000000E+00  0.00000000000E+00  0.12512950890E+02  0.12512950890E+02  0.00000000000E+00 0.  1.
         21   -1    0    0  501  503 -0.00000000000E+00 -0.00000000000E+00 -0.24930050855E+04  0.24930050855E+04  0.00000000000E+00 0.  1.
          6    2    1    2  501    0  0.12894541149E+02  0.41874161451E+02 -0.10788858967E+04  0.10929055989E+04  0.16890279863E+03 0.  0.
         24    2    3    3    0    0 -0.54493326306E+02  0.36633568530E+02 -0.74789135637E+03  0.75504754552E+03  0.80273121951E+02 0.  0.
         -6    2    1    2    0  502 -0.12894541149E+02 -0.41874161451E+02 -0.14016062379E+04  0.14126124375E+04  0.17045274378E+03 0.  0.
        -24    2    5    5    0    0 -0.66391369722E+02 -0.40243680436E+02 -0.67108265199E+03  0.68011576944E+03  0.78601312059E+02 0.  0.
          5    1    3    3  501    0  0.67387867454E+02  0.52405929208E+01 -0.33099454031E+03  0.33785805335E+03  0.47000000000E+01 0. -1.
        -11    1    4    4    0    0 -0.15014359517E+02  0.51339839513E+02 -0.26642940687E+03  0.27174590882E+03  0.00000000000E+00 0.  1.
         12    1    4    4    0    0 -0.39478966789E+02 -0.14706270983E+02 -0.48146194950E+03  0.48330163670E+03  0.00000000000E+00 0. -1.
         -5    1    5    5    0  502  0.53496828574E+02 -0.16304810150E+01 -0.73052358591E+03  0.73249666805E+03  0.47000000000E+01 0.  1.
         11    1    6    6    0    0 -0.42764682162E+02 -0.53300880474E+01 -0.12146172565E+03  0.12888048214E+03  0.00000000000E+00 0. -1.
        -12    1    6    6    0    0 -0.23626687560E+02 -0.34913592389E+02 -0.54962092634E+03  0.55123528730E+03  0.00000000000E+00 0.  1.
</event>
<event>
12    1  0.8053217E-002  0.1755066E+03  0.7818608E-02  0.1172534E+00
         21   -1    0    0  503  502  0.00000000000E+00  0.00000000000E+00  0.98360195487E+03  0.98360195487E+03  0.00000000000E+00 0. -1.
         21   -1    0    0  501  503 -0.00000000000E+00 -0.00000000000E+00 -0.46205652291E+02  0.46205652291E+02  0.00000000000E+00 0. -1.
          6    2    1    2  501    0 -0.28923778984E+02 -0.91524760513E+01  0.17536866914E+03  0.24810628679E+03  0.17286470611E+03 0.  0.
         24    2    3    3    0    0  0.36364889936E+02  0.62437456239E+01  0.16426539245E+03  0.17995185418E+03  0.63546526946E+02 0.  0.
         -6    2    1    2    0  502  0.28923778984E+02  0.91524760513E+01  0.76202763344E+03  0.78170132038E+03  0.17161144293E+03 0.  0.
        -24    2    5    5    0    0  0.41377265421E+02 -0.55938613237E+02  0.42218867210E+03  0.43542895810E+03  0.80708711804E+02 0.  0.
          5    1    3    3  501    0 -0.65288668920E+02 -0.15396221675E+02  0.11103276697E+02  0.68154432611E+02  0.47000000000E+01 0. -1.
        -13    1    4    4    0    0 -0.38918795885E+01 -0.21569071383E+01  0.11787091287E+03  0.11795486881E+03  0.00000000000E+00 0.  1.
         14    1    4    4    0    0  0.40256769525E+02  0.84006527622E+01  0.46394479573E+02  0.61996985364E+02  0.00000000000E+00 0. -1.
         -5    1    5    5    0  502 -0.12453486437E+02  0.65091089289E+02  0.33983896134E+03  0.34627236228E+03  0.47000000000E+01 0.  1.
         11    1    6    6    0    0  0.27297050577E+02  0.31744205837E+01  0.40562754988E+02  0.48995336599E+02  0.00000000000E+00 0. -1.
        -12    1    6    6    0    0  0.14080214844E+02 -0.59113033821E+02  0.38162591711E+03  0.38643362150E+03  0.00000000000E+00 0.  1.
</event>
<event>
12    1  0.8053217E-002  0.2287294E+03  0.7818608E-02  0.1127992E+00
         21   -1    0    0  501  502  0.00000000000E+00  0.00000000000E+00  0.10865312996E+03  0.10865312996E+03  0.00000000000E+00 0.  1.
         21   -1    0    0  502  503 -0.00000000000E+00 -0.00000000000E+00 -0.47714093530E+03  0.47714093530E+03  0.00000000000E+00 0. -1.
         -6    2    1    2    0  503 -0.13387527472E+03 -0.61964551304E+02 -0.16987206190E+03  0.28286608745E+03  0.17144827563E+03 0.  0.
        -24    2    3    3    0    0 -0.40951700270E+02 -0.14089950004E+01 -0.14277513279E+03  0.16859404514E+03  0.79750777373E+02 0.  0.
          6    2    1    2  501    0  0.13387527472E+03  0.61964551304E+02 -0.19861574345E+03  0.30292797780E+03  0.17479974655E+03 0.  0.
         24    2    5    5    0    0 -0.34742413302E+01  0.17278429831E+02 -0.68813551029E+02  0.10867958484E+03  0.82251643548E+02 0.  0.
          5    1    5    5  501    0  0.13734951605E+03  0.44686121473E+02 -0.12980219242E+03  0.19424839296E+03  0.47000000000E+01 0. -1.
        -11    1    6    6    0    0  0.27497694790E+01  0.49742423510E+02 -0.50289646189E+02  0.70787841065E+02  0.00000000000E+00 0.  1.
         12    1    6    6    0    0 -0.62240108092E+01 -0.32463993678E+02 -0.18523904840E+02  0.37891743779E+02  0.00000000000E+00 0. -1.
         -5    1    3    3    0  503 -0.92923574450E+02 -0.60555556303E+02 -0.27096929112E+02  0.11427204232E+03  0.47000000000E+01 0.  1.
         11    1    4    4    0    0 -0.26375476928E+02 -0.33199753769E+02 -0.11893765988E+03  0.12626977616E+03  0.00000000000E+00 0. -1.
        -12    1    4    4    0    0 -0.14576223343E+02  0.31790758768E+02 -0.23837472907E+02  0.42324268979E+02  0.00000000000E+00 0.  1.
</event>
<event>
12    1  0.8053217E-002  0.3877210E+03  0.7818608E-02  0.1048304E+00
         21   -1    0    0  503  502  0.00000000000E+00  0.00000000000E+00  0.14580925750E+03  0.14580925750E+03  0.00000000000E+00 0. -1.
         21   -1    0    0  501  503 -0.00000000000E+00 -0.00000000000E+00 -0.15441612040E+04  0.15441612040E+04  0.00000000000E+00 0. -1.
          6    2    1    2  501    0  0.19843777112E+03 -0.28173197459E+03 -0.11876547405E+04  0.12486985710E+04  0.17312967462E+03 0.  0.
         24    2    3    3    0    0  0.14005917533E+03 -0.23302810143E+03 -0.71736696736E+03  0.77228193903E+03  0.88799543103E+02 0.  0.
         -6    2    1    2    0  502 -0.19843777112E+03  0.28173197459E+03 -0.21069720605E+03  0.44127189048E+03  0.17769950529E+03 0.  0.
        -24    2    5    5    0    0 -0.17927609191E+03  0.14671905221E+03 -0.17229137164E+03  0.29952296712E+03  0.79770255582E+02 0.  0.
          5    1    3    3  501    0  0.58378595798E+02 -0.48703873159E+02 -0.47028777312E+03  0.47641663201E+03  0.47000000000E+01 0. -1.
        -13    1    4    4    0    0  0.94005030793E+02 -0.74852717142E+02 -0.26950833086E+03  0.29508408205E+03  0.00000000000E+00 0.  1.
         14    1    4    4    0    0  0.46054144532E+02 -0.15817538429E+03 -0.44785863650E+03  0.47719785698E+03  0.00000000000E+00 0. -1.
         -5    1    5    5    0  502 -0.19161679209E+02  0.13501292238E+03 -0.38405834415E+02  0.14174892337E+03  0.47000000000E+01 0.  1.
         11    1    6    6    0    0 -0.22796239444E+02  0.50099705122E+02 -0.13800090634E+02  0.56745849959E+02  0.00000000000E+00 0. -1.
        -12    1    6    6    0    0 -0.15647985247E+03  0.96619347088E+02 -0.15849128100E+03  0.24277711716E+03  0.00000000000E+00 0.  1.
</event>
<event>
12    1  0.8053217E-002  0.2423546E+03  0.7818608E-02  0.1118445E+00
         21   -1    0    0  503  502  0.00000000000E+00  0.00000000000E+00  0.34853187506E+03  0.34853187506E+03  0.00000000000E+00 0. -1.
         21   -1    0    0  501  503 -0.00000000000E+00 -0.00000000000E+00 -0.30244234701E+03  0.30244234701E+03  0.00000000000E+00 0.  1.
          6    2    1    2  501    0  0.29772489512E+02 -0.16563940731E+03  0.24031555918E+03  0.34039494919E+03  0.17261036777E+03 0.  0.
         24    2    3    3    0    0  0.48011321053E+02 -0.91145237764E+02  0.59600573209E+02  0.14402277084E+03  0.81103568840E+02 0.  0.
         -6    2    1    2    0  502 -0.29772489512E+02  0.16563940731E+03 -0.19422603113E+03  0.31057927289E+03  0.17439300213E+03 0.  0.
        -24    2    5    5    0    0 -0.25308862556E+02  0.77432905863E+01 -0.51284186409E+02  0.97493448357E+02  0.78577398939E+02 0.  0.
          5    1    3    3  501    0 -0.18238831541E+02 -0.74494169548E+02  0.18071498597E+03  0.19637217834E+03  0.47000000000E+01 0. -1.
        -11    1    4    4    0    0  0.19159036974E+02  0.61517426934E+01 -0.84601597999E+01  0.21828580801E+02  0.00000000000E+00 0.  1.
         12    1    4    4    0    0  0.28852284079E+02 -0.97296980458E+02  0.68060733008E+02  0.12219419004E+03  0.00000000000E+00 0. -1.
         -5    1    5    5    0  502 -0.44636269562E+01  0.15789611673E+03 -0.14294184472E+03  0.21308582453E+03  0.47000000000E+01 0.  1.
         11    1    6    6    0    0 -0.29789472226E+02  0.56839524512E-01  0.13067519491E+02  0.32529616534E+02  0.00000000000E+00 0. -1.
        -12    1    6    6    0    0  0.44806096700E+01  0.76864510618E+01 -0.64351705900E+02  0.64963831823E+02  0.00000000000E+00 0.  1.
</event>
<event>
12    1  0.8053217E-002  0.2051911E+03  0.7818608E-02  0.1145493E+00
         21   -1    0    0  501  502  0.00000000000E+00  0.00000000000E+00  0.15653305894E+03  0.15653305894E+03  0.00000000000E+00 0.  1.
         21   -1    0    0  502  503 -0.00000000000E+00 -0.00000000000E+00 -0.45523684474E+03  0.45523684474E+03  0.00000000000E+00 0.  1.
         -6    2    1    2    0  503 -0.11606703085E+02 -0.11140844739E+03 -0.34515375166E+03  0.40138697624E+03  0.17156291762E+03 0.  0.
        -24    2    3    3    0    0  0.13473615851E+02  0.74585824161E+01 -0.11211519050E+03  0.13854205207E+03  0.79918179881E+02 0.  0.
          6    2    1    2  501    0  0.11606703085E+02  0.11140844739E+03  0.46449965857E+02  0.21038292744E+03  0.17192096767E+03 0.  0.
         24    2    5    5    0    0  0.53048383229E+02  0.66580634340E+02  0.79532603229E+02  0.14078769361E+03  0.79048262881E+02 0.  0.
          5    1    5    5  501    0 -0.41441680144E+02  0.44827813049E+02 -0.33082637372E+02  0.69595233827E+02  0.47000000000E+01 0. -1.
        -11    1    6    6    0    0  0.17300744060E+02  0.60111067251E+02  0.11409351871E+02  0.63583248275E+02  0.00000000000E+00 0.  1.
         12    1    6    6    0    0  0.35747639169E+02  0.64695670890E+01  0.68123251359E+02  0.77204445339E+02  0.00000000000E+00 0. -1.
         -5    1    3    3    0  503 -0.25080318936E+02 -0.11886702981E+03 -0.23303856116E+03  0.26284492417E+03  0.47000000000E+01 0.  1.
         13    1    4    4    0    0 -0.11420462449E+02  0.30246685477E+02 -0.14831445549E+02  0.35570503538E+02  0.00000000000E+00 0. -1.
        -14    1    4    4    0    0  0.24894078299E+02 -0.22788103061E+02 -0.97283744951E+02  0.10297154853E+03  0.00000000000E+00 0.  1.
</event>
<event>
12    1  0.8053217E-002  0.1899909E+03  0.7818608E-02  0.1159868E+00
         21   -1    0    0  501  502  0.00000000000E+00  0.00000000000E+00  0.15449786180E+03  0.15449786180E+03  0.00000000000E+00 0.  1.
         21   -1    0    0  502  503 -0.00000000000E+00 -0.00000000000E+00 -0.23471384730E+03  0.23471384730E+03  0.00000000000E+00 0.  1.
         -6    2    1    2    0  503 -0.65481116758E+02  0.28144500122E+02 -0.77790786239E+02  0.20529966524E+03  0.17611546379E+03 0.  0.
        -24    2    3    3    0    0 -0.10743186842E+03  0.87205510998E+01 -0.30089953381E+02  0.13870676159E+03  0.81954292464E+02 0.  0.
          6    2    1    2  501    0  0.65481116758E+02 -0.28144500122E+02 -0.24251992641E+01  0.18391204386E+03  0.16952247269E+03 0.  0.
         24    2    5    5    0    0  0.23880874566E+02 -0.24064361038E+02 -0.65848831741E+02  0.10780767577E+03  0.78339240942E+02 0.  0.
          5    1    5    5  501    0  0.41600242191E+02 -0.40801390844E+01  0.63423632477E+02  0.76104368087E+02  0.47000000000E+01 0. -1.
        -13    1    6    6    0    0  0.18989916082E+01 -0.25720015235E+02  0.10868087625E+02  0.27986437455E+02  0.00000000000E+00 0.  1.
         14    1    6    6    0    0  0.21981882958E+02  0.16556541971E+01 -0.76716919366E+02  0.79821238316E+02  0.00000000000E+00 0. -1.
         -5    1    3    3    0  503  0.41950751665E+02  0.19423949022E+02 -0.47700832857E+02  0.66592903647E+02  0.47000000000E+01 0.  1.
         11    1    4    4    0    0 -0.44971111445E+02 -0.11720203737E+02  0.25161021090E+02  0.52847336949E+02  0.00000000000E+00 0. -1.
        -12    1    4    4    0    0 -0.62460756977E+02  0.20440754837E+02 -0.55250974471E+02  0.85859424646E+02  0.00000000000E+00 0.  1.
</event>
<event>
12    1  0.8053217E-002  0.2015782E+03  0.7818608E-02  0.1150858E+00
         21   -1    0    0  501  502  0.00000000000E+00  0.00000000000E+00  0.24997581131E+02  0.24997581131E+02  0.00000000000E+00 0.  1.
         21   -1    0    0  502  503 -0.00000000000E+00 -0.00000000000E+00 -0.15413285983E+04  0.15413285983E+04  0.00000000000E+00 0.  1.
         -6    2    1    2    0  503  0.73088869762E+02  0.27542556474E+02 -0.68736195786E+03  0.71320048292E+03  0.17345861877E+03 0.  0.
        -24    2    3    3    0    0  0.48918983304E+02  0.68295653673E+02 -0.61884139380E+03  0.62976094768E+03  0.81097578874E+02 0.  0.
          6    2    1    2  501    0 -0.73088869762E+02 -0.27542556474E+02 -0.82896905932E+03  0.85312569652E+03  0.18583104545E+03 0.  0.
         24    2    5    5    0    0 -0.11635036611E+03 -0.48496434891E+02 -0.55540695954E+03  0.57533272590E+03  0.81495661854E+02 0.  0.
          5    1    5    5  501    0  0.43261496348E+02  0.20953878416E+02 -0.27356209978E+03  0.27779297061E+03  0.47000000000E+01 0. -1.
        -11    1    6    6    0    0 -0.26277665978E+02 -0.69014795291E+01 -0.30163700885E+03  0.30285810416E+03  0.00000000000E+00 0.  1.
         12    1    6    6    0    0 -0.90072700133E+02 -0.41594955362E+02 -0.25376995069E+03  0.27247462174E+03  0.00000000000E+00 0. -1.
         -5    1    3    3    0  503  0.24169886459E+02 -0.40753097199E+02 -0.68520564057E+02  0.83439535242E+02  0.47000000000E+01 0.  1.
         11    1    4    4    0    0 -0.11279121045E+02  0.52690659642E+02 -0.25337213414E+03  0.25903853486E+03  0.00000000000E+00 0. -1.
        -12    1    4    4    0    0  0.60198104348E+02  0.15604994031E+02 -0.36546925966E+03  0.37072241281E+03  0.00000000000E+00 0.  1.
</event>
<event>
12    1  0.8053217E-002  0.1743188E+03  0.7818608E-02  0.1173672E+00
         21   -1    0    0  503  502  0.00000000000E+00  0.00000000000E+00  0.71161787178E+03  0.71161787178E+03  0.00000000000E+00 0. -1.
         21   -1    0    0  501  503 -0.00000000000E+00 -0.00000000000E+00 -0.70061624298E+02  0.70061624298E+02  0.00000000000E+00 0. -1.
          6    2    1    2  501    0  0.73687195642E+01 -0.19210667647E+02  0.74881025175E+02  0.18879852882E+03  0.17208825868E+03 0.  0.
         24    2    3    3    0    0  0.37764630480E+02 -0.59835666649E+01  0.10967086535E+03  0.14051508880E+03  0.79087426869E+02 0.  0.
         -6    2    1    2    0  502 -0.73687195642E+01  0.19210667647E+02  0.56667522231E+03  0.59288096726E+03  0.17310021946E+03 0.  0.
        -24    2    5    5    0    0 -0.23928100997E+02  0.53485775007E+02  0.53192233118E+03  0.54112336357E+03  0.80248651360E+02 0.  0.
          5    1    3    3  501    0 -0.30395910916E+02 -0.13227100982E+02 -0.34789840175E+02  0.48283440021E+02  0.47000000000E+01 0. -1.
        -13    1    4    4    0    0  0.21814629320E+02  0.23565075394E+02  0.75118034130E+01  0.32979054280E+02  0.00000000000E+00 0.  1.
         14    1    4    4    0    0  0.15950001160E+02 -0.29548642059E+02  0.10215906194E+03  0.10753603452E+03  0.00000000000E+00 0. -1.
         -5    1    5    5    0  502  0.16559381433E+02 -0.34275107360E+02  0.34752891127E+02  0.51757603689E+02  0.47000000000E+01 0.  1.
         11    1    6    6    0    0  0.18836894209E+02  0.46096773644E+01  0.28962049084E+03  0.29026902423E+03  0.00000000000E+00 0. -1.
        -12    1    6    6    0    0 -0.42764995206E+02  0.48876097642E+02  0.24230184034E+03  0.25085433934E+03  0.00000000000E+00 0.  1.
</event>
<event>
12    1  0.8053217E-002  0.2170005E+03  0.7818608E-02  0.1136784E+00
         21   -1    0    0  501  502  0.00000000000E+00  0.00000000000E+00  0.18523676130E+03  0.18523676130E+03  0.00000000000E+00 0.  1.
         21   -1    0    0  502  503 -0.00000000000E+00 -0.00000000000E+00 -0.47331164242E+03  0.47331164242E+03  0.00000000000E+00 0. -1.
         -6    2    1    2    0  503 -0.58126523044E+02 -0.11507251110E+03 -0.36946993521E+03  0.42678477865E+03  0.17034329682E+03 0.  0.
        -24    2    3    3    0    0  0.23477934806E+00 -0.13066240329E+03 -0.27321449949E+03  0.31304698695E+03  0.79243514252E+02 0.  0.
          6    2    1    2  501    0  0.58126523044E+02  0.11507251110E+03  0.81395054086E+02  0.23176362506E+03  0.17455328006E+03 0.  0.
         24    2    5    5    0    0  0.67030371956E+02  0.34957675732E+02 -0.18462194398E+00  0.11698122696E+03  0.89271851777E+02 0.  0.
          5    1    5    5  501    0 -0.89038489124E+01  0.80114835372E+02  0.81579676030E+02  0.11478239810E+03  0.47000000000E+01 0. -1.
        -13    1    6    6    0    0  0.38726581073E+02  0.61190393359E+02  0.17547686467E+02  0.74511298615E+02  0.00000000000E+00 0.  1.
         14    1    6    6    0    0  0.28303790884E+02 -0.26232717626E+02 -0.17732308411E+02  0.42469928350E+02  0.00000000000E+00 0. -1.
         -5    1    3    3    0  503 -0.58361302392E+02  0.15589892190E+02 -0.96255435722E+02  0.11373779170E+03  0.47000000000E+01 0.  1.
         11    1    4    4    0    0 -0.22623744687E+02 -0.95026191815E+02 -0.24038014003E+03  0.25946950240E+03  0.00000000000E+00 0. -1.
        -12    1    4    4    0    0  0.22858524035E+02 -0.35636211479E+02 -0.32834359460E+02  0.53577484550E+02  0.00000000000E+00 0.  1.
</event>
<event>
12    1  0.8053217E-002  0.2340652E+03  0.7818608E-02  0.1124232E+00
         21   -1    0    0  501  502  0.00000000000E+00  0.00000000000E+00  0.75830486722E+03  0.75830486722E+03  0.00000000000E+00 0.  1.
         21   -1    0    0  502  503 -0.00000000000E+00 -0.00000000000E+00 -0.86439811534E+02  0.86439811534E+02  0.00000000000E+00 0. -1.
         -6    2    1    2    0  503 -0.11189343184E+03 -0.11304973911E+03  0.15887938456E+03  0.28088227806E+03  0.16837996225E+03 0.  0.
        -24    2    3    3    0    0 -0.49842651396E+02 -0.24766288520E+01  0.10825610302E+03  0.14427510877E+03  0.81274224590E+02 0.  0.
          6    2    1    2  501    0  0.11189343184E+03  0.11304973911E+03  0.51298567113E+03  0.56386240070E+03  0.17171524258E+03 0.  0.
         24    2    5    5    0    0  0.93504216312E+02  0.14853192187E+03  0.44198513640E+03  0.48225165096E+03  0.80068868914E+02 0.  0.
          5    1    5    5  501    0  0.18389215526E+02 -0.35482182763E+02  0.71000534729E+02  0.81610749740E+02  0.47000000000E+01 0. -1.
        -11    1    6    6    0    0  0.67970982512E+02  0.74878054567E+02  0.33464587921E+03  0.34959210802E+03  0.00000000000E+00 0.  1.
         12    1    6    6    0    0  0.25533233800E+02  0.73653867308E+02  0.10733925719E+03  0.13265954293E+03  0.00000000000E+00 0. -1.
         -5    1    3    3    0  503 -0.62050780442E+02 -0.11057311026E+03  0.50623281540E+02  0.13660716928E+03  0.47000000000E+01 0.  1.
         13    1    4    4    0    0 -0.34076257718E+02 -0.16846460093E+02  0.44186508298E+01  0.38269034909E+02  0.00000000000E+00 0. -1.
        -14    1    4    4    0    0 -0.15766393679E+02  0.14369831241E+02  0.10383745219E+03  0.10600607387E+03  0.00000000000E+00 0.  1.
</event>
<event>
12    1  0.8053217E-002  0.2454969E+03  0.7818608E-02  0.1116719E+00
         21   -1    0    0  501  502  0.00000000000E+00  0.00000000000E+00  0.12539845104E+03  0.12539845104E+03  0.00000000000E+00 0.  1.
         21   -1    0    0  502  503 -0.00000000000E+00 -0.00000000000E+00 -0.63317971836E+03  0.63317971836E+03  0.00000000000E+00 0.  1.
         -6    2    1    2    0  503  0.16753608108E+03 -0.36935966961E+02 -0.44265521026E+03  0.50458971478E+03  0.17098111290E+03 0.  0.
        -24    2    3    3    0    0  0.23693788860E+02  0.17388538827E+02 -0.12118363610E+03  0.14820814966E+03  0.80102590813E+02 0.  0.
          6    2    1    2  501    0 -0.16753608108E+03  0.36935966961E+02 -0.65126057057E+02  0.25398845462E+03  0.17560218579E+03 0.  0.
         24    2    5    5    0    0 -0.90027986719E+02 -0.48581404100E+02 -0.31587095280E+02  0.13370679600E+03  0.80091020038E+02 0.  0.
          5    1    5    5  501    0 -0.77508094358E+02  0.85517371061E+02 -0.33538961777E+02  0.12028165862E+03  0.47000000000E+01 0. -1.
        -11    1    6    6    0    0 -0.10482111026E+02  0.12112005056E+02  0.16237437626E+02  0.22808544422E+02  0.00000000000E+00 0.  1.
         12    1    6    6    0    0 -0.79545875693E+02 -0.60693409156E+02 -0.47824532905E+02  0.11089825157E+03  0.00000000000E+00 0. -1.
         -5    1    3    3    0  503  0.14384229222E+03 -0.54324505788E+02 -0.32147157417E+03  0.35638156512E+03  0.47000000000E+01 0.  1.
         13    1    4    4    0    0  0.43088602490E+02  0.35249728973E+02 -0.61467158359E+02  0.82929986217E+02  0.00000000000E+00 0. -1.
        -14    1    4    4    0    0 -0.19394813629E+02 -0.17861190146E+02 -0.59716477737E+02  0.65278163443E+02  0.00000000000E+00 0.  1.
</event>
<event>
12    1  0.8053217E-002  0.2386634E+03  0.7818608E-02  0.1121209E+00
         21   -1    0    0  503  502  0.00000000000E+00  0.00000000000E+00  0.20350700423E+03  0.20350700423E+03  0.00000000000E+00 0. -1.
         21   -1    0    0  501  503 -0.00000000000E+00 -0.00000000000E+00 -0.34634440574E+03  0.34634440574E+03  0.00000000000E+00 0.  1.
          6    2    1    2  501    0  0.22295698313E+02 -0.16355498331E+03 -0.19470159489E+03  0.30561766270E+03  0.16806580251E+03 0.  0.
         24    2    3    3    0    0  0.53758104209E+02 -0.35912536821E+02 -0.10282117722E+03  0.14516025937E+03  0.79496303990E+02 0.  0.
         -6    2    1    2    0  502 -0.22295698313E+02  0.16355498331E+03  0.51864193380E+02  0.24423374727E+03  0.17237429628E+03 0.  0.
        -24    2    5    5    0    0  0.19701113648E+02  0.16295022548E+03  0.70240006750E+01  0.18261531797E+03  0.79737744577E+02 0.  0.
          5    1    3    3  501    0 -0.31462405897E+02 -0.12764244649E+03 -0.91880417670E+02  0.16045740333E+03  0.47000000000E+01 0. -1.
        -13    1    4    4    0    0  0.39048761335E+02 -0.40927872122E+02 -0.11314849020E+03  0.12650089847E+03  0.00000000000E+00 0.  1.
         14    1    4    4    0    0  0.14709342874E+02  0.50153353008E+01  0.10327312984E+02  0.18659360907E+02  0.00000000000E+00 0. -1.
         -5    1    5    5    0  502 -0.41996811961E+02  0.60475783334E+00  0.44840192705E+02  0.61618429295E+02  0.47000000000E+01 0.  1.
         13    1    6    6    0    0  0.37238824442E+02  0.14149127580E+03  0.26569328340E+02  0.14870252312E+03  0.00000000000E+00 0. -1.
        -14    1    6    6    0    0 -0.17537710794E+02  0.21458949676E+02 -0.19545327665E+02  0.33912794851E+02  0.00000000000E+00 0.  1.
</event>
<event>
12    1  0.8053217E-002  0.1764841E+03  0.7818608E-02  0.1171766E+00
         21   -1    0    0  501  502  0.00000000000E+00  0.00000000000E+00  0.99297218393E+02  0.99297218393E+02  0.00000000000E+00 0.  1.
         21   -1    0    0  502  503 -0.00000000000E+00 -0.00000000000E+00 -0.36147185899E+03  0.36147185899E+03  0.00000000000E+00 0.  1.
         -6    2    1    2    0  503  0.10610415219E+02  0.39338991532E+02 -0.21867664271E+03  0.28100908686E+03  0.17171632323E+03 0.  0.
        -24    2    3    3    0    0 -0.52588887951E+02 -0.89218973720E+01 -0.10284235049E+03  0.14042836779E+03  0.79362371673E+02 0.  0.
          6    2    1    2  501    0 -0.10610415219E+02 -0.39338991532E+02 -0.43497997892E+02  0.17975999053E+03  0.16959198451E+03 0.  0.
         24    2    5    5    0    0 -0.20720301893E+02 -0.86655003670E+02 -0.40654736977E+02  0.13106513509E+03  0.87102476582E+02 0.  0.
          5    1    5    5  501    0  0.10109886674E+02  0.47316012138E+02 -0.28432609146E+01  0.48694855435E+02  0.47000000000E+01 0. -1.
        -13    1    6    6    0    0  0.27845197089E+02 -0.35212744438E+01 -0.57251914154E+01  0.28644933084E+02  0.00000000000E+00 0.  1.
         14    1    6    6    0    0 -0.48565498982E+02 -0.83133729227E+02 -0.34929545562E+02  0.10242020201E+03  0.00000000000E+00 0. -1.
         -5    1    3    3    0  503  0.63199303170E+02  0.48260888904E+02 -0.11583429222E+03  0.14058071907E+03  0.47000000000E+01 0.  1.
         13    1    4    4    0    0  0.17179309355E+02 -0.60588167990E+01 -0.28046323737E+01  0.18431057856E+02  0.00000000000E+00 0. -1.
        -14    1    4    4    0    0 -0.69768197307E+02 -0.28630805730E+01 -0.10003771811E+03  0.12199730993E+03  0.00000000000E+00 0.  1.
</event>
<event>
12    1  0.8053217E-002  0.1718679E+03  0.7818608E-02  0.1176620E+00
         21   -1    0    0  501  502  0.00000000000E+00  0.00000000000E+00  0.73561751676E+02  0.73561751676E+02  0.00000000000E+00 0.  1.
         21   -1    0    0  502  503 -0.00000000000E+00 -0.00000000000E+00 -0.73386336692E+03  0.73386336692E+03  0.00000000000E+00 0.  1.
         -6    2    1    2    0  503  0.61836771175E+01 -0.88888540246E+00 -0.60581338183E+03  0.62972091908E+03  0.17175434302E+03 0.  0.
        -24    2    3    3    0    0  0.63022054180E+02 -0.29720209148E+02 -0.32460439589E+03  0.34134194948E+03  0.79317353076E+02 0.  0.
          6    2    1    2  501    0 -0.61836771175E+01  0.88888540246E+00 -0.54488233415E+02  0.17770419951E+03  0.16902895304E+03 0.  0.
         24    2    5    5    0    0 -0.32780324624E+01 -0.53401291125E+02 -0.71630048905E+02  0.12050456773E+03  0.80796308989E+02 0.  0.
          5    1    5    5  501    0 -0.29056446551E+01  0.54290176527E+02  0.17141815491E+02  0.57199631787E+02  0.47000000000E+01 0. -1.
        -11    1    6    6    0    0 -0.26644947741E+02 -0.62474756044E+02 -0.66224449458E+02  0.94861615466E+02  0.00000000000E+00 0.  1.
         12    1    6    6    0    0  0.23366915279E+02  0.90734649185E+01 -0.54055994474E+01  0.25642952261E+02  0.00000000000E+00 0. -1.
         -5    1    3    3    0  503 -0.56838377063E+02  0.28831323746E+02 -0.28120898594E+03  0.28837896960E+03  0.47000000000E+01 0.  1.
         11    1    4    4    0    0 -0.14947575591E+02 -0.19626786336E+02 -0.11151910407E+03  0.11421537256E+03  0.00000000000E+00 0. -1.
        -12    1    4    4    0    0  0.77969629771E+02 -0.10093422812E+02 -0.21308529183E+03  0.22712657692E+03  0.00000000000E+00 0.  1.
</event>
<event>
12    1  0.8053217E-002  0.1834207E+03  0.7818608E-02  0.1164604E+00
         21   -1    0    0  503  502  0.00000000000E+00  0.00000000000E+00  0.24164728457E+03  0.24164728457E+03  0.00000000000E+00 0.  1.
         21   -1    0    0  501  503 -0.00000000000E+00 -0.00000000000E+00 -0.13927758381E+03  0.13927758381E+03  0.00000000000E+00 0.  1.
          6    2    1    2  501    0  0.45110415298E+02 -0.46183002832E+02  0.59708556813E+02  0.19260830321E+03  0.17136226945E+03 0.  0.
         24    2    3    3    0    0  0.22543382066E+02 -0.11188736362E+02  0.10292934209E+03  0.13240866904E+03  0.79399082357E+02 0.  0.
         -6    2    1    2    0  502 -0.45110415298E+02  0.46183002832E+02  0.42661143948E+02  0.18831656517E+03  0.17168382625E+03 0.  0.
        -24    2    5    5    0    0 -0.26939649241E+02  0.73637369505E+02 -0.25339425795E+02  0.11261923051E+03  0.76764560134E+02 0.  0.
          5    1    3    3  501    0  0.22567033232E+02 -0.34994266470E+02 -0.43220785272E+02  0.60199634170E+02  0.47000000000E+01 0. -1.
        -13    1    4    4    0    0  0.13825138644E+02 -0.47179835786E+01 -0.10797124507E+02  0.18165123870E+02  0.00000000000E+00 0.  1.
         14    1    4    4    0    0  0.87182434220E+01 -0.64707527833E+01  0.11372646659E+03  0.11424354517E+03  0.00000000000E+00 0. -1.
         -5    1    5    5    0  502 -0.18170766057E+02 -0.27454366674E+02  0.68000569743E+02  0.75697334655E+02  0.47000000000E+01 0.  1.
         11    1    6    6    0    0  0.11270163608E+02  0.57619777112E+01 -0.32030721598E+02  0.34441023518E+02  0.00000000000E+00 0. -1.
        -12    1    6    6    0    0 -0.38209812849E+02  0.67875391794E+02  0.66912958028E+01  0.78178206993E+02  0.00000000000E+00 0.  1.
</event>
<event>
12    1  0.8053217E-002  0.2141140E+03  0.7818608E-02  0.1138648E+00
         21   -1    0    0  501  502  0.00000000000E+00  0.00000000000E+00  0.52537956667E+02  0.52537956667E+02  0.00000000000E+00 0.  1.
         21   -1    0    0  502  503 -0.00000000000E+00 -0.00000000000E+00 -0.10263177798E+04  0.10263177798E+04  0.00000000000E+00 0.  1.
         -6    2    1    2    0  503 -0.12470238760E+02  0.12510992146E+03 -0.70135190954E+03  0.73330711328E+03  0.17331134434E+03 0.  0.
        -24    2    3    3    0    0 -0.16234267524E+02  0.12508592314E+03 -0.70842131655E+03  0.72402083286E+03  0.80220727131E+02 0.  0.
          6    2    1    2  501    0  0.12470238760E+02 -0.12510992146E+03 -0.27242791363E+03  0.34554862322E+03  0.17140269421E+03 0.  0.
         24    2    5    5    0    0 -0.52518888905E+02 -0.52502923345E+02 -0.18334756682E+03  0.21343972466E+03  0.80158562573E+02 0.  0.
          5    1    5    5  501    0  0.64989127665E+02 -0.72606998118E+02 -0.89080346816E+02  0.13210889856E+03  0.47000000000E+01 0. -1.
        -11    1    6    6    0    0 -0.31196594318E+02  0.68213473078E+01 -0.18397882081E+02  0.36854312383E+02  0.00000000000E+00 0.  1.
         12    1    6    6    0    0 -0.21322294587E+02 -0.59324270653E+02 -0.16494968474E+03  0.17658541228E+03  0.00000000000E+00 0. -1.
         -5    1    3    3    0  503  0.37640287639E+01  0.23998326391E-01  0.70694070176E+01  0.92862804198E+01  0.47000000000E+01 0.  1.
         13    1    4    4    0    0  0.22234900208E+02  0.15749741243E+02 -0.69108181997E+02  0.74285839535E+02  0.00000000000E+00 0. -1.
        -14    1    4    4    0    0 -0.38469167732E+02  0.10933618189E+03 -0.63931313456E+03  0.64973499333E+03  0.00000000000E+00 0.  1.
</event>
<event>
12    1  0.8053217E-002  0.2237442E+03  0.7818608E-02  0.1131307E+00
         21   -1    0    0  503  502  0.00000000000E+00  0.00000000000E+00  0.20084400663E+03  0.20084400663E+03  0.00000000000E+00 0.  1.
         21   -1    0    0  501  503 -0.00000000000E+00 -0.00000000000E+00 -0.11333665278E+04  0.11333665278E+04  0.00000000000E+00 0.  1.
          6    2    1    2  501    0  0.53438590742E+02  0.13267184678E+03 -0.10556048280E+04  0.10788466437E+04  0.17073671490E+03 0.  0.
         24    2    3    3    0    0 -0.18907821491E+02  0.12211116636E+03 -0.77278899861E+03  0.78669528792E+03  0.80112402213E+02 0.  0.
         -6    2    1    2    0  502 -0.53438590742E+02 -0.13267184678E+03  0.12308230679E+03  0.25536389077E+03  0.17205801508E+03 0.  0.
        -24    2    5    5    0    0 -0.97249403027E+02 -0.77376906587E+02  0.11141265291E+03  0.18370366117E+03  0.76743884699E+02 0.  0.
          5    1    3    3  501    0  0.72346412233E+02  0.10560680420E+02 -0.28281582938E+03  0.29215135577E+03  0.47000000000E+01 0. -1.
        -13    1    4    4    0    0  0.40264320320E+01  0.40459828357E+02 -0.48414497515E+03  0.48584932524E+03  0.00000000000E+00 0.  1.
         14    1    4    4    0    0 -0.22934253523E+02  0.81651337999E+02 -0.28864402346E+03  0.30084596268E+03  0.00000000000E+00 0. -1.
         -5    1    5    5    0  502  0.43810812285E+02 -0.55294940189E+02  0.11669653886E+02  0.71660229593E+02  0.47000000000E+01 0.  1.
         13    1    6    6    0    0  0.13133842717E+02 -0.11858027557E+02  0.13948487293E+02  0.22531554315E+02  0.00000000000E+00 0. -1.
        -14    1    6    6    0    0 -0.11038324574E+03 -0.65518879030E+02  0.97464165613E+02  0.16117210686E+03  0.00000000000E+00 0.  1.
</event>
<event>
12    1  0.8053217E-002  0.2421605E+03  0.7818608E-02  0.1119407E+00
         21   -1    0    0  503  502  0.00000000000E+00  0.00000000000E+00  0.84026977790E+03  0.84026977790E+03  0.00000000000E+00 0. -1.
         21   -1    0    0  501  503 -0.00000000000E+00 -0.00000000000E+00 -0.68092335835E+02  0.68092335835E+02  0.00000000000E+00 0.  1.
          6    2    1    2  501    0 -0.19012919010E+02  0.16929880538E+03  0.37414425866E+03  0.44567435185E+03  0.17209917204E+03 0.  0.
         24    2    3    3    0    0  0.57086058163E+01  0.38988882149E+02  0.24077066199E+03  0.25751900070E+03  0.82418462313E+02 0.  0.
         -6    2    1    2    0  502  0.19012919010E+02 -0.16929880538E+03  0.39803318341E+03  0.46268776189E+03  0.16317467118E+03 0.  0.
        -24    2    5    5    0    0  0.69355970839E+02 -0.91312707404E+02  0.20524490177E+03  0.24866517924E+03  0.80997780472E+02 0.  0.
          5    1    3    3  501    0 -0.24721524826E+02  0.13030992323E+03  0.13337359667E+03  0.18815535116E+03  0.47000000000E+01 0. -1.
        -11    1    4    4    0    0 -0.85256793267E+00  0.99134793623E+01 -0.41575927489E+01  0.10783761988E+02  0.00000000000E+00 0.  1.
         12    1    4    4    0    0  0.65611737490E+01  0.29075402787E+02  0.24492825474E+03  0.24673523871E+03  0.00000000000E+00 0. -1.
         -5    1    5    5    0  502 -0.50343051829E+02 -0.77986097971E+02  0.19278828164E+03  0.21402258264E+03  0.47000000000E+01 0.  1.
         11    1    6    6    0    0  0.46272168306E+02 -0.80179417723E+02  0.20278856421E+03  0.22291938982E+03  0.00000000000E+00 0. -1.
        -12    1    6    6    0    0  0.23083802533E+02 -0.11133289681E+02  0.24563375590E+01  0.25745789417E+02  0.00000000000E+00 0.  1.
</event>
<event>
12    1  0.8053217E-002  0.2148616E+03  0.7818608E-02  0.1137828E+00
         21   -1    0    0  501  502  0.00000000000E+00  0.00000000000E+00  0.45681300183E+03  0.45681300183E+03  0.00000000000E+00 0. -1.
         21   -1    0    0  502  503 -0.00000000000E+00 -0.00000000000E+00 -0.10375975995E+03  0.10375975995E+03  0.00000000000E+00 0. -1.
         -6    2    1    2    0  503  0.11842039546E+03  0.51243703733E+02  0.13008756979E+03  0.25092907972E+03  0.17144480162E+03 0.  0.
        -24    2    3    3    0    0  0.78925190527E+02 -0.35921568305E+02  0.85184050475E+02  0.14511758739E+03  0.79266934756E+02 0.  0.
          6    2    1    2  501    0 -0.11842039546E+03 -0.51243703733E+02  0.22296567209E+03  0.30964368205E+03  0.17180282789E+03 0.  0.
         24    2    5    5    0    0 -0.10249090118E+03  0.19690172201E+02  0.18704136835E+03  0.22841555181E+03  0.79354288666E+02 0.  0.
          5    1    5    5  501    0 -0.15929494284E+02 -0.70933875934E+02  0.35924303740E+02  0.81228130241E+02  0.47000000000E+01 0. -1.
        -11    1    6    6    0    0 -0.45667493161E+02 -0.93435444715E+01  0.22151742115E+02  0.51609315377E+02  0.00000000000E+00 0.  1.
         12    1    6    6    0    0 -0.56823408017E+02  0.29033716672E+02  0.16488962623E+03  0.17680623644E+03  0.00000000000E+00 0. -1.
         -5    1    3    3    0  503  0.39495204935E+02  0.87165272039E+02  0.44903519318E+02  0.10581149233E+03  0.47000000000E+01 0.  1.
         13    1    4    4    0    0  0.85402571748E+02 -0.51924954188E+01  0.68193591018E+02  0.10941173212E+03  0.00000000000E+00 0. -1.
        -14    1    4    4    0    0 -0.64773812212E+01 -0.30729072887E+02  0.16990459457E+02  0.35705855269E+02  0.00000000000E+00 0.  1.
</event>
<event>
12    1  0.8053217E-002  0.1798515E+03  0.7818608E-02  0.1168000E+00
         21   -1    0    0  501  502  0.00000000000E+00  0.00000000000E+00  0.48156974980E+03  0.48156974980E+03  0.00000000000E+00 0. -1.
         21   -1    0    0  502  503 -0.00000000000E+00 -0.00000000000E+00 -0.11978700914E+03  0.11978700914E+03  0.00000000000E+00 0. -1.
         -6    2    1    2    0  503  0.51219258565E+02 -0.10773052896E+01 -0.18607016930E+02  0.18059207966E+03  0.17217056985E+03 0.  0.
        -24    2    3    3    0    0  0.53172645485E+02  0.36071114313E+02 -0.64843196018E+02  0.12106313665E+03  0.79518472510E+02 0.  0.
          6    2    1    2  501    0 -0.51219258565E+02  0.10773052896E+01  0.38038975758E+03  0.42076467928E+03  0.17240062245E+03 0.  0.
         24    2    5    5    0    0 -0.77802132063E+02  0.45036767656E+02  0.31224844408E+03  0.33529882585E+03  0.82732880991E+02 0.  0.
          5    1    5    5  501    0  0.26582873499E+02 -0.43959462367E+02  0.68141313506E+02  0.85465853423E+02  0.47000000000E+01 0. -1.
        -13    1    6    6    0    0 -0.29971262202E+02  0.63977872550E+02  0.17473527497E+03  0.18847774684E+03  0.00000000000E+00 0.  1.
         14    1    6    6    0    0 -0.47830869861E+02 -0.18941104893E+02  0.13751316910E+03  0.14682107901E+03  0.00000000000E+00 0. -1.
         -5    1    3    3    0  503 -0.19533869202E+01 -0.37148419603E+02  0.46236179088E+02  0.59528943012E+02  0.47000000000E+01 0.  1.
         11    1    4    4    0    0  0.19455326264E+02  0.49193611088E+02 -0.77423927673E+01  0.53464621365E+02  0.00000000000E+00 0. -1.
        -12    1    4    4    0    0  0.33717319221E+02 -0.13122496775E+02 -0.57100803250E+02  0.67598515286E+02  0.00000000000E+00 0.  1.
</event>
<event>
12    1  0.8053217E-002  0.1834196E+03  0.7818608E-02  0.1164743E+00
         21   -1    0    0  503  502  0.00000000000E+00  0.00000000000E+00  0.21918665867E+02  0.21918665867E+02  0.00000000000E+00 0. -1.
         21   -1    0    0  501  503 -0.00000000000E+00 -0.00000000000E+00 -0.17437722907E+04  0.17437722907E+04  0.00000000000E+00 0. -1.
          6    2    1    2  501    0  0.60953049752E+02 -0.95519623466E+01 -0.11700100222E+04  0.11841635549E+04  0.17179452418E+03 0.  0.
         24    2    3    3    0    0 -0.26314139960E+02 -0.88648807920E+01 -0.35287355719E+03  0.36236666584E+03  0.77581138659E+02 0.  0.
         -6    2    1    2    0  502 -0.60953049752E+02  0.95519623466E+01 -0.55184360271E+03  0.58152740170E+03  0.17273170763E+03 0.  0.
        -24    2    5    5    0    0 -0.45549216536E+00 -0.53477161605E+02 -0.28537488077E+03  0.30106297488E+03  0.79624606651E+02 0.  0.
          5    1    3    3  501    0  0.87267189712E+02 -0.68708155458E+00 -0.81713646498E+03  0.82179688906E+03  0.47000000000E+01 0. -1.
        -13    1    4    4    0    0  0.16889240507E+01 -0.38562128884E+02 -0.22015425490E+03  0.22351238489E+03  0.00000000000E+00 0.  1.
         14    1    4    4    0    0 -0.28003064010E+02  0.29697248092E+02 -0.13271930229E+03  0.13885428095E+03  0.00000000000E+00 0. -1.
         -5    1    5    5    0  502 -0.60497557587E+02  0.63029123951E+02 -0.26646872194E+03  0.28046442682E+03  0.47000000000E+01 0.  1.
         11    1    6    6    0    0 -0.13510068921E+02 -0.54784772827E+02 -0.28189855933E+03  0.28749033210E+03  0.00000000000E+00 0. -1.
        -12    1    6    6    0    0  0.13054576756E+02  0.13076112223E+01 -0.34763214349E+01  0.13572642782E+02  0.00000000000E+00 0.  1.
</event>
<event>
12    1  0.8053217E-002  0.1825634E+03  0.7818608E-02  0.1165519E+00
         21   -1    0    0  503  502  0.00000000000E+00  0.00000000000E+00  0.41188230785E+03  0.41188230785E+03  0.00000000000E+00 0. -1.
         21   -1    0    0  501  503 -0.00000000000E+00 -0.00000000000E+00 -0.80715056656E+02  0.80715056656E+02  0.00000000000E+00 0.  1.
          6    2    1    2  501    0  0.97843201669E+01 -0.58855630015E+02  0.17473426095E+03  0.25217965630E+03  0.17176378837E+03 0.  0.
         24    2    3    3    0    0 -0.51160350620E+02 -0.56448835729E+02  0.56285832922E+02  0.11886737008E+03  0.71815765332E+02 0.  0.
         -6    2    1    2    0  502 -0.97843201669E+01  0.58855630015E+02  0.15643299024E+03  0.24041770820E+03  0.17253891120E+03 0.  0.
        -24    2    5    5    0    0 -0.79457316697E+01  0.96349615247E+02  0.16204893202E+03  0.20217103334E+03  0.72573323897E+02 0.  0.
          5    1    3    3  501    0  0.60944670787E+02 -0.24067942857E+01  0.11844842803E+03  0.13331228622E+03  0.47000000000E+01 0. -1.
        -13    1    4    4    0    0 -0.25094650551E+02  0.14588511805E+02  0.15374862745E+02  0.32847413405E+02  0.00000000000E+00 0.  1.
         14    1    4    4    0    0 -0.26065700069E+02 -0.71037347534E+02  0.40910970177E+02  0.86019956671E+02  0.00000000000E+00 0. -1.
         -5    1    5    5    0  502 -0.18385884971E+01 -0.37493985232E+02 -0.56159417805E+01  0.38246674866E+02  0.47000000000E+01 0.  1.
         13    1    6    6    0    0 -0.49088027716E+01  0.28739244348E+02  0.11769737958E+03  0.12125474701E+03  0.00000000000E+00 0. -1.
        -14    1    6    6    0    0 -0.30369288982E+01  0.67610370899E+02  0.44351552438E+02  0.80916286333E+02  0.00000000000E+00 0.  1.
</event>
<event>
12    1  0.8053217E-002  0.2664048E+03  0.7818608E-02  0.1103405E+00
         21   -1    0    0  501  502  0.00000000000E+00  0.00000000000E+00  0.11012488863E+04  0.11012488863E+04  0.00000000000E+00 0. -1.
         21   -1    0    0  502  503 -0.00000000000E+00 -0.00000000000E+00 -0.13459080493E+03  0.13459080493E+03  0.00000000000E+00 0. -1.
         -6    2    1    2    0  503 -0.29181954302E+02  0.20100466225E+03  0.36825791416E+02  0.26859640161E+03  0.17185292358E+03 0.  0.
        -24    2    3    3    0    0  0.13433917271E+02  0.11162036564E+03  0.81184605342E+02  0.15998949869E+03  0.79787990240E+02 0.  0.
          6    2    1    2  501    0  0.29181954302E+02 -0.20100466225E+03  0.92983228999E+03  0.96724328966E+03  0.17238629058E+03 0.  0.
         24    2    5    5    0    0  0.45047683801E+02 -0.22162050374E+03  0.83753903571E+03  0.87123876331E+03  0.80252133144E+02 0.  0.
          5    1    5    5  501    0 -0.15865729499E+02  0.20615841487E+02  0.92293254278E+02  0.96004526341E+02  0.47000000000E+01 0. -1.
        -11    1    6    6    0    0 -0.13167654692E+02 -0.34484534813E+02  0.22797641256E+03  0.23094548048E+03  0.00000000000E+00 0.  1.
         12    1    6    6    0    0  0.58215338493E+02 -0.18713596892E+03  0.60956262315E+03  0.64029328283E+03  0.00000000000E+00 0. -1.
         -5    1    3    3    0  503 -0.42615871573E+02  0.89384296608E+02 -0.44358813926E+02  0.10860690292E+03  0.47000000000E+01 0.  1.
         11    1    4    4    0    0  0.16136577575E+02  0.11551465021E+03  0.47442248874E+02  0.12591580730E+03  0.00000000000E+00 0. -1.
        -12    1    4    4    0    0 -0.27026603041E+01 -0.38942845674E+01  0.33742356468E+02  0.34073691391E+02  0.00000000000E+00 0.  1.
</event>
<event>
12    1  0.8053217E-002  0.2012199E+03  0.7818608E-02  0.1148774E+00
         21   -1    0    0  501  502  0.00000000000E+00  0.00000000000E+00  0.78984610162E+02  0.78984610162E+02  0.00000000000E+00 0. -1.
         21   -1    0    0  502  503 -0.00000000000E+00 -0.00000000000E+00 -0.18569375963E+04  0.18569375963E+04  0.00000000000E+00 0.  1.
         -6    2    1    2    0  503 -0.35992592784E+02 -0.97000074469E+02 -0.17126127242E+04  0.17243594597E+04  0.17224610863E+03 0.  0.
        -24    2    3    3    0    0 -0.28579897919E+02 -0.12122331737E+03 -0.16504088401E+04  0.16570309610E+04  0.79939745449E+02 0.  0.
          6    2    1    2  501    0  0.35992592784E+02  0.97000074469E+02 -0.65340261844E+02  0.21156274668E+03  0.17258321119E+03 0.  0.
         24    2    5    5    0    0  0.39644002398E+02  0.28045627916E+02 -0.98680694300E+02  0.13474007472E+03  0.77838320481E+02 0.  0.
          5    1    5    5  501    0 -0.36514096147E+01  0.68954446553E+02  0.33340432456E+02  0.76822671966E+02  0.47000000000E+01 0. -1.
        -13    1    6    6    0    0  0.40777203145E+02 -0.18220181058E+02 -0.39591828645E+02  0.59684740006E+02  0.00000000000E+00 0.  1.
         14    1    6    6    0    0 -0.11332007466E+01  0.46265808974E+02 -0.59088865655E+02  0.75055334709E+02  0.00000000000E+00 0. -1.
         -5    1    3    3    0  503 -0.74126948650E+01  0.24223242904E+02 -0.62203884103E+02  0.67328498717E+02  0.47000000000E+01 0.  1.
         11    1    4    4    0    0  0.41325298701E+01 -0.67697429245E+02 -0.46029210212E+03  0.46526211860E+03  0.00000000000E+00 0. -1.
        -12    1    4    4    0    0 -0.32712427789E+02 -0.53525888128E+02 -0.11901167380E+04  0.11917688424E+04  0.00000000000E+00 0.  1.
</event>
<event>
12    1  0.8053217E-002  0.2117596E+03  0.7818608E-02  0.1140815E+00
         21   -1    0    0  501  502  0.00000000000E+00  0.00000000000E+00  0.10370687002E+03  0.10370687002E+03  0.00000000000E+00 0.  1.
         21   -1    0    0  502  503 -0.00000000000E+00 -0.00000000000E+00 -0.62155167772E+03  0.62155167772E+03  0.00000000000E+00 0.  1.
         -6    2    1    2    0  503  0.94679217035E+02  0.78352017904E+02 -0.46103997827E+03  0.50601228137E+03  0.16848553200E+03 0.  0.
        -24    2    3    3    0    0  0.13321386347E+02 -0.16441657444E+02 -0.16510649387E+03  0.18475902507E+03  0.80174532066E+02 0.  0.
          6    2    1    2  501    0 -0.94679217035E+02 -0.78352017904E+02 -0.56804829429E+02  0.21924626637E+03  0.17244982987E+03 0.  0.
         24    2    5    5    0    0 -0.13203053228E+03 -0.66692911395E+02 -0.63225509484E+02  0.17931669528E+03  0.79227560056E+02 0.  0.
          5    1    5    5  501    0  0.37351315244E+02 -0.11659106509E+02  0.64206800554E+01  0.39929571089E+02  0.47000000000E+01 0. -1.
        -13    1    6    6    0    0 -0.10110572509E+03 -0.58128469322E+02 -0.81602224775E+02  0.14233836334E+03  0.00000000000E+00 0.  1.
         14    1    6    6    0    0 -0.30924807191E+02 -0.85644420734E+01  0.18376715291E+02  0.36978331936E+02  0.00000000000E+00 0. -1.
         -5    1    3    3    0  503  0.81357830687E+02  0.94793675348E+02 -0.29593348439E+03  0.32125325630E+03  0.47000000000E+01 0.  1.
         11    1    4    4    0    0  0.28790618741E+02  0.93795324350E+00 -0.14284953162E+02  0.32153372616E+02  0.00000000000E+00 0. -1.
        -12    1    4    4    0    0 -0.15469232393E+02 -0.17379610687E+02 -0.15082154071E+03  0.15260565245E+03  0.00000000000E+00 0.  1.
</event>
<event>
12    1  0.8053217E-002  0.2086003E+03  0.7818608E-02  0.1142888E+00
         21   -1    0    0  501  502  0.00000000000E+00  0.00000000000E+00  0.68789696973E+03  0.68789696973E+03  0.00000000000E+00 0.  1.
         21   -1    0    0  502  503 -0.00000000000E+00 -0.00000000000E+00 -0.65411083161E+02  0.65411083161E+02  0.00000000000E+00 0. -1.
         -6    2    1    2    0  503 -0.10546249996E+03 -0.51526142059E+02  0.23879616210E+03  0.31707677232E+03  0.17244358584E+03 0.  0.
        -24    2    3    3    0    0 -0.93345842966E+01  0.18207136021E+02  0.57547275209E+02  0.10033601648E+03  0.79605232580E+02 0.  0.
          6    2    1    2  501    0  0.10546249996E+03  0.51526142059E+02  0.38368972447E+03  0.43623128057E+03  0.17118014859E+03 0.  0.
         24    2    5    5    0    0  0.11021970022E+03  0.44306824098E+02  0.39593539771E+03  0.42052153776E+03  0.77214296460E+02 0.  0.
          5    1    5    5  501    0 -0.47572002670E+01  0.72193179615E+01 -0.12245673240E+02  0.15709742815E+02  0.47000000000E+01 0. -1.
        -13    1    6    6    0    0  0.81568708124E+02  0.61534515447E+02  0.23665297710E+03  0.25776846647E+03  0.00000000000E+00 0.  1.
         14    1    6    6    0    0  0.28650992101E+02 -0.17227691349E+02  0.15928242061E+03  0.16275307129E+03  0.00000000000E+00 0. -1.
         -5    1    3    3    0  503 -0.96127915661E+02 -0.69733278080E+02  0.18124888689E+03  0.21674075583E+03  0.47000000000E+01 0.  1.
         11    1    4    4    0    0 -0.29195530617E+02 -0.66767941483E+01 -0.47985389017E+01  0.30331247315E+02  0.00000000000E+00 0. -1.
        -12    1    4    4    0    0  0.19860946320E+02  0.24883930169E+02  0.62345814110E+02  0.70004769170E+02  0.00000000000E+00 0.  1.
</event>
<event>
12    1  0.8053217E-002  0.2317140E+03  0.7818608E-02  0.1125505E+00
         21   -1    0    0  501  502  0.00000000000E+00  0.00000000000E+00  0.47038699183E+02  0.47038699183E+02  0.00000000000E+00 0. -1.
         21   -1    0    0  502  503 -0.00000000000E+00 -0.00000000000E+00 -0.11665259388E+04  0.11665259388E+04  0.00000000000E+00 0.  1.
         -6    2    1    2    0  503  0.11135447317E+03 -0.10732155823E+03 -0.46704589413E+03  0.52119833857E+03  0.17204099905E+03 0.  0.
        -24    2    3    3    0    0  0.11079636099E+03 -0.13797466174E+02 -0.29633096984E+03  0.32648639067E+03  0.79467703637E+02 0.  0.
          6    2    1    2  501    0 -0.11135447317E+03  0.10732155823E+03 -0.65244134549E+03  0.69236629941E+03  0.17255042075E+03 0.  0.
         24    2    5    5    0    0 -0.33895585438E+02  0.89290059678E+02 -0.53874079925E+03  0.55353215936E+03  0.83872386402E+02 0.  0.
          5    1    5    5  501    0 -0.77458887732E+02  0.18031498549E+02 -0.11370054624E+03  0.13883414005E+03  0.47000000000E+01 0. -1.
        -11    1    6    6    0    0 -0.23429397765E+02 -0.10807052672E+02 -0.13440155254E+03  0.13685578684E+03  0.00000000000E+00 0.  1.
         12    1    6    6    0    0 -0.10466187673E+02  0.10009711235E+03 -0.40433924671E+03  0.41667637252E+03  0.00000000000E+00 0. -1.
         -5    1    3    3    0  503  0.55811218075E+00 -0.93524092053E+02 -0.17071492428E+03  0.19471194790E+03  0.47000000000E+01 0.  1.
         11    1    4    4    0    0  0.13068602046E+02 -0.18838747118E+02 -0.12191013824E+02  0.25967432882E+02  0.00000000000E+00 0. -1.
        -12    1    4    4    0    0  0.97727758943E+02  0.50412809441E+01 -0.28413995602E+03  0.30051895779E+03  0.00000000000E+00 0.  1.
</event>
<event>
12    1  0.8053217E-002  0.1730316E+03  0.7818608E-02  0.1175482E+00
         21   -1    0    0  501  502  0.00000000000E+00  0.00000000000E+00  0.31947312624E+02  0.31947312624E+02  0.00000000000E+00 0. -1.
         21   -1    0    0  502  503 -0.00000000000E+00 -0.00000000000E+00 -0.10475107998E+04  0.10475107998E+04  0.00000000000E+00 0. -1.
         -6    2    1    2    0  503  0.10042580443E+02 -0.32231888019E+02 -0.31655209183E+03  0.35934917906E+03  0.16669390397E+03 0.  0.
        -24    2    3    3    0    0  0.41808495362E+02  0.66821070375E+01 -0.88480578005E+02  0.12576391030E+03  0.78709260010E+02 0.  0.
          6    2    1    2  501    0 -0.10042580443E+02  0.32231888019E+02 -0.69901139534E+03  0.72010893336E+03  0.16970620808E+03 0.  0.
         24    2    5    5    0    0  0.13610514209E+02 -0.36324672508E+02 -0.26360593281E+03  0.27868002891E+03  0.81668493152E+02 0.  0.
          5    1    5    5  501    0 -0.23653094652E+02  0.68556560527E+02 -0.43540546254E+03  0.44142890445E+03  0.47000000000E+01 0. -1.
        -13    1    6    6    0    0 -0.81629109694E-01  0.25656559775E+02 -0.56226095993E+02  0.61803232871E+02  0.00000000000E+00 0.  1.
         14    1    6    6    0    0  0.13692143319E+02 -0.61981232283E+02 -0.20737983681E+03  0.21687679604E+03  0.00000000000E+00 0. -1.
         -5    1    3    3    0  503 -0.31765914918E+02 -0.38913995056E+02 -0.22807151383E+03  0.23358526876E+03  0.47000000000E+01 0.  1.
         13    1    4    4    0    0  0.26609551725E+01  0.38094674417E+02 -0.29095108635E+02  0.48008439340E+02  0.00000000000E+00 0. -1.
        -14    1    4    4    0    0  0.39147540189E+02 -0.31412567379E+02 -0.59385469370E+02  0.77755470962E+02  0.00000000000E+00 0.  1.
</event>
<event>
12    1  0.8053217E-002  0.2198651E+03  0.7818608E-02  0.1134218E+00
         21   -1    0    0  501  502  0.00000000000E+00  0.00000000000E+00  0.30138645966E+03  0.30138645966E+03  0.00000000000E+00 0.  1.
         21   -1    0    0  502  503 -0.00000000000E+00 -0.00000000000E+00 -0.16748674902E+03  0.16748674902E+03  0.00000000000E+00 0.  1.
         -6    2    1    2    0  503  0.12945135165E+03  0.42483812622E+02  0.11838714535E+03  0.24971218564E+03  0.17256341644E+03 0.  0.
        -24    2    3    3    0    0  0.13901483793E+03  0.32242022947E+02  0.38124878868E+02  0.16810044662E+03  0.80246997179E+02 0.  0.
          6    2    1    2  501    0 -0.12945135165E+03 -0.42483812622E+02  0.15512565284E+02  0.21916102304E+03  0.17096311754E+03 0.  0.
         24    2    5    5    0    0 -0.71074342114E+02 -0.91315317467E+02  0.12526067370E+02  0.14284981628E+03  0.82819794348E+02 0.  0.
          5    1    5    5  501    0 -0.58377009539E+02  0.48831504845E+02  0.29864979139E+01  0.76311206765E+02  0.47000000000E+01 0. -1.
        -13    1    6    6    0    0 -0.61230374161E+02 -0.64867537966E+02 -0.27975913199E+02  0.93485870168E+02  0.00000000000E+00 0.  1.
         14    1    6    6    0    0 -0.98439679527E+01 -0.26447779501E+02  0.40501980569E+02  0.49363946110E+02  0.00000000000E+00 0. -1.
         -5    1    3    3    0  503 -0.95634862751E+01  0.10241789675E+02  0.80262266484E+02  0.81611739025E+02  0.47000000000E+01 0.  1.
         11    1    4    4    0    0  0.99726315164E+02 -0.16457801634E+02  0.21107632619E+02  0.10325565033E+03  0.00000000000E+00 0. -1.
        -12    1    4    4    0    0  0.39288522764E+02  0.48699824582E+02  0.17017246249E+02  0.64844796285E+02  0.00000000000E+00 0.  1.
</event>
<event>
12    1  0.8053217E-002  0.1758176E+03  0.7818608E-02  0.1172445E+00
         21   -1    0    0  501  502  0.00000000000E+00  0.00000000000E+00  0.92237961297E+02  0.92237961297E+02  0.00000000000E+00 0.  1.
         21   -1    0    0  502  503 -0.00000000000E+00 -0.00000000000E+00 -0.38812971947E+03  0.38812971947E+03  0.00000000000E+00 0.  1.
         -6    2    1    2    0  503  0.28954814994E+02 -0.16565525970E+02 -0.24076905838E+03  0.29813014664E+03  0.17262400443E+03 0.  0.
        -24    2    3    3    0    0  0.72364261606E+01  0.55212285576E+02 -0.10784747803E+03  0.14544098801E+03  0.80132640870E+02 0.  0.
          6    2    1    2  501    0 -0.28954814994E+02  0.16565525970E+02 -0.55122699797E+02  0.18223753412E+03  0.17046761818E+03 0.  0.
         24    2    5    5    0    0 -0.37288769985E+02  0.68147109873E+02 -0.67967124647E+02  0.12822657363E+03  0.76079190324E+02 0.  0.
          5    1    5    5  501    0  0.83339549912E+01 -0.51581583903E+02  0.12844424851E+02  0.54010960494E+02  0.47000000000E+01 0. -1.
        -11    1    6    6    0    0 -0.28096616217E+02 -0.61791337736E+01 -0.27162723333E+01  0.28896014819E+02  0.00000000000E+00 0.  1.
         12    1    6    6    0    0 -0.91921537678E+01  0.74326243646E+02 -0.65250852314E+02  0.99330558808E+02  0.00000000000E+00 0. -1.
         -5    1    3    3    0  503  0.21718388833E+02 -0.71777811546E+02 -0.13292158035E+03  0.15268915864E+03  0.47000000000E+01 0.  1.
         11    1    4    4    0    0 -0.21413092555E+02  0.42797645972E+02 -0.19390035357E+02  0.51634605689E+02  0.00000000000E+00 0. -1.
        -12    1    4    4    0    0  0.28649518716E+02  0.12414639604E+02 -0.88457442672E+02  0.93806382316E+02  0.00000000000E+00 0.  1.
</event>
<event>
12    1  0.8053217E-002  0.2166418E+03  0.7818608E-02  0.1136725E+00
         21   -1    0    0  501  502  0.00000000000E+00  0.00000000000E+00  0.14520018470E+03  0.14520018470E+03  0.00000000000E+00 0.  1.
         21   -1    0    0  502  503 -0.00000000000E+00 -0.00000000000E+00 -0.32750812263E+03  0.32750812263E+03  0.00000000000E+00 0. -1.
         -6    2    1    2    0  503 -0.10386300138E+03  0.76647376797E+02 -0.12466378204E+03  0.24852865189E+03  0.17193920098E+03 0.  0.
        -24    2    3    3    0    0 -0.70618462604E+02  0.94733928641E+02 -0.28674006368E+02  0.14524046404E+03  0.79442490250E+02 0.  0.
          6    2    1    2  501    0  0.10386300138E+03 -0.76647376797E+02 -0.57644155893E+02  0.22417965544E+03  0.17398656782E+03 0.  0.
         24    2    5    5    0    0  0.97325480537E+02 -0.95966770193E+02  0.53301647789E+01  0.15781827206E+03  0.78716746611E+02 0.  0.
          5    1    5    5  501    0  0.65375208387E+01  0.19319393397E+02 -0.62974320672E+02  0.66361383380E+02  0.47000000000E+01 0. -1.
        -11    1    6    6    0    0  0.31336289096E+02 -0.11302114015E+02  0.33078996925E+02  0.46945935214E+02  0.00000000000E+00 0.  1.
         12    1    6    6    0    0  0.65989191442E+02 -0.84664656178E+02 -0.27748832146E+02  0.11087233685E+03  0.00000000000E+00 0. -1.
         -5    1    3    3    0  503 -0.33244538772E+02 -0.18086551844E+02 -0.95989775669E+02  0.10328818785E+03  0.47000000000E+01 0.  1.
         13    1    4    4    0    0 -0.80487008729E+02  0.79725169225E+02 -0.44094090865E+02  0.12156705981E+03  0.00000000000E+00 0. -1.
        -14    1    4    4    0    0  0.98685461255E+01  0.15008759416E+02  0.15420084497E+02  0.23673404228E+02  0.00000000000E+00 0.  1.
</event>
<event>
12    1  0.8053217E-002  0.2197202E+03  0.7818608E-02  0.1134256E+00
         21   -1    0    0  501  502  0.00000000000E+00  0.00000000000E+00  0.79636938700E+02  0.79636938700E+02  0.00000000000E+00 0. -1.
         21   -1    0    0  502  503 -0.00000000000E+00 -0.00000000000E+00 -0.95516155321E+03  0.95516155321E+03  0.00000000000E+00 0. -1.
         -6    2    1    2    0  503 -0.12458192663E+02  0.13695174005E+03 -0.75102010440E+03  0.78225477072E+03  0.17023614019E+03 0.  0.
        -24    2    3    3    0    0 -0.10946209404E+02 -0.17817786714E+01 -0.21173740779E+03  0.22539106012E+03  0.76455254173E+02 0.  0.
          6    2    1    2  501    0  0.12458192663E+02 -0.13695174005E+03 -0.12450451011E+03  0.25254372119E+03  0.17136502680E+03 0.  0.
         24    2    5    5    0    0 -0.27357903469E+02 -0.11979221817E+02 -0.69519086303E+02  0.11024495572E+03  0.80181608011E+02 0.  0.
          5    1    5    5  501    0  0.39816096131E+02 -0.12497251823E+03 -0.54985423804E+02  0.14229876547E+03  0.47000000000E+01 0. -1.
        -13    1    6    6    0    0 -0.61064266272E+01  0.26920142073E+02  0.22746812369E+00  0.27604967617E+02  0.00000000000E+00 0.  1.
         14    1    6    6    0    0 -0.21251476841E+02 -0.38899363890E+02 -0.69746554427E+02  0.82639988101E+02  0.00000000000E+00 0. -1.
         -5    1    3    3    0  503 -0.15119832589E+01  0.13873351872E+03 -0.53928269661E+03  0.55686371059E+03  0.47000000000E+01 0.  1.
         13    1    4    4    0    0 -0.26767112532E+01  0.32765836918E+02 -0.50292352731E+02  0.60083987844E+02  0.00000000000E+00 0. -1.
        -14    1    4    4    0    0 -0.82694981505E+01 -0.34547615590E+02 -0.16144505506E+03  0.16530707228E+03  0.00000000000E+00 0.  1.
</event>
<event>
12    1  0.8053217E-002  0.1817073E+03  0.7818608E-02  0.1166270E+00
         21   -1    0    0  503  502  0.00000000000E+00  0.00000000000E+00  0.20990525286E+03  0.20990525286E+03  0.00000000000E+00 0.  1.
         21   -1    0    0  501  503 -0.00000000000E+00 -0.00000000000E+00 -0.17795489211E+03  0.17795489211E+03  0.00000000000E+00 0.  1.
          6    2    1    2  501    0 -0.15040696827E-01  0.58622132161E+02 -0.50745149736E+02  0.18822028824E+03  0.17150875219E+03 0.  0.
         24    2    3    3    0    0 -0.85768976462E+01 -0.22790150348E+02 -0.63135373292E+02  0.10529337597E+03  0.80670103117E+02 0.  0.
         -6    2    1    2    0  502  0.15040696827E-01 -0.58622132161E+02  0.82695510491E+02  0.19963985674E+03  0.17199119262E+03 0.  0.
        -24    2    5    5    0    0 -0.38234489525E+02 -0.77097302518E+02  0.13436665773E+02  0.11825659032E+03  0.79988792475E+02 0.  0.
          5    1    3    3  501    0  0.85618569494E+01  0.81412282509E+02  0.12390223556E+02  0.82926912263E+02  0.47000000000E+01 0. -1.
        -11    1    4    4    0    0  0.36173334469E+02 -0.74394491441E+01 -0.28949252482E+02  0.46924564456E+02  0.00000000000E+00 0.  1.
         12    1    4    4    0    0 -0.44750232115E+02 -0.15350701204E+02 -0.34186120810E+02  0.58368811517E+02  0.00000000000E+00 0. -1.
         -5    1    5    5    0  502  0.38249530222E+02  0.18475170357E+02  0.69258844718E+02  0.81383266422E+02  0.47000000000E+01 0.  1.
         11    1    6    6    0    0 -0.57663879171E+02 -0.62777121602E+02  0.28412150742E+02  0.89851768305E+02  0.00000000000E+00 0. -1.
        -12    1    6    6    0    0  0.19429389646E+02 -0.14320180916E+02 -0.14975484969E+02  0.28404822012E+02  0.00000000000E+00 0.  1.
</event>
<event>
12    1  0.8053217E-002  0.7748643E+03  0.7818608E-02  0.9597283E-01
         21   -1    0    0  501  502  0.00000000000E+00  0.00000000000E+00  0.66393159408E+03  0.66393159408E+03  0.00000000000E+00 0.  1.
         21   -1    0    0  502  503 -0.00000000000E+00 -0.00000000000E+00 -0.10528009085E+04  0.10528009085E+04  0.00000000000E+00 0. -1.
         -6    2    1    2    0  503  0.66633214811E+03  0.35608026990E+03 -0.51724647236E+03  0.93130565192E+03  0.17027804881E+03 0.  0.
        -24    2    3    3    0    0  0.65318685618E+03  0.34288481136E+03 -0.46517037085E+03  0.87579953357E+03  0.80114206805E+02 0.  0.
          6    2    1    2  501    0 -0.66633214811E+03 -0.35608026990E+03  0.12837715793E+03  0.78542685066E+03  0.17211319772E+03 0.  0.
         24    2    5    5    0    0 -0.63346006577E+03 -0.33788363020E+03  0.15546750056E+03  0.73886862735E+03  0.79496555036E+02 0.  0.
          5    1    5    5  501    0 -0.32872082345E+02 -0.18196639695E+02 -0.27090342629E+02  0.46558223309E+02  0.47000000000E+01 0. -1.
        -11    1    6    6    0    0 -0.30347743748E+03 -0.20611292434E+03  0.71330705746E+02  0.37372337661E+03  0.00000000000E+00 0.  1.
         12    1    6    6    0    0 -0.32998262829E+03 -0.13177070586E+03  0.84136794819E+02  0.36514525074E+03  0.00000000000E+00 0. -1.
         -5    1    3    3    0  503  0.13145291935E+02  0.13195458534E+02 -0.52076101509E+02  0.55506118351E+02  0.47000000000E+01 0.  1.
         11    1    4    4    0    0  0.72808089902E+02  0.11888495058E+02 -0.51592955262E+02  0.90023259786E+02  0.00000000000E+00 0. -1.
        -12    1    4    4    0    0  0.58037876628E+03  0.33099631631E+03 -0.41357741559E+03  0.78577627378E+03  0.00000000000E+00 0.  1.
</event>
<event>
12    1  0.8053217E-002  0.1920246E+03  0.7818608E-02  0.1156965E+00
         21   -1    0    0  503  502  0.00000000000E+00  0.00000000000E+00  0.94642396023E+03  0.94642396023E+03  0.00000000000E+00 0.  1.
         21   -1    0    0  501  503 -0.00000000000E+00 -0.00000000000E+00 -0.40954302675E+02  0.40954302675E+02  0.00000000000E+00 0.  1.
          6    2    1    2  501    0 -0.28449614490E+02 -0.78583901354E+02  0.33464435128E+03  0.38512002340E+03  0.17130610166E+03 0.  0.
         24    2    3    3    0    0  0.14472877778E+02 -0.92879843861E+01  0.26752935980E+03  0.27942812905E+03  0.78818716700E+02 0.  0.
         -6    2    1    2    0  502  0.28449614490E+02  0.78583901354E+02  0.57082530628E+03  0.60225823950E+03  0.17288333248E+03 0.  0.
        -24    2    5    5    0    0  0.48397680943E+02  0.67217381685E+02  0.56667461866E+03  0.57845821152E+03  0.81444871619E+02 0.  0.
          5    1    3    3  501    0 -0.42922492267E+02 -0.69295916968E+02  0.67114991477E+02  0.10569189435E+03  0.47000000000E+01 0. -1.
        -13    1    4    4    0    0  0.67774429882E+01 -0.30052961159E+02  0.24798688396E+03  0.24989319484E+03  0.00000000000E+00 0.  1.
         14    1    4    4    0    0  0.76954347895E+01  0.20764976773E+02  0.19542475838E+02  0.29534934211E+02  0.00000000000E+00 0. -1.
         -5    1    5    5    0  502 -0.19948066453E+02  0.11366519669E+02  0.41506876138E+01  0.23800027989E+02  0.47000000000E+01 0.  1.
         11    1    6    6    0    0 -0.12367530423E+02  0.36155877025E+02  0.32801226686E+03  0.33023060195E+03  0.00000000000E+00 0. -1.
        -12    1    6    6    0    0  0.60765211366E+02  0.31061504659E+02  0.23866235180E+03  0.24822760956E+03  0.00000000000E+00 0.  1.
</event>
<event>
12    1  0.8053217E-002  0.2147029E+03  0.7818608E-02  0.1138003E+00
         21   -1    0    0  501  502  0.00000000000E+00  0.00000000000E+00  0.14739200195E+03  0.14739200195E+03  0.00000000000E+00 0. -1.
         21   -1    0    0  502  503 -0.00000000000E+00 -0.00000000000E+00 -0.32774303376E+03  0.32774303376E+03  0.00000000000E+00 0.  1.
         -6    2    1    2    0  503 -0.24732865139E+02  0.12560490257E+03 -0.14223953706E+03  0.25707586816E+03  0.17166132331E+03 0.  0.
        -24    2    3    3    0    0 -0.17123088845E+02 -0.51216837888E+01 -0.70159594867E+02  0.10752668849E+03  0.79499611122E+02 0.  0.
          6    2    1    2  501    0  0.24732865139E+02 -0.12560490257E+03 -0.38111494740E+02  0.21805916754E+03  0.17236301330E+03 0.  0.
         24    2    5    5    0    0 -0.42065571656E+02 -0.11133545820E+03 -0.89877152851E+01  0.14365531865E+03  0.79943573715E+02 0.  0.
          5    1    5    5  501    0  0.66798436795E+02 -0.14269444364E+02 -0.29123779455E+02  0.74403848896E+02  0.47000000000E+01 0. -1.
        -11    1    6    6    0    0 -0.32170592388E+02 -0.94772911554E+02 -0.39465452484E+02  0.10758426334E+03  0.00000000000E+00 0.  1.
         12    1    6    6    0    0 -0.98949792681E+01 -0.16562546647E+02  0.30477737199E+02  0.36071055306E+02  0.00000000000E+00 0. -1.
         -5    1    3    3    0  503 -0.76097762948E+01  0.13072658635E+03 -0.72079942197E+02  0.14954917968E+03  0.47000000000E+01 0.  1.
         13    1    4    4    0    0 -0.16813101230E+02  0.77338885484E+01  0.13485599623E+02  0.22898794777E+02  0.00000000000E+00 0. -1.
        -14    1    4    4    0    0 -0.30998761481E+00 -0.12855572337E+02 -0.83645194491E+02  0.84627893710E+02  0.00000000000E+00 0.  1.
</event>
<event>
12    1  0.8053217E-002  0.1796287E+03  0.7818608E-02  0.1168572E+00
         21   -1    0    0  503  502  0.00000000000E+00  0.00000000000E+00  0.20429263398E+03  0.20429263398E+03  0.00000000000E+00 0. -1.
         21   -1    0    0  501  503 -0.00000000000E+00 -0.00000000000E+00 -0.15870536072E+03  0.15870536072E+03  0.00000000000E+00 0. -1.
          6    2    1    2  501    0  0.48267770310E+02 -0.46025658892E+01  0.13690553811E+01  0.17963396594E+03  0.17296105383E+03 0.  0.
         24    2    3    3    0    0 -0.29718830251E+02 -0.51610906929E+01  0.37284162837E+02  0.93644392379E+02  0.80432068834E+02 0.  0.
         -6    2    1    2    0  502 -0.48267770310E+02  0.46025658892E+01  0.44218217883E+02  0.18336402876E+03  0.17121961041E+03 0.  0.
        -24    2    5    5    0    0  0.34391587908E+02  0.22916148524E+02  0.41584289020E+01  0.89583255131E+02  0.79372135456E+02 0.  0.
          5    1    3    3  501    0  0.77986600562E+02  0.55852480370E+00 -0.35915107456E+02  0.85989573558E+02  0.47000000000E+01 0. -1.
        -13    1    4    4    0    0  0.98740118373E+00  0.82279091774E+01  0.55088623208E+02  0.55708436143E+02  0.00000000000E+00 0.  1.
         14    1    4    4    0    0 -0.30706231435E+02 -0.13388999870E+02 -0.17804460371E+02  0.37935956236E+02  0.00000000000E+00 0. -1.
         -5    1    5    5    0  502 -0.82659358219E+02 -0.18313582634E+02  0.40059788981E+02  0.93780773633E+02  0.47000000000E+01 0.  1.
         11    1    6    6    0    0  0.47819988484E+02  0.35475261648E+01 -0.23370741104E+02  0.53343488640E+02  0.00000000000E+00 0. -1.
        -12    1    6    6    0    0 -0.13428400576E+02  0.19368622359E+02  0.27529170006E+02  0.36239766491E+02  0.00000000000E+00 0.  1.
</event>
<event>
12    1  0.8053217E-002  0.1968421E+03  0.7818608E-02  0.1152496E+00
         21   -1    0    0  503  502  0.00000000000E+00  0.00000000000E+00  0.64156978915E+03  0.64156978915E+03  0.00000000000E+00 0. -1.
         21   -1    0    0  501  503 -0.00000000000E+00 -0.00000000000E+00 -0.10224063742E+03  0.10224063742E+03  0.00000000000E+00 0. -1.
          6    2    1    2  501    0 -0.94192227045E+02  0.14517043448E+02  0.31593227318E+02  0.19936134919E+03  0.17223209733E+03 0.  0.
         24    2    3    3    0    0 -0.11472781516E+03 -0.20917441058E+02 -0.92902439175E+01  0.14130223025E+03  0.79246455629E+02 0.  0.
         -6    2    1    2    0  502  0.94192227045E+02 -0.14517043448E+02  0.50773592442E+03  0.54444907738E+03  0.17188981567E+03 0.  0.
        -24    2    5    5    0    0  0.49168866477E+02 -0.74228829148E+02  0.25007576247E+03  0.27611449258E+03  0.75985719241E+02 0.  0.
          5    1    3    3  501    0  0.20535588114E+02  0.35434484507E+02  0.40883471236E+02  0.58059118937E+02  0.47000000000E+01 0. -1.
        -13    1    4    4    0    0 -0.76356886286E+02 -0.50224989548E+02  0.31275233346E+01  0.91447826987E+02  0.00000000000E+00 0.  1.
         14    1    4    4    0    0 -0.38370928873E+02  0.29307548490E+02 -0.12417767252E+02  0.49854403262E+02  0.00000000000E+00 0. -1.
         -5    1    5    5    0  502  0.45023360568E+02  0.59711785700E+02  0.25766016194E+03  0.26833458480E+03  0.47000000000E+01 0.  1.
         13    1    6    6    0    0  0.52969091353E+02 -0.12079124588E+02  0.12876523328E+03  0.13975734396E+03  0.00000000000E+00 0. -1.
        -14    1    6    6    0    0 -0.38002248762E+01 -0.62149704560E+02  0.12131052920E+03  0.13635714862E+03  0.00000000000E+00 0.  1.
</event>
<event>
12    1  0.8053217E-002  0.1912341E+03  0.7818608E-02  0.1158348E+00
         21   -1    0    0  501  502  0.00000000000E+00  0.00000000000E+00  0.64317877535E+02  0.64317877535E+02  0.00000000000E+00 0. -1.
         21   -1    0    0  502  503 -0.00000000000E+00 -0.00000000000E+00 -0.60281731237E+03  0.60281731237E+03  0.00000000000E+00 0.  1.
         -6    2    1    2    0  503  0.54475115345E+02  0.62195740359E+02 -0.36548703495E+03  0.41249395026E+03  0.17243734506E+03 0.  0.
        -24    2    3    3    0    0  0.91985197174E+02  0.65696218790E+02 -0.20479046190E+03  0.24737357544E+03  0.80481568581E+02 0.  0.
          6    2    1    2  501    0 -0.54475115345E+02 -0.62195740359E+02 -0.17301239989E+03  0.25464123965E+03  0.16755005850E+03 0.  0.
         24    2    5    5    0    0  0.32020097168E+02 -0.34504144302E+02 -0.10475741143E+03  0.14093512843E+03  0.81687040454E+02 0.  0.
          5    1    5    5  501    0 -0.86495212513E+02 -0.27691596057E+02 -0.68254988452E+02  0.11370611122E+03  0.47000000000E+01 0. -1.
        -13    1    6    6    0    0  0.71076611463E+01 -0.49722435491E+00 -0.97979298348E+02  0.98238022088E+02  0.00000000000E+00 0.  1.
         14    1    6    6    0    0  0.24912436022E+02 -0.34006919947E+02 -0.67781130858E+01  0.42697106340E+02  0.00000000000E+00 0. -1.
         -5    1    3    3    0  503 -0.37510081829E+02 -0.35004784310E+01 -0.16069657305E+03  0.16512037481E+03  0.47000000000E+01 0.  1.
         11    1    4    4    0    0  0.82719410613E+02  0.21622533920E+02 -0.90355695239E+02  0.12439528338E+03  0.00000000000E+00 0. -1.
        -12    1    4    4    0    0  0.92657865619E+01  0.44073684870E+02 -0.11443476666E+03  0.12297829206E+03  0.00000000000E+00 0.  1.
</event>
<event>
12    1  0.8053217E-002  0.1866520E+03  0.7818608E-02  0.1161911E+00
         21   -1    0    0  503  502  0.00000000000E+00  0.00000000000E+00  0.22581421932E+03  0.22581421932E+03  0.00000000000E+00 0.  1.
         21   -1    0    0  501  503 -0.00000000000E+00 -0.00000000000E+00 -0.15458589029E+03  0.15458589029E+03  0.00000000000E+00 0.  1.
          6    2    1    2  501    0 -0.13103604007E+02  0.64476565861E+02  0.15467713011E+02  0.18559709779E+03  0.17285282924E+03 0.  0.
         24    2    3    3    0    0 -0.50715905131E+00  0.15692111071E+02  0.73119470200E+02  0.10888719907E+03  0.79142059853E+02 0.  0.
         -6    2    1    2    0  502  0.13103604007E+02 -0.64476565861E+02  0.55760616023E+02  0.19480301183E+03  0.17467122011E+03 0.  0.
        -24    2    5    5    0    0  0.61344439632E+02 -0.54000755531E+02  0.79929078960E+02  0.13963848133E+03  0.80193677643E+02 0.  0.
          5    1    3    3  501    0 -0.12596444955E+02  0.48784454791E+02 -0.57651757189E+02  0.76709898721E+02  0.47000000000E+01 0. -1.
        -13    1    4    4    0    0 -0.30367483459E+01 -0.27999195480E+02  0.60562384977E+01  0.28807200711E+02  0.00000000000E+00 0.  1.
         14    1    4    4    0    0  0.25295892946E+01  0.43691306551E+02  0.67063231702E+02  0.80079998355E+02  0.00000000000E+00 0. -1.
         -5    1    5    5    0  502 -0.48240835625E+02 -0.10475810330E+02 -0.24168462937E+02  0.55164530494E+02  0.47000000000E+01 0.  1.
         13    1    6    6    0    0 -0.11120311856E+02 -0.38732697364E+02  0.31574158519E+02  0.51193853801E+02  0.00000000000E+00 0. -1.
        -14    1    6    6    0    0  0.72464751487E+02 -0.15268058167E+02  0.48354920441E+02  0.88444627531E+02  0.00000000000E+00 0.  1.
</event>
<event>
12    1  0.8053217E-002  0.1775446E+03  0.7818608E-02  0.1170452E+00
         21   -1    0    0  501  502  0.00000000000E+00  0.00000000000E+00  0.11740257224E+03  0.11740257224E+03  0.00000000000E+00 0. -1.
         21   -1    0    0  502  503 -0.00000000000E+00 -0.00000000000E+00 -0.44048235348E+03  0.44048235348E+03  0.00000000000E+00 0. -1.
         -6    2    1    2    0  503 -0.38563270832E+02  0.32801653617E+02 -0.33689698409E+03  0.38081707855E+03  0.17017342651E+03 0.  0.
        -24    2    3    3    0    0 -0.14276570408E+02 -0.24366686541E+02 -0.79883287092E+02  0.11636255812E+03  0.79758068552E+02 0.  0.
          6    2    1    2  501    0  0.38563270832E+02 -0.32801653617E+02  0.13817202844E+02  0.17706784717E+03  0.16911248644E+03 0.  0.
         24    2    5    5    0    0  0.24397926363E+02 -0.76327834450E+00 -0.54836318607E+02  0.99850553240E+02  0.79795173659E+02 0.  0.
          5    1    5    5  501    0  0.14165344469E+02 -0.32038375273E+02  0.68653521451E+02  0.77217293929E+02  0.47000000000E+01 0. -1.
        -13    1    6    6    0    0  0.87815019148E+01  0.22316856178E+02  0.12450310915E+02  0.27021604087E+02  0.00000000000E+00 0.  1.
         14    1    6    6    0    0  0.15616424449E+02 -0.23080134523E+02 -0.67286629522E+02  0.72828949152E+02  0.00000000000E+00 0. -1.
         -5    1    3    3    0  503 -0.24286700424E+02  0.57168340159E+02 -0.25701369699E+03  0.26445452043E+03  0.47000000000E+01 0.  1.
         11    1    4    4    0    0 -0.32733388259E+02  0.15273239115E+02 -0.55720986142E+02  0.66404629633E+02  0.00000000000E+00 0. -1.
        -12    1    4    4    0    0  0.18456817851E+02 -0.39639925656E+02 -0.24162300949E+02  0.49957928483E+02  0.00000000000E+00 0.  1.
</event>
<event>
12    1  0.8053217E-002  0.2099709E+03  0.7818608E-02  0.1141907E+00
         21   -1    0    0  501  502  0.00000000000E+00  0.00000000000E+00  0.29756791891E+03  0.29756791891E+03  0.00000000000E+00 0. -1.
         21   -1    0    0  502  503 -0.00000000000E+00 -0.00000000000E+00 -0.23873885847E+03  0.23873885847E+03  0.00000000000E+00 0.  1.
         -6    2    1    2    0  503 -0.12131567633E+02  0.11902383908E+03 -0.13684798103E+03  0.24929237987E+03  0.17060325772E+03 0.  0.
        -24    2    3    3    0    0 -0.60573306658E+02  0.93421920164E+02 -0.13805054088E+03  0.19428695757E+03  0.79326473498E+02 0.  0.
          6    2    1    2  501    0  0.12131567633E+02 -0.11902383908E+03  0.19567704147E+03  0.28701439751E+03  0.17255118261E+03 0.  0.
         24    2    5    5    0    0  0.73900881455E+02 -0.66171781009E+02  0.13502427488E+03  0.18547801848E+03  0.79564411966E+02 0.  0.
          5    1    5    5  501    0 -0.61769313821E+02 -0.52852058067E+02  0.60652766589E+02  0.10153637903E+03  0.47000000000E+01 0. -1.
        -13    1    6    6    0    0  0.11524271231E+02 -0.19754751693E+02 -0.66956882108E+01  0.23830469624E+02  0.00000000000E+00 0.  1.
         14    1    6    6    0    0  0.62376610224E+02 -0.46417029316E+02  0.14171996309E+03  0.16164754886E+03  0.00000000000E+00 0. -1.
         -5    1    3    3    0  503  0.48441739025E+02  0.25601918912E+02  0.12025598523E+01  0.55005422296E+02  0.47000000000E+01 0.  1.
         11    1    4    4    0    0  0.10343973563E+02  0.31979296494E+02 -0.91184613678E+01  0.34825558589E+02  0.00000000000E+00 0. -1.
        -12    1    4    4    0    0 -0.70917280221E+02  0.61442623670E+02 -0.12893207951E+03  0.15946139898E+03  0.00000000000E+00 0.  1.
</event>
<event>
12    1  0.8053217E-002  0.1900611E+03  0.7818608E-02  0.1158424E+00
         21   -1    0    0  503  502  0.00000000000E+00  0.00000000000E+00  0.29555415562E+03  0.29555415562E+03  0.00000000000E+00 0.  1.
         21   -1    0    0  501  503 -0.00000000000E+00 -0.00000000000E+00 -0.14582533955E+03  0.14582533955E+03  0.00000000000E+00 0.  1.
          6    2    1    2  501    0 -0.55814355244E+02 -0.62555417692E+02 -0.14005052851E+02  0.19057644391E+03  0.17057202858E+03 0.  0.
         24    2    3    3    0    0 -0.52672740122E+02 -0.10406910168E+03 -0.32124209087E+02  0.14492943386E+03  0.79798374124E+02 0.  0.
         -6    2    1    2    0  502  0.55814355244E+02  0.62555417692E+02  0.16373386892E+03  0.25080305126E+03  0.17048451002E+03 0.  0.
        -24    2    5    5    0    0 -0.20444090519E+01  0.27112429956E+02  0.11816769673E+02  0.84355651074E+02  0.78974529794E+02 0.  0.
          5    1    3    3  501    0 -0.31416151224E+01  0.41513683988E+02  0.18119156236E+02  0.45647010050E+02  0.47000000000E+01 0. -1.
        -13    1    4    4    0    0 -0.70964004052E+02 -0.83727055526E+02 -0.10879541580E+02  0.11029267484E+03  0.00000000000E+00 0.  1.
         14    1    4    4    0    0  0.18291263931E+02 -0.20342046154E+02 -0.21244667507E+02  0.34636759020E+02  0.00000000000E+00 0. -1.
         -5    1    5    5    0  502  0.57858764296E+02  0.35442987736E+02  0.15191709925E+03  0.16644740019E+03  0.47000000000E+01 0.  1.
         11    1    6    6    0    0  0.44929863667E+01 -0.27468029463E+02 -0.12219570874E+01  0.27859877031E+02  0.00000000000E+00 0. -1.
        -12    1    6    6    0    0 -0.65373954185E+01  0.54580459418E+02  0.13038726761E+02  0.56495774043E+02  0.00000000000E+00 0.  1.
</event>
<event>
12    1  0.8053217E-002  0.2357396E+03  0.7818608E-02  0.1122723E+00
         21   -1    0    0  501  502  0.00000000000E+00  0.00000000000E+00  0.86705817585E+03  0.86705817585E+03  0.00000000000E+00 0.  1.
         21   -1    0    0  502  503 -0.00000000000E+00 -0.00000000000E+00 -0.65598600003E+02  0.65598600003E+02  0.00000000000E+00 0.  1.
         -6    2    1    2    0  503 -0.98736735411E+02  0.12696300215E+03  0.47381883548E+03  0.52922343069E+03  0.17235023614E+03 0.  0.
        -24    2    3    3    0    0 -0.49471065930E+02  0.30975843028E+02  0.35600580325E+03  0.36940277661E+03  0.79444258472E+02 0.  0.
          6    2    1    2  501    0  0.98736735411E+02 -0.12696300215E+03  0.32764074037E+03  0.40343334516E+03  0.17187629972E+03 0.  0.
         24    2    5    5    0    0 -0.10548680408E+01 -0.91435142422E+02  0.10668667487E+03  0.15835502708E+03  0.73025817280E+02 0.  0.
          5    1    5    5  501    0  0.99791603452E+02 -0.35527859733E+02  0.22095406550E+03  0.24507831809E+03  0.47000000000E+01 0. -1.
        -11    1    6    6    0    0  0.33713057054E+02 -0.61822964487E+02  0.74299886826E+02  0.10236758440E+03  0.00000000000E+00 0.  1.
         12    1    6    6    0    0 -0.34767925095E+02 -0.29612177935E+02  0.32386788042E+02  0.55987442673E+02  0.00000000000E+00 0. -1.
         -5    1    3    3    0  503 -0.49265669481E+02  0.95987159127E+02  0.11781303223E+03  0.15982065408E+03  0.47000000000E+01 0.  1.
         13    1    4    4    0    0 -0.52532802387E+02  0.16967433399E+02  0.34918884847E+03  0.35352572894E+03  0.00000000000E+00 0. -1.
        -14    1    4    4    0    0  0.30617364573E+01  0.14008409629E+02  0.68169547821E+01  0.15877047678E+02  0.00000000000E+00 0.  1.
</event>
<event>
12    1  0.8053217E-002  0.1762785E+03  0.7818608E-02  0.1172015E+00
         21   -1    0    0  501  502  0.00000000000E+00  0.00000000000E+00  0.43170881925E+02  0.43170881925E+02  0.00000000000E+00 0. -1.
         21   -1    0    0  502  503 -0.00000000000E+00 -0.00000000000E+00 -0.10154119964E+04  0.10154119964E+04  0.00000000000E+00 0.  1.
         -6    2    1    2    0  503  0.22468932401E+02  0.27328907414E+02 -0.77389991421E+03  0.79322777076E+03  0.17040392304E+03 0.  0.
        -24    2    3    3    0    0 -0.39958342620E+02  0.11225343769E+02 -0.61792992365E+03  0.62439288875E+03  0.79412917648E+02 0.  0.
          6    2    1    2  501    0 -0.22468932401E+02 -0.27328907414E+02 -0.19834120028E+03  0.26535510759E+03  0.17269157272E+03 0.  0.
         24    2    5    5    0    0 -0.57974885716E+01 -0.82291095659E+02 -0.96748508864E+02  0.14855637418E+03  0.76832851322E+02 0.  0.
          5    1    5    5  501    0 -0.16671443830E+02  0.54962188245E+02 -0.10159269142E+03  0.11679873341E+03  0.47000000000E+01 0. -1.
        -13    1    6    6    0    0 -0.12464229416E+02 -0.53737840096E+01 -0.62741481984E+02  0.64192897824E+02  0.00000000000E+00 0.  1.
         14    1    6    6    0    0  0.66667408445E+01 -0.76917311649E+02 -0.34007026880E+02  0.84363476351E+02  0.00000000000E+00 0. -1.
         -5    1    3    3    0  503  0.62427275021E+02  0.16103563645E+02 -0.15596999056E+03  0.16883488201E+03  0.47000000000E+01 0.  1.
         11    1    4    4    0    0 -0.29360047054E+02  0.45245319706E+02 -0.38071850598E+03  0.38452013226E+03  0.00000000000E+00 0. -1.
        -12    1    4    4    0    0 -0.10598295566E+02 -0.34019975938E+02 -0.23721141767E+03  0.23987275649E+03  0.00000000000E+00 0.  1.
</event>
<event>
12    1  0.8053217E-002  0.5629129E+03  0.7818608E-02  0.9987527E-01
         21   -1    0    0  501  502  0.00000000000E+00  0.00000000000E+00  0.72465158611E+03  0.72465158611E+03  0.00000000000E+00 0.  1.
         21   -1    0    0  502  503 -0.00000000000E+00 -0.00000000000E+00 -0.54237428177E+03  0.54237428177E+03  0.00000000000E+00 0. -1.
         -6    2    1    2    0  503  0.34268605188E+03  0.41201550393E+03 -0.19119973480E+03  0.59449831952E+03  0.17228002696E+03 0.  0.
        -24    2    3    3    0    0  0.27001399946E+03  0.22866764011E+03 -0.15325531153E+03  0.39360149120E+03  0.78984136541E+02 0.  0.
          6    2    1    2  501    0 -0.34268605188E+03 -0.41201550393E+03  0.37347703914E+03  0.67252754835E+03  0.16005529948E+03 0.  0.
         24    2    5    5    0    0 -0.14453874654E+03 -0.21730677537E+03  0.24101977422E+03  0.36472751485E+03  0.82595064332E+02 0.  0.
          5    1    5    5  501    0 -0.19814730534E+03 -0.19470872856E+03  0.13245726492E+03  0.30780003350E+03  0.47000000000E+01 0. -1.
        -11    1    6    6    0    0 -0.15102294655E+03 -0.21181820959E+03  0.24302365152E+03  0.35599912850E+03  0.00000000000E+00 0.  1.
         12    1    6    6    0    0  0.64842000041E+01 -0.54885657813E+01 -0.20038773005E+01  0.87283863494E+01  0.00000000000E+00 0. -1.
         -5    1    3    3    0  503  0.72672052423E+02  0.18334786382E+03 -0.37944423269E+02  0.20089682832E+03  0.47000000000E+01 0.  1.
         11    1    4    4    0    0  0.30521277899E+02  0.26921158287E+02 -0.48696443418E+02  0.63463696470E+02  0.00000000000E+00 0. -1.
        -12    1    4    4    0    0  0.23949272156E+03  0.20174648182E+03 -0.10455886812E+03  0.33013779473E+03  0.00000000000E+00 0.  1.
</event>
<event>
12    1  0.8053217E-002  0.1952621E+03  0.7818608E-02  0.1153943E+00
         21   -1    0    0  501  502  0.00000000000E+00  0.00000000000E+00  0.82478898470E+02  0.82478898470E+02  0.00000000000E+00 0.  1.
         21   -1    0    0  502  503 -0.00000000000E+00 -0.00000000000E+00 -0.53082270719E+03  0.53082270719E+03  0.00000000000E+00 0. -1.
         -6    2    1    2    0  503  0.52568692785E+02  0.76281661938E+02 -0.33529396247E+03  0.38767460306E+03  0.17113502616E+03 0.  0.
        -24    2    3    3    0    0 -0.23894701125E+02  0.49437977244E+02 -0.12483550102E+03  0.16210401985E+03  0.87628423468E+02 0.  0.
          6    2    1    2  501    0 -0.52568692785E+02 -0.76281661938E+02 -0.11304984626E+03  0.22562700261E+03  0.17188634954E+03 0.  0.
         24    2    5    5    0    0 -0.47744378082E+01 -0.11049644446E+03 -0.77473974307E+02  0.15675992181E+03  0.79619073701E+02 0.  0.
          5    1    5    5  501    0 -0.47794254977E+02  0.34214782522E+02 -0.35575871950E+02  0.68867080792E+02  0.47000000000E+01 0. -1.
        -13    1    6    6    0    0 -0.14566960462E+02 -0.60384901325E+02  0.21692290579E+01  0.62154953140E+02  0.00000000000E+00 0.  1.
         14    1    6    6    0    0  0.97925226537E+01 -0.50111543135E+02 -0.79643203365E+02  0.94604968673E+02  0.00000000000E+00 0. -1.
         -5    1    3    3    0  503  0.76463393910E+02  0.26843684694E+02 -0.21045846144E+03  0.22557058321E+03  0.47000000000E+01 0.  1.
         13    1    4    4    0    0  0.15639518037E+01 -0.19376321912E+02 -0.63698212897E+02  0.66598424323E+02  0.00000000000E+00 0. -1.
        -14    1    4    4    0    0 -0.25458652929E+02  0.68814299156E+02 -0.61137288127E+02  0.95505595526E+02  0.00000000000E+00 0.  1.
</event>
<event>
12    1  0.8053217E-002  0.1862929E+03  0.7818608E-02  0.1162138E+00
         21   -1    0    0  501  502  0.00000000000E+00  0.00000000000E+00  0.98011102450E+02  0.98011102450E+02  0.00000000000E+00 0. -1.
         21   -1    0    0  502  503 -0.00000000000E+00 -0.00000000000E+00 -0.91671639915E+03  0.91671639915E+03  0.00000000000E+00 0.  1.
         -6    2    1    2    0  503  0.64057028461E+02 -0.32036127259E+02 -0.80713591687E+03  0.82807570448E+03  0.17062053717E+03 0.  0.
        -24    2    3    3    0    0 -0.79484939584E+01 -0.58659474439E+02 -0.57951246677E+03  0.58780893002E+03  0.78616325102E+02 0.  0.
          6    2    1    2  501    0 -0.64057028461E+02  0.32036127259E+02 -0.11569379832E+02  0.18665179712E+03  0.17197507515E+03 0.  0.
         24    2    5    5    0    0 -0.10634779649E+02  0.11507214194E+02 -0.69629785887E+02  0.10499107406E+03  0.77001974214E+02 0.  0.
          5    1    5    5  501    0 -0.53422248813E+02  0.20528913065E+02  0.58060406055E+02  0.81660723062E+02  0.47000000000E+01 0. -1.
        -13    1    6    6    0    0  0.27314590290E+02  0.15569337416E+02 -0.56447011822E+02  0.64612353725E+02  0.00000000000E+00 0.  1.
         14    1    6    6    0    0 -0.37949369938E+02 -0.40621232216E+01 -0.13182774064E+02  0.40378720334E+02  0.00000000000E+00 0. -1.
         -5    1    3    3    0  503  0.72005522419E+02  0.26623347180E+02 -0.22762345010E+03  0.24026677446E+03  0.47000000000E+01 0.  1.
         11    1    4    4    0    0  0.23975779048E+02 -0.91784956416E+01 -0.64198224274E+02  0.69141122085E+02  0.00000000000E+00 0. -1.
        -12    1    4    4    0    0 -0.31924273007E+02 -0.49480978798E+02 -0.51531424249E+03  0.51866780793E+03  0.00000000000E+00 0.  1.
</event>
<event>
12    1  0.8053217E-002  0.1837914E+03  0.7818608E-02  0.1164738E+00
         21   -1    0    0  503  502  0.00000000000E+00  0.00000000000E+00  0.29246148609E+03  0.29246148609E+03  0.00000000000E+00 0.  1.
         21   -1    0    0  501  503 -0.00000000000E+00 -0.00000000000E+00 -0.23280058285E+03  0.23280058285E+03  0.00000000000E+00 0.  1.
          6    2    1    2  501    0  0.90398362595E+01 -0.56331521594E+02 -0.15765943432E+03  0.24214828599E+03  0.17471215245E+03 0.  0.
         24    2    3    3    0    0 -0.34227590926E+02 -0.35241685367E+02 -0.19107839329E+02  0.95398546902E+02  0.79512696213E+02 0.  0.
         -6    2    1    2    0  502 -0.90398362595E+01  0.56331521594E+02  0.21732033756E+03  0.28311378294E+03  0.17225076489E+03 0.  0.
        -24    2    5    5    0    0 -0.21429143138E+02  0.86948639015E+02  0.86903830167E+02  0.14849781730E+03  0.80498770436E+02 0.  0.
          5    1    3    3  501    0  0.43267427185E+02 -0.21089836227E+02 -0.13855159500E+03  0.14674973909E+03  0.47000000000E+01 0. -1.
        -11    1    4    4    0    0  0.78626466519E+01  0.19279187236E+02 -0.16337221710E+02  0.26465318552E+02  0.00000000000E+00 0.  1.
         12    1    4    4    0    0 -0.42090237578E+02 -0.54520872603E+02 -0.27706176186E+01  0.68933228350E+02  0.00000000000E+00 0. -1.
         -5    1    5    5    0  502  0.12389306879E+02 -0.30617117421E+02  0.13041650740E+03  0.13461596564E+03  0.47000000000E+01 0.  1.
         11    1    6    6    0    0  0.29433923508E+02  0.41807576067E+02  0.48109013538E+02  0.70204746658E+02  0.00000000000E+00 0. -1.
        -12    1    6    6    0    0 -0.50863066646E+02  0.45141062948E+02  0.38794816628E+02  0.78293070638E+02  0.00000000000E+00 0.  1.
</event>
<event>
12    1  0.8053217E-002  0.2022864E+03  0.7818608E-02  0.1147934E+00
         21   -1    0    0  503  502  0.00000000000E+00  0.00000000000E+00  0.14087300803E+03  0.14087300803E+03  0.00000000000E+00 0. -1.
         21   -1    0    0  501  503 -0.00000000000E+00 -0.00000000000E+00 -0.29322548245E+03  0.29322548245E+03  0.00000000000E+00 0. -1.
          6    2    1    2  501    0  0.34446425046E+02 -0.99393418915E+02 -0.52533244262E+02  0.20899652512E+03  0.17278367352E+03 0.  0.
         24    2    3    3    0    0  0.27271106340E+02 -0.88592518800E+02  0.26880146217E+02  0.12839428427E+03  0.84677047333E+02 0.  0.
         -6    2    1    2    0  502 -0.34446425046E+02  0.99393418915E+02 -0.99819230158E+02  0.22510196536E+03  0.17216680336E+03 0.  0.
        -24    2    5    5    0    0  0.17833630816E+01  0.12103351051E+03 -0.39585045710E+02  0.15140570977E+03  0.81880535289E+02 0.  0.
          5    1    3    3  501    0  0.71753187053E+01 -0.10800900115E+02 -0.79413390479E+02  0.80602240845E+02  0.47000000000E+01 0. -1.
        -11    1    4    4    0    0 -0.28072012798E+02 -0.10810139340E+02  0.69620943848E+01  0.30876654179E+02  0.00000000000E+00 0.  1.
         12    1    4    4    0    0  0.55343119138E+02 -0.77782379460E+02  0.19918051832E+02  0.97517630094E+02  0.00000000000E+00 0. -1.
         -5    1    5    5    0  502 -0.36229788127E+02 -0.21640091590E+02 -0.60234184448E+02  0.73696255589E+02  0.47000000000E+01 0.  1.
         13    1    6    6    0    0 -0.36715618691E+02  0.52936595737E+02 -0.15955993820E+01  0.64442732417E+02  0.00000000000E+00 0. -1.
        -14    1    6    6    0    0  0.38498981772E+02  0.68096914769E+02 -0.37989446328E+02  0.86962977357E+02  0.00000000000E+00 0.  1.
</event>
<event>
12    1  0.8053217E-002  0.1999171E+03  0.7818608E-02  0.1149921E+00
         21   -1    0    0  503  502  0.00000000000E+00  0.00000000000E+00  0.70874461281E+03  0.70874461281E+03  0.00000000000E+00 0. -1.
         21   -1    0    0  501  503 -0.00000000000E+00 -0.00000000000E+00 -0.19028359693E+03  0.19028359693E+03  0.00000000000E+00 0. -1.
          6    2    1    2  501    0 -0.71558480478E+02 -0.73434027338E+02 -0.11794741696E+03  0.23211730467E+03  0.17162073727E+03 0.  0.
         24    2    3    3    0    0 -0.67351460136E+02 -0.85420998769E+02 -0.14709212051E+03  0.19997869471E+03  0.80761502024E+02 0.  0.
         -6    2    1    2    0  502  0.71558480478E+02  0.73434027338E+02  0.63640843284E+03  0.66691090506E+03  0.17100084622E+03 0.  0.
        -24    2    5    5    0    0  0.91744279903E+02  0.15690077041E+02  0.53161914702E+03  0.54548308816E+03  0.79181377774E+02 0.  0.
          5    1    3    3  501    0 -0.42070203418E+01  0.11986971431E+02  0.29144703559E+02  0.32138609954E+02  0.47000000000E+01 0. -1.
        -13    1    4    4    0    0 -0.40899397277E+02 -0.90682892343E+01 -0.13801639936E+02  0.44107593815E+02  0.00000000000E+00 0.  1.
         14    1    4    4    0    0 -0.26452062860E+02 -0.76352709535E+02 -0.13329048058E+03  0.15587110090E+03  0.00000000000E+00 0. -1.
         -5    1    5    5    0  502 -0.20185799425E+02  0.57743950297E+02  0.10478928582E+03  0.12142781690E+03  0.47000000000E+01 0.  1.
         13    1    6    6    0    0  0.24261031800E+02  0.41025436659E+02  0.16045332830E+03  0.16738265944E+03  0.00000000000E+00 0. -1.
        -14    1    6    6    0    0  0.67483248102E+02 -0.25335359618E+02  0.37116581872E+03  0.37810042873E+03  0.00000000000E+00 0.  1.
</event>
<event>
12    1  0.8053217E-002  0.2294197E+03  0.7818608E-02  0.1127185E+00
         21   -1    0    0  503  502  0.00000000000E+00  0.00000000000E+00  0.58250346179E+02  0.58250346179E+02  0.00000000000E+00 0. -1.
         21   -1    0    0  501  503 -0.00000000000E+00 -0.00000000000E+00 -0.18009545020E+04  0.18009545020E+04  0.00000000000E+00 0. -1.
          6    2    1    2  501    0  0.15135318754E+03  0.12291535690E+02 -0.15293859674E+04  0.15464975959E+04  0.17197240350E+03 0.  0.
         24    2    3    3    0    0  0.51939573940E+02  0.60385466896E+02 -0.94309000486E+03  0.94987280719E+03  0.80594470205E+02 0.  0.
         -6    2    1    2    0  502 -0.15135318754E+03 -0.12291535690E+02 -0.21331818845E+03  0.31270725232E+03  0.17094533309E+03 0.  0.
        -24    2    5    5    0    0 -0.14529364443E+03  0.41277226912E+02 -0.19197681775E+03  0.25453617280E+03  0.71550766155E+02 0.  0.
          5    1    3    3  501    0  0.99413613598E+02 -0.48093931205E+02 -0.58629596255E+03  0.59662478869E+03  0.47000000000E+01 0. -1.
        -11    1    4    4    0    0 -0.11417766121E+02 -0.12365204616E+02 -0.14455961121E+03  0.14553606034E+03  0.00000000000E+00 0.  1.
         12    1    4    4    0    0  0.63357340061E+02  0.72750671512E+02 -0.79853039365E+03  0.80433674685E+03  0.00000000000E+00 0. -1.
         -5    1    5    5    0  502 -0.60595431100E+01 -0.53568762602E+02 -0.21341370695E+02  0.58171079520E+02  0.47000000000E+01 0.  1.
         13    1    6    6    0    0 -0.68051429877E+02  0.52153538689E+02 -0.74859618274E+02  0.11381981881E+03  0.00000000000E+00 0. -1.
        -14    1    6    6    0    0 -0.77242214551E+02 -0.10876311777E+02 -0.11711719948E+03  0.14071635399E+03  0.00000000000E+00 0.  1.
</event>
<event>
12    1  0.8053217E-002  0.1879663E+03  0.7818608E-02  0.1161463E+00
         21   -1    0    0  501  502  0.00000000000E+00  0.00000000000E+00  0.80775483548E+02  0.80775483548E+02  0.00000000000E+00 0.  1.
         21   -1    0    0  502  503 -0.00000000000E+00 -0.00000000000E+00 -0.54932516802E+03  0.54932516802E+03  0.00000000000E+00 0. -1.
         -6    2    1    2    0  503  0.37504880247E+01 -0.62224203949E+02 -0.87381935884E+02  0.20728468683E+03  0.17732856780E+03 0.  0.
        -24    2    3    3    0    0  0.22572184806E+02 -0.86493256701E+02 -0.55011766209E+01  0.11970733856E+03  0.79429194759E+02 0.  0.
          6    2    1    2  501    0 -0.37504880247E+01  0.62224203949E+02 -0.38116774859E+03  0.42281596474E+03  0.17204234874E+03 0.  0.
         24    2    5    5    0    0 -0.58272369889E+02  0.20132827405E+02 -0.15213309527E+03  0.18360208136E+03  0.82245034938E+02 0.  0.
          5    1    5    5  501    0  0.54521881865E+02  0.42091376544E+02 -0.22903465332E+03  0.23921388338E+03  0.47000000000E+01 0. -1.
        -13    1    6    6    0    0 -0.33190048999E+02 -0.27964135148E+02 -0.96957644953E+02  0.10622785474E+03  0.00000000000E+00 0.  1.
         14    1    6    6    0    0 -0.25082320891E+02  0.48096962553E+02 -0.55175450320E+02  0.77374226627E+02  0.00000000000E+00 0. -1.
         -5    1    3    3    0  503 -0.18821696781E+02  0.24269052752E+02 -0.81880759263E+02  0.87577348262E+02  0.47000000000E+01 0.  1.
         13    1    4    4    0    0  0.35811347419E+02 -0.46154295323E+02 -0.34915870152E+02  0.68057252142E+02  0.00000000000E+00 0. -1.
        -14    1    4    4    0    0 -0.13239162613E+02 -0.40338961378E+02  0.29414693531E+02  0.51650086421E+02  0.00000000000E+00 0.  1.
</event>
<event>
12    1  0.8053217E-002  0.1773847E+03  0.7818608E-02  0.1171068E+00
         21   -1    0    0  501  502  0.00000000000E+00  0.00000000000E+00  0.56874340626E+02  0.56874340626E+02  0.00000000000E+00 0.  1.
         21   -1    0    0  502  503 -0.00000000000E+00 -0.00000000000E+00 -0.54950243789E+03  0.54950243789E+03  0.00000000000E+00 0.  1.
         -6    2    1    2    0  503 -0.20461058605E+02 -0.24950028812E+02 -0.21901959470E+03  0.28184200771E+03  0.17442527221E+03 0.  0.
        -24    2    3    3    0    0 -0.33766039488E+02  0.40844539418E+02 -0.17458226302E+03  0.20120259940E+03  0.84823921277E+02 0.  0.
          6    2    1    2  501    0  0.20461058605E+02  0.24950028812E+02 -0.27360850256E+03  0.32453477081E+03  0.17152272717E+03 0.  0.
         24    2    5    5    0    0 -0.40987403377E+01  0.44716227229E+02 -0.64592436893E+02  0.11310229452E+03  0.81262571162E+02 0.  0.
          5    1    5    5  501    0  0.24559798942E+02 -0.19766198417E+02 -0.20901606567E+03  0.21143247629E+03  0.47000000000E+01 0. -1.
        -11    1    6    6    0    0 -0.19111351894E+02  0.10690403361E+02  0.14113308249E+02  0.26052139355E+02  0.00000000000E+00 0.  1.
         12    1    6    6    0    0  0.15012611557E+02  0.34025823868E+02 -0.78705745143E+02  0.87050155164E+02  0.00000000000E+00 0. -1.
         -5    1    3    3    0  503  0.13304980883E+02 -0.65794568230E+02 -0.44437331688E+02  0.80639408309E+02  0.47000000000E+01 0.  1.
         11    1    4    4    0    0 -0.28495864576E+02  0.47257294878E+02 -0.44594893953E+02  0.70950481209E+02  0.00000000000E+00 0. -1.
        -12    1    4    4    0    0 -0.52701749124E+01 -0.64127554598E+01 -0.12998736906E+03  0.13025211819E+03  0.00000000000E+00 0.  1.
</event>
<event>
12    1  0.8053217E-002  0.2959640E+03  0.7818608E-02  0.1087288E+00
         21   -1    0    0  503  502  0.00000000000E+00  0.00000000000E+00  0.30771591753E+03  0.30771591753E+03  0.00000000000E+00 0. -1.
         21   -1    0    0  501  503 -0.00000000000E+00 -0.00000000000E+00 -0.29231997363E+03  0.29231997363E+03  0.00000000000E+00 0. -1.
          6    2    1    2  501    0 -0.87925345963E+02  0.22237458584E+03 -0.41155517266E+02  0.29881178301E+03  0.17439432955E+03 0.  0.
         24    2    3    3    0    0  0.23349834934E+02  0.97430102910E+02 -0.19652239357E+02  0.13005820332E+03  0.80567276210E+02 0.  0.
         -6    2    1    2    0  502  0.87925345963E+02 -0.22237458584E+03  0.56551461168E+02  0.30122410815E+03  0.17423137685E+03 0.  0.
        -24    2    5    5    0    0  0.71158840625E+02 -0.44065382786E+02  0.12928340237E+02  0.11683225834E+03  0.80481650389E+02 0.  0.
          5    1    3    3  501    0 -0.11127518090E+03  0.12494448293E+03 -0.21503277909E+02  0.16875357969E+03  0.47000000000E+01 0. -1.
        -11    1    4    4    0    0 -0.13044311189E+02  0.22390623225E+02 -0.36707710604E+02  0.44932728390E+02  0.00000000000E+00 0.  1.
         12    1    4    4    0    0  0.36394146123E+02  0.75039479685E+02  0.17055471247E+02  0.85125474934E+02  0.00000000000E+00 0. -1.
         -5    1    5    5    0  502  0.16766505338E+02 -0.17830920305E+03  0.43623120931E+02  0.18439184980E+03  0.47000000000E+01 0.  1.
         13    1    6    6    0    0  0.64102013750E+02 -0.50700191181E+02 -0.18626418192E+02  0.83824346149E+02  0.00000000000E+00 0. -1.
        -14    1    6    6    0    0  0.70568268756E+01  0.66348083949E+01  0.31554758429E+02  0.33007912196E+02  0.00000000000E+00 0.  1.
</event>
<event>
12    1  0.8053217E-002  0.2060902E+03  0.7818608E-02  0.1144921E+00
         21   -1    0    0  501  502  0.00000000000E+00  0.00000000000E+00  0.38245208262E+02  0.38245208262E+02  0.00000000000E+00 0.  1.
         21   -1    0    0  502  503 -0.00000000000E+00 -0.00000000000E+00 -0.11280408709E+04  0.11280408709E+04  0.00000000000E+00 0. -1.
         -6    2    1    2    0  503 -0.87522221415E+02 -0.70740414522E+02 -0.46242433223E+03  0.50627012639E+03  0.17265234534E+03 0.  0.
        -24    2    3    3    0    0 -0.18259282188E+02 -0.97304931621E+02 -0.23666352744E+03  0.26858744023E+03  0.79548329511E+02 0.  0.
          6    2    1    2  501    0  0.87522221415E+02  0.70740414522E+02 -0.62737133038E+03  0.66001595274E+03  0.17135322058E+03 0.  0.
         24    2    5    5    0    0  0.10518953891E+03  0.71548541794E+02 -0.62336357679E+03  0.64128257968E+03  0.80480837534E+02 0.  0.
          5    1    5    5  501    0 -0.17667317499E+02 -0.80812727271E+00 -0.40077535919E+01  0.18733373059E+02  0.47000000000E+01 0. -1.
        -13    1    6    6    0    0  0.93001552613E+02  0.22872332166E+02 -0.47804927289E+03  0.48754849982E+03  0.00000000000E+00 0.  1.
         14    1    6    6    0    0  0.12187986302E+02  0.48676209629E+02 -0.14531430390E+03  0.15373407986E+03  0.00000000000E+00 0. -1.
         -5    1    3    3    0  503 -0.69262939227E+02  0.26564517099E+02 -0.22576080479E+03  0.23768268615E+03  0.47000000000E+01 0.  1.
         11    1    4    4    0    0 -0.39389664971E+02 -0.48807222629E+02 -0.71258466496E+02  0.94928708696E+02  0.00000000000E+00 0. -1.
        -12    1    4    4    0    0  0.21130382783E+02 -0.48497708991E+02 -0.16540506094E+03  0.17365873154E+03  0.00000000000E+00 0.  1.
</event>
<event>
12    1  0.8053217E-002  0.1962085E+03  0.7818608E-02  0.1153608E+00
         21   -1    0    0  501  502  0.00000000000E+00  0.00000000000E+00  0.35609287830E+03  0.35609287830E+03  0.00000000000E+00 0. -1.
         21   -1    0    0  502  503 -0.00000000000E+00 -0.00000000000E+00 -0.11077396148E+03  0.11077396148E+03  0.00000000000E+00 0. -1.
         -6    2    1    2    0  503  0.93597032720E+02  0.40381083178E+01  0.77819973912E+02  0.21107755926E+03  0.17239801864E+03 0.  0.
        -24    2    3    3    0    0  0.97410124518E+02  0.39721934558E+02  0.10257248521E+03  0.16722950412E+03  0.79862556194E+02 0.  0.
          6    2    1    2  501    0 -0.93597032720E+02 -0.40381083178E+01  0.16749894291E+03  0.25578928052E+03  0.16910218597E+03 0.  0.
         24    2    5    5    0    0 -0.32549018770E+02  0.19217535900E+02  0.16436275021E+03  0.19021786373E+03  0.87971414207E+02 0.  0.
          5    1    5    5  501    0 -0.61048013950E+02 -0.23255644218E+02  0.31361927058E+01  0.65571416790E+02  0.47000000000E+01 0. -1.
        -11    1    6    6    0    0  0.30382370776E+02  0.17491554344E+01  0.51367643412E+02  0.59705801966E+02  0.00000000000E+00 0.  1.
         12    1    6    6    0    0 -0.62931389546E+02  0.17468380466E+02  0.11299510679E+03  0.13051206176E+03  0.00000000000E+00 0. -1.
         -5    1    3    3    0  503 -0.38130917984E+01 -0.35683826240E+02 -0.24752511299E+02  0.43848055143E+02  0.47000000000E+01 0.  1.
         11    1    4    4    0    0  0.49123701750E+02  0.30869458850E+01  0.93876942487E+02  0.10599786620E+03  0.00000000000E+00 0. -1.
        -12    1    4    4    0    0  0.48286422768E+02  0.36634988673E+02  0.86955427237E+01  0.61231637917E+02  0.00000000000E+00 0.  1.
</event>
<event>
12    1  0.8053217E-002  0.1779947E+03  0.7818608E-02  0.1169853E+00
         21   -1    0    0  503  502  0.00000000000E+00  0.00000000000E+00  0.62777479176E+02  0.62777479176E+02  0.00000000000E+00 0.  1.
         21   -1    0    0  501  503 -0.00000000000E+00 -0.00000000000E+00 -0.63068334235E+03  0.63068334235E+03  0.00000000000E+00 0.  1.
          6    2    1    2  501    0  0.15528067850E+02 -0.41215157645E+02 -0.43936245716E+03  0.47390329283E+03  0.17206147760E+03 0.  0.
         24    2    3    3    0    0  0.29390270641E+01 -0.41156815759E+02 -0.10082804528E+03  0.13510228135E+03  0.79898750592E+02 0.  0.
         -6    2    1    2    0  502 -0.15528067850E+02  0.41215157645E+02 -0.12854340601E+03  0.21955752870E+03  0.17245953459E+03 0.  0.
        -24    2    5    5    0    0 -0.30933224933E+02  0.84507142648E+02 -0.53056773827E+02  0.13105986507E+03  0.79141300338E+02 0.  0.
          5    1    3    3  501    0  0.12589040786E+02 -0.58341886470E-01 -0.33853441188E+03  0.33880101148E+03  0.47000000000E+01 0. -1.
        -11    1    4    4    0    0 -0.99549437429E+01  0.11056412407E+02  0.55681915723E+01  0.15885525412E+02  0.00000000000E+00 0.  1.
         12    1    4    4    0    0  0.12893970807E+02 -0.52213228166E+02 -0.10639623686E+03  0.11921675594E+03  0.00000000000E+00 0. -1.
         -5    1    5    5    0  502  0.15405157084E+02 -0.43291985002E+02 -0.75486632182E+02  0.88497663632E+02  0.47000000000E+01 0.  1.
         13    1    6    6    0    0 -0.56464069200E+02  0.45171641964E+02 -0.38713481793E+02  0.82020741407E+02  0.00000000000E+00 0. -1.
        -14    1    6    6    0    0  0.25530844267E+02  0.39335500684E+02 -0.14343292035E+02  0.49039123661E+02  0.00000000000E+00 0.  1.
</event>
<event>
12    1  0.8053217E-002  0.4187228E+03  0.7818608E-02  0.1037552E+00
         21   -1    0    0  503  502  0.00000000000E+00  0.00000000000E+00  0.32624851044E+03  0.32624851044E+03  0.00000000000E+00 0.  1.
         21   -1    0    0  501  503 -0.00000000000E+00 -0.00000000000E+00 -0.55047516939E+03  0.55047516939E+03  0.00000000000E+00 0. -1.
          6    2    1    2  501    0 -0.37022811068E+03  0.91795992912E+02 -0.18252868739E+03  0.45677727497E+03  0.17272347540E+03 0.  0.
         24    2    3    3    0    0 -0.15189238800E+03  0.96714503090E+02 -0.11173023921E+03  0.22714890170E+03  0.81780098762E+02 0.  0.
         -6    2    1    2    0  502  0.37022811068E+03 -0.91795992912E+02 -0.41697971558E+02  0.41994640485E+03  0.17064848040E+03 0.  0.
        -24    2    5    5    0    0  0.31661644268E+03 -0.37623338793E+02  0.83166643112E+01  0.32866419847E+03  0.79306374628E+02 0.  0.
          5    1    3    3  501    0 -0.21833572269E+03 -0.49185101779E+01 -0.70798448189E+02  0.22962837327E+03  0.47000000000E+01 0. -1.
        -11    1    4    4    0    0 -0.12539880269E+03  0.42682523168E+02 -0.99673176421E+02  0.16577514771E+03  0.00000000000E+00 0.  1.
         12    1    4    4    0    0 -0.26493585310E+02  0.54031979922E+02 -0.12057062784E+02  0.61373753999E+02  0.00000000000E+00 0. -1.
         -5    1    5    5    0  502  0.53611668005E+02 -0.54172654119E+02 -0.50014635869E+02  0.91282206381E+02  0.47000000000E+01 0.  1.
         13    1    6    6    0    0  0.24614571847E+02  0.78367648516E+01  0.20372798288E+02  0.32898980845E+02  0.00000000000E+00 0. -1.
        -14    1    6    6    0    0  0.29200187083E+03 -0.45460103645E+02 -0.12056133977E+02  0.29576521763E+03  0.00000000000E+00 0.  1.
</event>
<event>
12    1  0.8053217E-002  0.1859455E+03  0.7818608E-02  0.1162516E+00
         21   -1    0    0  503  502  0.00000000000E+00  0.00000000000E+00  0.76418951379E+02  0.76418951379E+02  0.00000000000E+00 0.  1.
         21   -1    0    0  501  503 -0.00000000000E+00 -0.00000000000E+00 -0.45039831315E+03  0.45039831315E+03  0.00000000000E+00 0. -1.
          6    2    1    2  501    0 -0.44136150367E+02  0.49663353425E+02 -0.20172675120E+03  0.27334794162E+03  0.17207837341E+03 0.  0.
         24    2    3    3    0    0  0.41585712085E+02  0.10508881360E+02 -0.87189279590E+02  0.12494904409E+03  0.78552435400E+02 0.  0.
         -6    2    1    2    0  502  0.44136150367E+02 -0.49663353425E+02 -0.17225261058E+03  0.25346932291E+03  0.17367005316E+03 0.  0.
        -24    2    5    5    0    0 -0.11526048752E+02 -0.54526376701E+02 -0.17232379491E+03  0.19739772160E+03  0.78513658966E+02 0.  0.
          5    1    3    3  501    0 -0.85721862452E+02  0.39154472065E+02 -0.11453747161E+03  0.14839889753E+03  0.47000000000E+01 0. -1.
        -11    1    4    4    0    0  0.61745434472E+02  0.12691079650E+02 -0.42931475446E+02  0.76267121126E+02  0.00000000000E+00 0.  1.
         12    1    4    4    0    0 -0.20159722388E+02 -0.21821982902E+01 -0.44257804144E+02  0.48681922967E+02  0.00000000000E+00 0. -1.
         -5    1    5    5    0  502  0.55662199119E+02  0.48630232758E+01  0.71184337948E-01  0.56071601309E+02  0.47000000000E+01 0.  1.
         11    1    6    6    0    0 -0.70562487906E+01 -0.31836447415E+02 -0.17116411624E+03  0.17424266044E+03  0.00000000000E+00 0. -1.
        -12    1    6    6    0    0 -0.44697999618E+01 -0.22689929286E+02 -0.11596786777E+01  0.23155061160E+02  0.00000000000E+00 0.  1.
</event>
<event>
12    1  0.8053217E-002  0.2066827E+03  0.7818608E-02  0.1144584E+00
         21   -1    0    0  503  502  0.00000000000E+00  0.00000000000E+00  0.14621550218E+03  0.14621550218E+03  0.00000000000E+00 0. -1.
         21   -1    0    0  501  503 -0.00000000000E+00 -0.00000000000E+00 -0.29731717617E+03  0.29731717617E+03  0.00000000000E+00 0.  1.
          6    2    1    2  501    0  0.91491819746E+02  0.68617906268E+02 -0.11153957232E+03  0.23485909511E+03  0.17215849739E+03 0.  0.
         24    2    3    3    0    0 -0.50987603185E+01  0.13799697559E+02 -0.91053336208E+02  0.12182568398E+03  0.79588681559E+02 0.  0.
         -6    2    1    2    0  502 -0.91491819746E+02 -0.68617906268E+02 -0.39562101672E+02  0.20867358324E+03  0.17000098327E+03 0.  0.
        -24    2    5    5    0    0 -0.37465240994E+02 -0.73015241255E+02  0.28114215731E+02  0.12183821197E+03  0.85552738305E+02 0.  0.
          5    1    3    3  501    0  0.96590580064E+02  0.54818208709E+02 -0.20486236111E+02  0.11303341114E+03  0.47000000000E+01 0. -1.
        -13    1    4    4    0    0 -0.36510854714E+02 -0.13047274380E+02 -0.35342203826E+02  0.52462798743E+02  0.00000000000E+00 0.  1.
         14    1    4    4    0    0  0.31412094396E+02  0.26846971940E+02 -0.55711132382E+02  0.69362885234E+02  0.00000000000E+00 0. -1.
         -5    1    5    5    0  502 -0.54026578752E+02  0.43973349866E+01 -0.67676317403E+02  0.86835371271E+02  0.47000000000E+01 0.  1.
         11    1    6    6    0    0 -0.21120259629E+02 -0.12589857740E+02  0.49842467318E+02  0.55577346401E+02  0.00000000000E+00 0. -1.
        -12    1    6    6    0    0 -0.16344981365E+02 -0.60425383515E+02 -0.21728251587E+02  0.66260865568E+02  0.00000000000E+00 0.  1.
</event>
<event>
12    1  0.8053217E-002  0.2180544E+03  0.7818608E-02  0.1135685E+00
         21   -1    0    0  503  502  0.00000000000E+00  0.00000000000E+00  0.72188305876E+03  0.72188305876E+03  0.00000000000E+00 0. -1.
         21   -1    0    0  501  503 -0.00000000000E+00 -0.00000000000E+00 -0.10534006748E+03  0.10534006748E+03  0.00000000000E+00 0. -1.
          6    2    1    2  501    0 -0.13285153004E+03  0.81835052273E+01  0.54132394362E+02  0.22467320316E+03  0.17271720617E+03 0.  0.
         24    2    3    3    0    0 -0.15649212229E+01 -0.22595582656E+02  0.30674636718E+02  0.87721086349E+02  0.79000293154E+02 0.  0.
         -6    2    1    2    0  502  0.13285153004E+03 -0.81835052273E+01  0.56241059692E+03  0.60254992308E+03  0.17042368230E+03 0.  0.
        -24    2    5    5    0    0  0.15128359647E+03 -0.10599414228E+02  0.55683577928E+03  0.58258129066E+03  0.79597744956E+02 0.  0.
          5    1    3    3  501    0 -0.13128660882E+03  0.30779087884E+02  0.23457757644E+02  0.13695211681E+03  0.47000000000E+01 0. -1.
        -13    1    4    4    0    0  0.67255103109E+01 -0.34896202820E+02 -0.15832512618E+02  0.38905602630E+02  0.00000000000E+00 0.  1.
         14    1    4    4    0    0 -0.82904315339E+01  0.12300620163E+02  0.46507149336E+02  0.48815483720E+02  0.00000000000E+00 0. -1.
         -5    1    5    5    0  502 -0.18432066426E+02  0.24159090004E+01  0.55748176391E+01  0.19968632421E+02  0.47000000000E+01 0.  1.
         11    1    6    6    0    0  0.12530358343E+03  0.13456632764E+01  0.31420652197E+03  0.33827287399E+03  0.00000000000E+00 0. -1.
        -12    1    6    6    0    0  0.25980013040E+02 -0.11945077504E+02  0.24262925731E+03  0.24430841667E+03  0.00000000000E+00 0.  1.
</event>
<event>
12    1  0.8053217E-002  0.1817086E+03  0.7818608E-02  0.1166257E+00
         21   -1    0    0  501  502  0.00000000000E+00  0.00000000000E+00  0.54086049620E+03  0.54086049620E+03  0.00000000000E+00 0.  1.
         21   -1    0    0  502  503 -0.00000000000E+00 -0.00000000000E+00 -0.63491206200E+02  0.63491206200E+02  0.00000000000E+00 0.  1.
         -6    2    1    2    0  503 -0.71660522134E+01  0.57385997754E+02  0.17801354916E+03  0.25437538402E+03  0.17225999904E+03 0.  0.
        -24    2    3    3    0    0  0.52633976657E+02 -0.32687194537E+00  0.93935436373E+02  0.13606208032E+03  0.83178008819E+02 0.  0.
          6    2    1    2  501    0  0.71660522134E+01 -0.57385997754E+02  0.29935574084E+03  0.34997631838E+03  0.17182857391E+03 0.  0.
         24    2    5    5    0    0  0.10072522014E+02  0.22884431872E+02  0.22636605803E+03  0.24134219282E+03  0.79870575855E+02 0.  0.
          5    1    5    5  501    0 -0.29064698008E+01 -0.80270429626E+02  0.72989682816E+02  0.10863412556E+03  0.47000000000E+01 0. -1.
        -11    1    6    6    0    0 -0.30016810263E+00 -0.21215002396E+01 -0.65328049448E+01  0.68752021500E+01  0.00000000000E+00 0.  1.
         12    1    6    6    0    0  0.10372690117E+02  0.25005932112E+02  0.23289886297E+03  0.23446699067E+03  0.00000000000E+00 0. -1.
         -5    1    3    3    0  503 -0.59800028871E+02  0.57712869699E+02  0.84078112788E+02  0.11831330370E+03  0.47000000000E+01 0.  1.
         13    1    4    4    0    0  0.95611673661E+01  0.70158913947E+01 -0.14747766287E+02  0.18924462051E+02  0.00000000000E+00 0. -1.
        -14    1    4    4    0    0  0.43072809291E+02 -0.73427633400E+01  0.10868320266E+03  0.11713761827E+03  0.00000000000E+00 0.  1.
</event>
<event>
12    1  0.8053217E-002  0.1792773E+03  0.7818608E-02  0.1168976E+00
         21   -1    0    0  503  502  0.00000000000E+00  0.00000000000E+00  0.30858714276E+03  0.30858714276E+03  0.00000000000E+00 0.  1.
         21   -1    0    0  501  503 -0.00000000000E+00 -0.00000000000E+00 -0.12117610774E+03  0.12117610774E+03  0.00000000000E+00 0.  1.
          6    2    1    2  501    0  0.44591464444E+02  0.75386631274E+01  0.10995518329E+02  0.17961412796E+03  0.17347940338E+03 0.  0.
         24    2    3    3    0    0  0.13005367472E+01  0.42234056928E+02  0.55554705181E+02  0.10830153507E+03  0.82809964800E+02 0.  0.
         -6    2    1    2    0  502 -0.44591464444E+02 -0.75386631274E+01  0.17641551669E+03  0.25014912254E+03  0.17148445654E+03 0.  0.
        -24    2    5    5    0    0 -0.63433024570E+02  0.23284002265E+02  0.45617801082E+02  0.11437293354E+03  0.80214031092E+02 0.  0.
          5    1    3    3  501    0  0.43290927697E+02 -0.34695393800E+02 -0.44559186853E+02  0.71312592891E+02  0.47000000000E+01 0. -1.
        -13    1    4    4    0    0 -0.20603322424E+02  0.59332567839E+02  0.26715853198E+02  0.68253844678E+02  0.00000000000E+00 0.  1.
         14    1    4    4    0    0  0.21903859171E+02 -0.17098510911E+02  0.28838851983E+02  0.40047690391E+02  0.00000000000E+00 0. -1.
         -5    1    5    5    0  502  0.18841560125E+02 -0.30822665392E+02  0.13079771561E+03  0.13577618899E+03  0.47000000000E+01 0.  1.
         13    1    6    6    0    0 -0.34116524423E+02  0.33916398264E+02  0.62532538016E+02  0.78895992425E+02  0.00000000000E+00 0. -1.
        -14    1    6    6    0    0 -0.29316500147E+02 -0.10632396000E+02 -0.16914736934E+02  0.35476941118E+02  0.00000000000E+00 0.  1.
</event>
<event>
12    1  0.8053217E-002  0.2722972E+03  0.7818608E-02  0.1099990E+00
         21   -1    0    0  503  502  0.00000000000E+00  0.00000000000E+00  0.47075736313E+02  0.47075736313E+02  0.00000000000E+00 0. -1.
         21   -1    0    0  501  503 -0.00000000000E+00 -0.00000000000E+00 -0.17159184568E+04  0.17159184568E+04  0.00000000000E+00 0.  1.
          6    2    1    2  501    0  0.11772948006E+02  0.21077442858E+03 -0.10874978232E+04  0.11210380767E+04  0.17178588945E+03 0.  0.
         24    2    3    3    0    0  0.56943181392E+01  0.23001293434E+03 -0.10529202390E+04  0.10807296511E+04  0.79982334236E+02 0.  0.
         -6    2    1    2    0  502 -0.11772948006E+02 -0.21077442858E+03 -0.58134489720E+03  0.64195611636E+03  0.17199216199E+03 0.  0.
        -24    2    5    5    0    0 -0.73156509049E+02 -0.14464618909E+03 -0.35776759382E+03  0.40081344861E+03  0.79870986995E+02 0.  0.
          5    1    3    3  501    0  0.60786298666E+01 -0.19238505761E+02 -0.34577584266E+02  0.40308425653E+02  0.47000000000E+01 0. -1.
        -11    1    4    4    0    0  0.22950838347E+02  0.21630642641E+02 -0.20481922447E+03  0.20723305816E+03  0.00000000000E+00 0.  1.
         12    1    4    4    0    0 -0.17256520207E+02  0.20838229170E+03 -0.84810101451E+03  0.87349659289E+03  0.00000000000E+00 0. -1.
         -5    1    5    5    0  502  0.61383561043E+02 -0.66128239489E+02 -0.22357730338E+03  0.24114266775E+03  0.47000000000E+01 0.  1.
         13    1    6    6    0    0 -0.49603723539E+02 -0.14677684886E+03 -0.32836282336E+03  0.36307866436E+03  0.00000000000E+00 0. -1.
        -14    1    6    6    0    0 -0.23552785511E+02  0.21306597688E+01 -0.29404770459E+02  0.37734784247E+02  0.00000000000E+00 0.  1.
</event>
<event>
12    1  0.8053217E-002  0.1938452E+03  0.7818608E-02  0.1155212E+00
         21   -1    0    0  501  502  0.00000000000E+00  0.00000000000E+00  0.29184850557E+03  0.29184850557E+03  0.00000000000E+00 0.  1.
         21   -1    0    0  502  503 -0.00000000000E+00 -0.00000000000E+00 -0.13493184803E+03  0.13493184803E+03  0.00000000000E+00 0.  1.
         -6    2    1    2    0  503  0.58313386260E+02 -0.66346484415E+02  0.12586946053E+03  0.23046458826E+03  0.17166391098E+03 0.  0.
        -24    2    3    3    0    0 -0.20621453517E+02 -0.32839843971E+02  0.11189480561E+03  0.14345433102E+03  0.80962941332E+02 0.  0.
          6    2    1    2  501    0 -0.58313386260E+02  0.66346484415E+02  0.31047197009E+02  0.19631576535E+03  0.17255041081E+03 0.  0.
         24    2    5    5    0    0 -0.55798448028E+01  0.98352211361E+02  0.41682441395E+02  0.13354322856E+03  0.79950458567E+02 0.  0.
          5    1    5    5  501    0 -0.52733541458E+02 -0.32005726946E+02 -0.10635244386E+02  0.62772536791E+02  0.47000000000E+01 0. -1.
        -11    1    6    6    0    0 -0.13699796587E+01  0.27608846854E+02 -0.24231564820E+02  0.36759951067E+02  0.00000000000E+00 0.  1.
         12    1    6    6    0    0 -0.42098651441E+01  0.70743364507E+02  0.65914006214E+02  0.96783277489E+02  0.00000000000E+00 0. -1.
         -5    1    3    3    0  503  0.78934839777E+02 -0.33506640445E+02  0.13974654927E+02  0.87010257240E+02  0.47000000000E+01 0.  1.
         11    1    4    4    0    0  0.29007965932E+01  0.12182851232E+02 -0.68687545662E+01  0.14283426561E+02  0.00000000000E+00 0. -1.
        -12    1    4    4    0    0 -0.23522250110E+02 -0.45022695203E+02  0.11876356017E+03  0.12917090446E+03  0.00000000000E+00 0.  1.
</event>
<event>
12    1  0.8053217E-002  0.2354534E+03  0.7818608E-02  0.1123912E+00
         21   -1    0    0  501  502  0.00000000000E+00  0.00000000000E+00  0.35154837754E+03  0.35154837754E+03  0.00000000000E+00 0.  1.
         21   -1    0    0  502  503 -0.00000000000E+00 -0.00000000000E+00 -0.23871672264E+03  0.23871672264E+03  0.00000000000E+00 0. -1.
         -6    2    1    2    0  503 -0.15818550787E+03  0.18232633615E+02 -0.12022838138E+03  0.25897177474E+03  0.16509522281E+03 0.  0.
        -24    2    3    3    0    0 -0.14847384743E+03  0.38564847938E+01 -0.36046580165E+02  0.17289241799E+03  0.80827448372E+02 0.  0.
          6    2    1    2  501    0  0.15818550787E+03 -0.18232633615E+02  0.23306003628E+03  0.33129332544E+03  0.17344510123E+03 0.  0.
         24    2    5    5    0    0  0.11974039817E+03 -0.78427116936E+02  0.16138112790E+03  0.22999496322E+03  0.79782448189E+02 0.  0.
          5    1    5    5  501    0  0.38445109701E+02  0.60194483321E+02  0.71678908376E+02  0.10129836222E+03  0.47000000000E+01 0. -1.
        -13    1    6    6    0    0  0.67894429786E+02 -0.72969106347E+01  0.10570974775E+03  0.12584692793E+03  0.00000000000E+00 0.  1.
         14    1    6    6    0    0  0.51845968380E+02 -0.71130206301E+02  0.55671380151E+02  0.10414803528E+03  0.00000000000E+00 0. -1.
         -5    1    3    3    0  503 -0.97116604365E+01  0.14376148821E+02 -0.84181801211E+02  0.86079356750E+02  0.47000000000E+01 0.  1.
         13    1    4    4    0    0 -0.79431369361E+02 -0.95900220191E+01 -0.58435148864E+02  0.99075615485E+02  0.00000000000E+00 0. -1.
        -14    1    4    4    0    0 -0.69042478070E+02  0.13446506813E+02  0.22388568699E+02  0.73816802503E+02  0.00000000000E+00 0.  1.
</event>
<event>
12    1  0.8053217E-002  0.1921306E+03  0.7818608E-02  0.1156594E+00
         21   -1    0    0  501  502  0.00000000000E+00  0.00000000000E+00  0.32332631321E+03  0.32332631321E+03  0.00000000000E+00 0. -1.
         21   -1    0    0  502  503 -0.00000000000E+00 -0.00000000000E+00 -0.11417387183E+03  0.11417387183E+03  0.00000000000E+00 0. -1.
         -6    2    1    2    0  503  0.82530070160E+02 -0.23896490235E+02  0.97647134055E+02  0.21535701442E+03  0.17164331080E+03 0.  0.
        -24    2    3    3    0    0  0.63774377768E+01 -0.44404041613E+02  0.22327747176E+01  0.91478957238E+02  0.79693310323E+02 0.  0.
          6    2    1    2  501    0 -0.82530070160E+02  0.23896490235E+02  0.11150530733E+03  0.22214317062E+03  0.17184847967E+03 0.  0.
         24    2    5    5    0    0 -0.11524583594E+03  0.34507475891E+02  0.11843223399E+03  0.18674561901E+03  0.79845873890E+02 0.  0.
          5    1    5    5  501    0  0.32715765779E+02 -0.10610985657E+02 -0.69269266615E+01  0.35397551612E+02  0.47000000000E+01 0. -1.
        -13    1    6    6    0    0 -0.34889706759E+02 -0.25774717362E+02  0.28381889822E+02  0.51837817881E+02  0.00000000000E+00 0.  1.
         14    1    6    6    0    0 -0.80356129180E+02  0.60282193253E+02  0.90050344171E+02  0.13490780113E+03  0.00000000000E+00 0. -1.
         -5    1    3    3    0  503  0.76152632383E+02  0.20507551378E+02  0.95414359338E+02  0.12387805718E+03  0.47000000000E+01 0.  1.
         11    1    4    4    0    0 -0.11391179408E+02 -0.32533910894E+02  0.37063717928E+02  0.50615546160E+02  0.00000000000E+00 0. -1.
        -12    1    4    4    0    0  0.17768617185E+02 -0.11870130718E+02 -0.34830943211E+02  0.40863411078E+02  0.00000000000E+00 0.  1.
</event>
<event>
12    1  0.8053217E-002  0.1779760E+03  0.7818608E-02  0.1170859E+00
         21   -1    0    0  501  502  0.00000000000E+00  0.00000000000E+00  0.10746888690E+04  0.10746888690E+04  0.00000000000E+00 0.  1.
         21   -1    0    0  502  503 -0.00000000000E+00 -0.00000000000E+00 -0.30222543132E+02  0.30222543132E+02  0.00000000000E+00 0.  1.
         -6    2    1    2    0  503  0.33646436484E+02  0.20292323749E+02  0.64999706934E+03  0.67392258631E+03  0.17358456471E+03 0.  0.
        -24    2    3    3    0    0  0.64865513030E+01  0.46791148805E+02  0.17516132627E+03  0.19754991709E+03  0.78185628894E+02 0.  0.
          6    2    1    2  501    0 -0.33646436484E+02 -0.20292323749E+02  0.39446925652E+03  0.43098882580E+03  0.16911981711E+03 0.  0.
         24    2    5    5    0    0 -0.53459568826E+01 -0.74810871022E+02  0.25859016184E+03  0.28179630752E+03  0.83156728243E+02 0.  0.
          5    1    5    5  501    0 -0.28300479602E+02  0.54518547273E+02  0.13587909467E+03  0.14919251828E+03  0.47000000000E+01 0. -1.
        -11    1    6    6    0    0 -0.10905559547E+02 -0.61509129166E+02  0.74855600723E+02  0.97497000771E+02  0.00000000000E+00 0.  1.
         12    1    6    6    0    0  0.55596026641E+01 -0.13301741856E+02  0.18373456112E+03  0.18429930675E+03  0.00000000000E+00 0. -1.
         -5    1    3    3    0  503  0.27159885181E+02 -0.26498825056E+02  0.47483574307E+03  0.47637266923E+03  0.47000000000E+01 0.  1.
         13    1    4    4    0    0  0.16006422559E+01 -0.11503387071E+02 -0.12603533451E+01  0.11682399594E+02  0.00000000000E+00 0. -1.
        -14    1    4    4    0    0  0.48859090472E+01  0.58294535876E+02  0.17642167962E+03  0.18586751749E+03  0.00000000000E+00 0.  1.
</event>
<event>
12    1  0.8053217E-002  0.1942567E+03  0.7818608E-02  0.1154799E+00
         21   -1    0    0  501  502  0.00000000000E+00  0.00000000000E+00  0.57185930327E+03  0.57185930327E+03  0.00000000000E+00 0.  1.
         21   -1    0    0  502  503 -0.00000000000E+00 -0.00000000000E+00 -0.94222535989E+02  0.94222535989E+02  0.00000000000E+00 0.  1.
         -6    2    1    2    0  503 -0.80435962536E+02 -0.36174312526E+02  0.55662168039E+02  0.20154095169E+03  0.17245855531E+03 0.  0.
        -24    2    3    3    0    0  0.48827324021E-01  0.28865577550E+02 -0.18673438919E+00  0.83858418566E+02  0.78733573164E+02 0.  0.
          6    2    1    2  501    0  0.80435962536E+02  0.36174312526E+02  0.42197459924E+03  0.46454088757E+03  0.17308133597E+03 0.  0.
         24    2    5    5    0    0  0.82259004589E+01 -0.12689573236E+02  0.89154399267E+02  0.12045754315E+03  0.79579030438E+02 0.  0.
          5    1    5    5  501    0  0.72210062078E+02  0.48863885762E+02  0.33282019997E+03  0.34408334442E+03  0.47000000000E+01 0. -1.
        -11    1    6    6    0    0 -0.63961688782E+01  0.20129543172E+02  0.80874089788E+02  0.83586648956E+02  0.00000000000E+00 0.  1.
         12    1    6    6    0    0  0.14622069337E+02 -0.32819116408E+02  0.82803094788E+01  0.36870894192E+02  0.00000000000E+00 0. -1.
         -5    1    3    3    0  503 -0.80484789860E+02 -0.65039890076E+02  0.55848902428E+02  0.11768253312E+03  0.47000000000E+01 0.  1.
         11    1    4    4    0    0 -0.21861364674E+02 -0.14949267266E+02  0.17536026729E+02  0.31763376563E+02  0.00000000000E+00 0. -1.
        -12    1    4    4    0    0  0.21910191998E+02  0.43814844816E+02 -0.17722761118E+02  0.52095042003E+02  0.00000000000E+00 0.  1.
</event>
<event>
12    1  0.8053217E-002  0.2025250E+03  0.7818608E-02  0.1147861E+00
         21   -1    0    0  503  502  0.00000000000E+00  0.00000000000E+00  0.21963013459E+03  0.21963013459E+03  0.00000000000E+00 0. -1.
         21   -1    0    0  501  503 -0.00000000000E+00 -0.00000000000E+00 -0.19703252425E+03  0.19703252425E+03  0.00000000000E+00 0.  1.
          6    2    1    2  501    0  0.32570983310E+02  0.99406021299E+02  0.61207967646E+02  0.21049004852E+03  0.17209654035E+03 0.  0.
         24    2    3    3    0    0 -0.24778732942E+02  0.60883007330E+01  0.42903822428E+00  0.85137125991E+02  0.81222491566E+02 0.  0.
         -6    2    1    2    0  502 -0.32570983310E+02 -0.99406021299E+02 -0.38610357310E+02  0.20617261031E+03  0.17341845210E+03 0.  0.
        -24    2    5    5    0    0  0.15992066950E+02 -0.12295323176E+03 -0.19138267954E+02  0.14860444867E+03  0.79647758654E+02 0.  0.
          5    1    3    3  501    0  0.57349716252E+02  0.93317720566E+02  0.60778929421E+02  0.12535292253E+03  0.47000000000E+01 0. -1.
        -13    1    4    4    0    0  0.32388624898E+01  0.64525409396E+01 -0.37383524548E+02  0.38074314471E+02  0.00000000000E+00 0.  1.
         14    1    4    4    0    0 -0.28017595431E+02 -0.36424020656E+00  0.37812562773E+02  0.47062811519E+02  0.00000000000E+00 0. -1.
         -5    1    5    5    0  502 -0.48563050260E+02  0.23547210460E+02 -0.19472089356E+02  0.57568161643E+02  0.47000000000E+01 0.  1.
         13    1    6    6    0    0  0.22448258967E+02 -0.21225671490E+02  0.22785042310E+02  0.38387649237E+02  0.00000000000E+00 0. -1.
        -14    1    6    6    0    0 -0.64561920170E+01 -0.10172756027E+03 -0.41923310264E+02  0.11021679943E+03  0.00000000000E+00 0.  1.
</event>
<event>
12    1  0.8053217E-002  0.2330413E+03  0.7818608E-02  0.1124645E+00
         21   -1    0    0  501  502  0.00000000000E+00  0.00000000000E+00  0.10097568542E+03  0.10097568542E+03  0.00000000000E+00 0. -1.
         21   -1    0    0  502  503 -0.00000000000E+00 -0.00000000000E+00 -0.12317467724E+04  0.12317467724E+04  0.00000000000E+00 0.  1.
         -6    2    1    2    0  503  0.15182465646E+03 -0.39694806111E+02 -0.10665366658E+04  0.10916999256E+04  0.17228425431E+03 0.  0.
        -24    2    3    3    0    0  0.85558840062E+02  0.25612076573E+02 -0.36647550134E+03  0.38546776036E+03  0.79402818664E+02 0.  0.
          6    2    1    2  501    0 -0.15182465646E+03  0.39694806111E+02 -0.64234421258E+02  0.24102253223E+03  0.17128746663E+03 0.  0.
         24    2    5    5    0    0 -0.79913908433E+02 -0.14146306598E+02  0.23518361117E+02  0.11535367405E+03  0.78530287509E+02 0.  0.
          5    1    5    5  501    0 -0.71910748029E+02  0.53841112709E+02 -0.87752782375E+02  0.12566885817E+03  0.47000000000E+01 0. -1.
        -13    1    6    6    0    0 -0.28603673322E+02 -0.27773506806E+02 -0.21899746676E+02  0.45487764424E+02  0.00000000000E+00 0.  1.
         14    1    6    6    0    0 -0.51310235112E+02  0.13627200209E+02  0.45418107793E+02  0.69865909629E+02  0.00000000000E+00 0. -1.
         -5    1    3    3    0  503  0.66265816400E+02 -0.65306882683E+02 -0.70006116441E+03  0.70623216527E+03  0.47000000000E+01 0.  1.
         13    1    4    4    0    0  0.39996111016E+01  0.14884961269E+02 -0.19150672678E+03  0.19212596223E+03  0.00000000000E+00 0. -1.
        -14    1    4    4    0    0  0.81559228961E+02  0.10727115304E+02 -0.17496877457E+03  0.19334179813E+03  0.00000000000E+00 0.  1.
</event>
<event>
12    1  0.8053217E-002  0.2942419E+03  0.7818608E-02  0.1089738E+00
         21   -1    0    0  503  502  0.00000000000E+00  0.00000000000E+00  0.11340435434E+03  0.11340435434E+03  0.00000000000E+00 0.  1.
         21   -1    0    0  501  503 -0.00000000000E+00 -0.00000000000E+00 -0.91803940513E+03  0.91803940513E+03  0.00000000000E+00 0. -1.
          6    2    1    2  501    0 -0.92361638392E+02 -0.20515882463E+03 -0.62744636669E+03  0.68797018421E+03  0.17027394316E+03 0.  0.
         24    2    3    3    0    0  0.17247378514E+02 -0.11165224595E+03 -0.27556533186E+03  0.30770715746E+03  0.77354680107E+02 0.  0.
         -6    2    1    2    0  502  0.92361638392E+02  0.20515882463E+03 -0.17718868409E+03  0.34347357526E+03  0.18962450147E+03 0.  0.
        -24    2    5    5    0    0 -0.30874332556E+02  0.82844526047E+02 -0.57882419704E+02  0.13275108738E+03  0.80349466606E+02 0.  0.
          5    1    3    3  501    0 -0.10960901691E+03 -0.93506578681E+02 -0.35188103483E+03  0.38026302676E+03  0.47000000000E+01 0. -1.
        -13    1    4    4    0    0  0.33770172316E+02 -0.13490052947E+02 -0.91253381916E+02  0.98232305164E+02  0.00000000000E+00 0.  1.
         14    1    4    4    0    0 -0.16522793802E+02 -0.98162192998E+02 -0.18431194995E+03  0.20947485229E+03  0.00000000000E+00 0. -1.
         -5    1    5    5    0  502  0.12323597095E+03  0.12231429858E+03 -0.11930626439E+03  0.21072248787E+03  0.47000000000E+01 0.  1.
         13    1    6    6    0    0  0.12092260152E+02 -0.99517928893E+01 -0.15565305577E+02  0.22080300610E+02  0.00000000000E+00 0. -1.
        -14    1    6    6    0    0 -0.42966592708E+02  0.92796318937E+02 -0.42317114127E+02  0.11067078677E+03  0.00000000000E+00 0.  1.
</event>
<event>
12    1  0.8053217E-002  0.2546109E+03  0.7818608E-02  0.1111479E+00
         21   -1    0    0  503  502  0.00000000000E+00  0.00000000000E+00  0.11570492655E+04  0.11570492655E+04  0.00000000000E+00 0. -1.
         21   -1    0    0  501  503 -0.00000000000E+00 -0.00000000000E+00 -0.56102683554E+02  0.56102683554E+02  0.00000000000E+00 0.  1.
          6    2    1    2  501    0 -0.60170199439E+02  0.17822665260E+03  0.65836108824E+03  0.70587960544E+03  0.17158526241E+03 0.  0.
         24    2    3    3    0    0 -0.10685280178E+03  0.12076447868E+03  0.48008818489E+03  0.51278769764E+03  0.80405080777E+02 0.  0.
         -6    2    1    2    0  502  0.60170199439E+02 -0.17822665260E+03  0.44258549375E+03  0.50727234366E+03  0.16142527299E+03 0.  0.
        -24    2    5    5    0    0  0.96919064271E+01 -0.18606759698E+03  0.33655372614E+03  0.38948285254E+03  0.60937657887E+02 0.  0.
          5    1    3    3  501    0  0.46682602341E+02  0.57462173925E+02  0.17827290334E+03  0.19309190781E+03  0.47000000000E+01 0. -1.
        -11    1    4    4    0    0 -0.14546271717E+02  0.75499014380E+02  0.22429384554E+03  0.23710635660E+03  0.00000000000E+00 0.  1.
         12    1    4    4    0    0 -0.92306530062E+02  0.45265464297E+02  0.25579433935E+03  0.27568134103E+03  0.00000000000E+00 0. -1.
         -5    1    5    5    0  502  0.50478293012E+02  0.78409443764E+01  0.10603176762E+03  0.11778949112E+03  0.47000000000E+01 0.  1.
         13    1    6    6    0    0  0.92520314766E+01 -0.95895738960E+01  0.59668963497E+02  0.61138737464E+02  0.00000000000E+00 0. -1.
        -14    1    6    6    0    0  0.43987495056E+00 -0.17647802308E+03  0.27688476264E+03  0.32834411507E+03  0.00000000000E+00 0.  1.
</event>
<event>
12    1  0.8053217E-002  0.2053511E+03  0.7818608E-02  0.1145608E+00
         21   -1    0    0  501  502  0.00000000000E+00  0.00000000000E+00  0.15075681639E+03  0.15075681639E+03  0.00000000000E+00 0.  1.
         21   -1    0    0  502  503 -0.00000000000E+00 -0.00000000000E+00 -0.27783143817E+03  0.27783143817E+03  0.00000000000E+00 0. -1.
         -6    2    1    2    0  503 -0.99501996648E+02 -0.45373758661E+02 -0.68360387106E+02  0.21500824202E+03  0.17203481131E+03 0.  0.
        -24    2    3    3    0    0 -0.56292730569E+02 -0.23938157589E+01  0.27187021252E+02  0.10158111383E+03  0.80031160763E+02 0.  0.
          6    2    1    2  501    0  0.99501996648E+02  0.45373758661E+02 -0.58714234668E+02  0.21358001254E+03  0.17380919162E+03 0.  0.
         24    2    5    5    0    0 -0.71241509999E+01  0.55904272699E+02 -0.23552239051E+02  0.10071512418E+03  0.80079879127E+02 0.  0.
          5    1    5    5  501    0  0.10662614765E+03 -0.10530514038E+02 -0.35161995617E+02  0.11286488836E+03  0.47000000000E+01 0. -1.
        -13    1    6    6    0    0  0.12822521801E+01 -0.73175530044E+00  0.25364879416E+02  0.25407808726E+02  0.00000000000E+00 0.  1.
         14    1    6    6    0    0 -0.84064031800E+01  0.56636027999E+02 -0.48917118466E+02  0.75307315455E+02  0.00000000000E+00 0. -1.
         -5    1    3    3    0  503 -0.43209266079E+02 -0.42979942902E+02 -0.95547408359E+02  0.11342712820E+03  0.47000000000E+01 0.  1.
         11    1    4    4    0    0 -0.88245403058E+01 -0.13174342847E+02 -0.25387408938E+02  0.29932530024E+02  0.00000000000E+00 0. -1.
        -12    1    4    4    0    0 -0.47468190264E+02  0.10780527088E+02  0.52574430191E+02  0.71648583804E+02  0.00000000000E+00 0.  1.
</event>
<event>
12    1  0.8053217E-002  0.1761267E+03  0.7818608E-02  0.1172204E+00
         21   -1    0    0  503  502  0.00000000000E+00  0.00000000000E+00  0.42407880407E+02  0.42407880407E+02  0.00000000000E+00 0.  1.
         21   -1    0    0  501  503 -0.00000000000E+00 -0.00000000000E+00 -0.81587422706E+03  0.81587422706E+03  0.00000000000E+00 0.  1.
          6    2    1    2  501    0 -0.12482798062E+02  0.26209942878E+02 -0.53494046704E+03  0.56318906816E+03  0.17371770741E+03 0.  0.
         24    2    3    3    0    0 -0.11730296297E+02  0.58122166360E+02 -0.16984821642E+03  0.19667386012E+03  0.79475811156E+02 0.  0.
         -6    2    1    2    0  502  0.12482798062E+02 -0.26209942878E+02 -0.23852587962E+03  0.29509303931E+03  0.17129660022E+03 0.  0.
        -24    2    5    5    0    0  0.34749208813E+00 -0.74423465915E+00 -0.37061017735E+02  0.91608522651E+02  0.83773072946E+02 0.  0.
          5    1    3    3  501    0 -0.75250176522E+00 -0.31912223481E+02 -0.36509225062E+03  0.36651520804E+03  0.47000000000E+01 0. -1.
        -13    1    4    4    0    0 -0.37388213555E+02  0.17848105128E+02 -0.37156319402E+02  0.55650924889E+02  0.00000000000E+00 0.  1.
         14    1    4    4    0    0  0.25657917258E+02  0.40274061232E+02 -0.13269189702E+03  0.14102293523E+03  0.00000000000E+00 0. -1.
         -5    1    5    5    0  502  0.12135305974E+02 -0.25465708219E+02 -0.20146486188E+03  0.20348451666E+03  0.47000000000E+01 0.  1.
         11    1    6    6    0    0 -0.51438656083E+01  0.21233632040E+02 -0.57241917686E+02  0.61269597871E+02  0.00000000000E+00 0. -1.
        -12    1    6    6    0    0  0.54913576964E+01 -0.21977866699E+02  0.20180899950E+02  0.30338924780E+02  0.00000000000E+00 0.  1.
</event>
<event>
12    1  0.8053217E-002  0.1940164E+03  0.7818608E-02  0.1154959E+00
         21   -1    0    0  503  502  0.00000000000E+00  0.00000000000E+00  0.70686255074E+03  0.70686255074E+03  0.00000000000E+00 0.  1.
         21   -1    0    0  501  503 -0.00000000000E+00 -0.00000000000E+00 -0.70812646131E+02  0.70812646131E+02  0.00000000000E+00 0. -1.
          6    2    1    2  501    0  0.87689054123E+02  0.18060200908E+02  0.12370278346E+03  0.22982309355E+03  0.17175777893E+03 0.  0.
         24    2    3    3    0    0 -0.15016888313E+02  0.21008533434E+02  0.26078063811E+02  0.88013787917E+02  0.79996850186E+02 0.  0.
         -6    2    1    2    0  502 -0.87689054123E+02 -0.18060200908E+02  0.51234712115E+03  0.54785210333E+03  0.17212441285E+03 0.  0.
        -24    2    5    5    0    0 -0.62400674244E+01  0.29050958165E+02  0.91421865739E+02  0.11651284081E+03  0.65836068588E+02 0.  0.
          5    1    3    3  501    0  0.10270594244E+03 -0.29483325264E+01  0.97624719650E+02  0.14180930563E+03  0.47000000000E+01 0. -1.
        -13    1    4    4    0    0  0.26680319840E+02  0.14492035999E+02  0.33446328293E+02  0.45172064935E+02  0.00000000000E+00 0.  1.
         14    1    4    4    0    0 -0.41697208153E+02  0.65164974354E+01 -0.73682644824E+01  0.42841722982E+02  0.00000000000E+00 0. -1.
         -5    1    5    5    0  502 -0.81448986698E+02 -0.47111159073E+02  0.42092525541E+03  0.43133926251E+03  0.47000000000E+01 0.  1.
         13    1    6    6    0    0  0.82231964920E-01  0.47653757476E+01 -0.10508466245E+02  0.11538779438E+02  0.00000000000E+00 0. -1.
        -14    1    6    6    0    0 -0.63222993893E+01  0.24285582418E+02  0.10193033198E+03  0.10497406137E+03  0.00000000000E+00 0.  1.
</event>
<event>
12    1  0.8053217E-002  0.3016508E+03  0.7818608E-02  0.1084438E+00
         21   -1    0    0  503  502  0.00000000000E+00  0.00000000000E+00  0.55575066646E+03  0.55575066646E+03  0.00000000000E+00 0.  1.
         21   -1    0    0  501  503 -0.00000000000E+00 -0.00000000000E+00 -0.44292053010E+03  0.44292053010E+03  0.00000000000E+00 0. -1.
          6    2    1    2  501    0  0.68705804194E+02  0.23825260668E+03 -0.34009509715E+03  0.45448881321E+03  0.17149523056E+03 0.  0.
         24    2    3    3    0    0 -0.26447838530E+02  0.90147041778E+02 -0.15633056375E+03  0.19996775747E+03  0.81987081668E+02 0.  0.
         -6    2    1    2    0  502 -0.68705804194E+02 -0.23825260668E+03  0.45292523351E+03  0.54418238335E+03  0.17178011258E+03 0.  0.
        -24    2    5    5    0    0 -0.71272535253E+02 -0.69154350984E+02  0.15264189333E+03  0.19951880451E+03  0.81523660450E+02 0.  0.
          5    1    3    3  501    0  0.95153642723E+02  0.14810556490E+03 -0.18376453340E+03  0.25452105574E+03  0.47000000000E+01 0. -1.
        -13    1    4    4    0    0 -0.51795543354E+02  0.80665942256E+02 -0.13466401611E+03  0.16530024134E+03  0.00000000000E+00 0.  1.
         14    1    4    4    0    0  0.25347704824E+02  0.94810995219E+01 -0.21666547635E+02  0.34667516127E+02  0.00000000000E+00 0. -1.
         -5    1    5    5    0  502  0.25667310598E+01 -0.16909825570E+03  0.30028334018E+03  0.34466357884E+03  0.47000000000E+01 0.  1.
         11    1    6    6    0    0  0.10356312976E+02 -0.15961309847E+02  0.72192501189E+00  0.19040425579E+02  0.00000000000E+00 0. -1.
        -12    1    6    6    0    0 -0.81628848230E+02 -0.53193041137E+02  0.15191996831E+03  0.18047837893E+03  0.00000000000E+00 0.  1.
</event>
<event>
12    1  0.8053217E-002  0.2380601E+03  0.7818608E-02  0.1122461E+00
         21   -1    0    0  503  502  0.00000000000E+00  0.00000000000E+00  0.46108758929E+03  0.46108758929E+03  0.00000000000E+00 0. -1.
         21   -1    0    0  501  503 -0.00000000000E+00 -0.00000000000E+00 -0.13037335884E+03  0.13037335884E+03  0.00000000000E+00 0. -1.
          6    2    1    2  501    0  0.15681632123E+03 -0.31449825928E+02  0.79906811426E+02  0.25111298032E+03  0.17632974853E+03 0.  0.
         24    2    3    3    0    0  0.10672549089E+03 -0.87683469059E+02  0.67179053166E+02  0.17459239659E+03  0.83010593364E+02 0.  0.
         -6    2    1    2    0  502 -0.15681632123E+03  0.31449825928E+02  0.25080741902E+03  0.34034796782E+03  0.16538418186E+03 0.  0.
        -24    2    5    5    0    0 -0.14832058542E+03  0.69872118201E+02  0.23422825013E+03  0.29738974496E+03  0.81833234600E+02 0.  0.
          5    1    3    3  501    0  0.50090830339E+02  0.56233643132E+02  0.12727758261E+02  0.76520583729E+02  0.47000000000E+01 0. -1.
        -13    1    4    4    0    0  0.22704551840E+01 -0.21679619661E+02  0.43679284105E+02  0.48816398221E+02  0.00000000000E+00 0.  1.
         14    1    4    4    0    0  0.10445503570E+03 -0.66003849398E+02  0.23499769061E+02  0.12577599837E+03  0.00000000000E+00 0. -1.
         -5    1    5    5    0  502 -0.84957358052E+01 -0.38422292273E+02  0.16579168894E+02  0.42958222863E+02  0.47000000000E+01 0.  1.
         11    1    6    6    0    0 -0.97532797707E+02  0.33566111798E+01  0.14755210062E+03  0.17690544328E+03  0.00000000000E+00 0. -1.
        -12    1    6    6    0    0 -0.50787787714E+02  0.66515507021E+02  0.86676149513E+02  0.12048430167E+03  0.00000000000E+00 0.  1.
</event>
<event>
12    1  0.8053217E-002  0.1847666E+03  0.7818608E-02  0.1163331E+00
         21   -1    0    0  501  502  0.00000000000E+00  0.00000000000E+00  0.13533676048E+03  0.13533676048E+03  0.00000000000E+00 0. -1.
         21   -1    0    0  502  503 -0.00000000000E+00 -0.00000000000E+00 -0.40107295335E+03  0.40107295335E+03  0.00000000000E+00 0. -1.
         -6    2    1    2    0  503  0.40153103423E+01  0.69583078757E+02 -0.29650522206E+03  0.34936233200E+03  0.17111623168E+03 0.  0.
        -24    2    3    3    0    0 -0.20320725515E+01  0.11337096926E+03 -0.24571441130E+03  0.28186606060E+03  0.78840333649E+02 0.  0.
          6    2    1    2  501    0 -0.40153103423E+01 -0.69583078757E+02  0.30769029198E+02  0.18704738183E+03  0.17082758069E+03 0.  0.
         24    2    5    5    0    0  0.42986114138E+02  0.98909476553E+01  0.20362659716E+02  0.94011704247E+02  0.80485562498E+02 0.  0.
          5    1    5    5  501    0 -0.47001424481E+02 -0.79474026412E+02  0.10406369482E+02  0.93035677582E+02  0.47000000000E+01 0. -1.
        -13    1    6    6    0    0 -0.81032918822E+01  0.13088032397E+02  0.37090890044E+02  0.40158362213E+02  0.00000000000E+00 0.  1.
         14    1    6    6    0    0  0.51089406020E+02 -0.31970847419E+01 -0.16728230328E+02  0.53853342034E+02  0.00000000000E+00 0. -1.
         -5    1    3    3    0  503  0.60473828938E+01 -0.43787890503E+02 -0.50790810764E+02  0.67496271398E+02  0.47000000000E+01 0.  1.
         13    1    4    4    0    0 -0.19177997351E+02  0.61607554564E+02 -0.20176314402E+03  0.21182930073E+03  0.00000000000E+00 0. -1.
        -14    1    4    4    0    0  0.17145924800E+02  0.51763414696E+02 -0.43951267275E+02  0.70036759871E+02  0.00000000000E+00 0.  1.
</event>
<event>
12    1  0.8053217E-002  0.2112552E+03  0.7818608E-02  0.1141971E+00
         21   -1    0    0  501  502  0.00000000000E+00  0.00000000000E+00  0.75705983354E+02  0.75705983354E+02  0.00000000000E+00 0.  1.
         21   -1    0    0  502  503 -0.00000000000E+00 -0.00000000000E+00 -0.10231963101E+04  0.10231963101E+04  0.00000000000E+00 0. -1.
         -6    2    1    2    0  503  0.78794126836E+02 -0.91058745274E+02 -0.84374016549E+03  0.86978516842E+03  0.17357581294E+03 0.  0.
        -24    2    3    3    0    0  0.89825394213E+02 -0.11229524003E+03 -0.52458765006E+03  0.54970221718E+03  0.79382004278E+02 0.  0.
          6    2    1    2  501    0 -0.78794126836E+02  0.91058745274E+02 -0.10375016123E+03  0.22911712501E+03  0.16501621587E+03 0.  0.
         24    2    5    5    0    0 -0.10441015344E+03  0.60955375041E+02 -0.34023286366E+02  0.14882814197E+03  0.79844811596E+02 0.  0.
          5    1    5    5  501    0  0.25616026604E+02  0.30103370233E+02 -0.69726874867E+02  0.80288983037E+02  0.47000000000E+01 0. -1.
        -13    1    6    6    0    0 -0.20266362862E+01  0.39501744764E+02 -0.16060590937E+02  0.42690018450E+02  0.00000000000E+00 0.  1.
         14    1    6    6    0    0 -0.10238351715E+03  0.21453630277E+02 -0.17962695429E+02  0.10613812352E+03  0.00000000000E+00 0. -1.
         -5    1    3    3    0  503 -0.11031267377E+02  0.21236494761E+02 -0.31915251543E+03  0.32008295124E+03  0.47000000000E+01 0.  1.
         11    1    4    4    0    0  0.81639267201E+02 -0.65269444875E+02 -0.44312143011E+03  0.45528197000E+03  0.00000000000E+00 0. -1.
        -12    1    4    4    0    0  0.81861270120E+01 -0.47025795159E+02 -0.81466219950E+02  0.94420247187E+02  0.00000000000E+00 0.  1.
</event>
<event>
12    1  0.8053217E-002  0.2078027E+03  0.7818608E-02  0.1144532E+00
         21   -1    0    0  503  502  0.00000000000E+00  0.00000000000E+00  0.37947752136E+03  0.37947752136E+03  0.00000000000E+00 0.  1.
         21   -1    0    0  501  503 -0.00000000000E+00 -0.00000000000E+00 -0.12769136591E+03  0.12769136591E+03  0.00000000000E+00 0. -1.
          6    2    1    2  501    0  0.32946850713E+02  0.10140651373E+03  0.31423081848E+02  0.20427969534E+03  0.17138847061E+03 0.  0.
         24    2    3    3    0    0 -0.34939043980E+02  0.78904672799E+02  0.53901607101E+02  0.12916510527E+03  0.79571081356E+02 0.  0.
         -6    2    1    2    0  502 -0.32946850713E+02 -0.10140651373E+03  0.22036307360E+03  0.30288919193E+03  0.17836255879E+03 0.  0.
        -24    2    5    5    0    0  0.20260998131E+02 -0.21213881274E+02  0.18029470966E+03  0.19853643792E+03  0.77781733377E+02 0.  0.
          5    1    3    3  501    0  0.67885894693E+02  0.22501840934E+02 -0.22478525253E+02  0.75114590069E+02  0.47000000000E+01 0. -1.
        -11    1    4    4    0    0  0.20755689180E+02  0.10649908053E+02  0.29777206727E+02  0.37827254927E+02  0.00000000000E+00 0.  1.
         12    1    4    4    0    0 -0.55694733160E+02  0.68254764746E+02  0.24124400374E+02  0.91337850345E+02  0.00000000000E+00 0. -1.
         -5    1    5    5    0  502 -0.53207848844E+02 -0.80192632459E+02  0.40068363942E+02  0.10435275400E+03  0.47000000000E+01 0.  1.
         13    1    6    6    0    0 -0.27021676879E+02  0.62164468022E+01  0.48704325233E+02  0.56043969601E+02  0.00000000000E+00 0. -1.
        -14    1    6    6    0    0  0.47282675010E+02 -0.27430328076E+02  0.13159038443E+03  0.14249246832E+03  0.00000000000E+00 0.  1.
</event>
<event>
12    1  0.8053217E-002  0.2506933E+03  0.7818608E-02  0.1113338E+00
         21   -1    0    0  503  502  0.00000000000E+00  0.00000000000E+00  0.28298154229E+03  0.28298154229E+03  0.00000000000E+00 0.  1.
         21   -1    0    0  501  503 -0.00000000000E+00 -0.00000000000E+00 -0.23094525937E+03  0.23094525937E+03  0.00000000000E+00 0. -1.
          6    2    1    2  501    0 -0.71315837084E+02 -0.16457096501E+03 -0.31124233076E+02  0.25261797428E+03  0.17515014103E+03 0.  0.
         24    2    3    3    0    0 -0.27382181163E+02 -0.10377512537E+02  0.10590335411E+02  0.86883300383E+02  0.81111503929E+02 0.  0.
         -6    2    1    2    0  502  0.71315837084E+02  0.16457096501E+03  0.83160515994E+02  0.26130882737E+03  0.17087153274E+03 0.  0.
        -24    2    5    5    0    0  0.27640846195E+02  0.23917869978E+02  0.72041014112E+02  0.11353693799E+03  0.79778742099E+02 0.  0.
          5    1    3    3  501    0 -0.43933655922E+02 -0.15419345247E+03 -0.41714568487E+02  0.16573467390E+03  0.47000000000E+01 0. -1.
        -13    1    4    4    0    0 -0.38338840682E+02  0.19432759064E+02 -0.15591254651E+02  0.45722926976E+02  0.00000000000E+00 0.  1.
         14    1    4    4    0    0  0.10956659520E+02 -0.29810271601E+02  0.26181590062E+02  0.41160373406E+02  0.00000000000E+00 0. -1.
         -5    1    5    5    0  502  0.43674990890E+02  0.14065309503E+03  0.11119501882E+02  0.14777188939E+03  0.47000000000E+01 0.  1.
         11    1    6    6    0    0  0.10278256449E+02  0.30432375166E+02 -0.65546302602E+01  0.32783154085E+02  0.00000000000E+00 0. -1.
        -12    1    6    6    0    0  0.17362589746E+02 -0.65145051881E+01  0.78595644372E+02  0.80753783904E+02  0.00000000000E+00 0.  1.
</event>
<event>
12    1  0.8053217E-002  0.2068665E+03  0.7818608E-02  0.1144142E+00
         21   -1    0    0  503  502  0.00000000000E+00  0.00000000000E+00  0.24946065596E+03  0.24946065596E+03  0.00000000000E+00 0. -1.
         21   -1    0    0  501  503 -0.00000000000E+00 -0.00000000000E+00 -0.19285886492E+03  0.19285886492E+03  0.00000000000E+00 0. -1.
          6    2    1    2  501    0 -0.70474629511E+02 -0.88702707073E+02  0.10229814176E+03  0.23046601902E+03  0.17266972077E+03 0.  0.
         24    2    3    3    0    0 -0.73165291399E+02 -0.79448370312E+02  0.13784345803E+03  0.19333864477E+03  0.81937837599E+02 0.  0.
         -6    2    1    2    0  502  0.70474629511E+02  0.88702707073E+02 -0.45696350728E+02  0.21185350186E+03  0.17308641233E+03 0.  0.
        -24    2    5    5    0    0  0.10901645945E+03  0.61923671178E+02 -0.63123439163E+02  0.16157047461E+03  0.80008250888E+02 0.  0.
          5    1    3    3  501    0  0.26906618874E+01 -0.92543367613E+01 -0.35545316267E+02  0.37127374252E+02  0.47000000000E+01 0. -1.
        -11    1    4    4    0    0 -0.57110035038E+02 -0.46009882005E+01  0.44044769197E+02  0.72268021200E+02  0.00000000000E+00 0.  1.
         12    1    4    4    0    0 -0.16055256360E+02 -0.74847382112E+02  0.93798688831E+02  0.12107062357E+03  0.00000000000E+00 0. -1.
         -5    1    5    5    0  502 -0.38541829937E+02  0.26779035895E+02  0.17427088435E+02  0.50283027252E+02  0.47000000000E+01 0.  1.
         11    1    6    6    0    0  0.20469587101E+02 -0.38159401500E+01 -0.45300753398E+02  0.49857032140E+02  0.00000000000E+00 0. -1.
        -12    1    6    6    0    0  0.88546872347E+02  0.65739611328E+02 -0.17822685764E+02  0.11171344247E+03  0.00000000000E+00 0.  1.
</event>
<event>
12    1  0.8053217E-002  0.1876809E+03  0.7818608E-02  0.1161398E+00
         21   -1    0    0  501  502  0.00000000000E+00  0.00000000000E+00  0.23586402730E+03  0.23586402730E+03  0.00000000000E+00 0. -1.
         21   -1    0    0  502  503 -0.00000000000E+00 -0.00000000000E+00 -0.21317572181E+03  0.21317572181E+03  0.00000000000E+00 0. -1.
         -6    2    1    2    0  503 -0.69046148865E+02  0.31883705963E+02 -0.11413555451E+03  0.21966119315E+03  0.17158139058E+03 0.  0.
        -24    2    3    3    0    0  0.20015406196E+02 -0.78552173193E+00 -0.31184774086E+02  0.93557422389E+02  0.85902663636E+02 0.  0.
          6    2    1    2  501    0  0.69046148865E+02 -0.31883705963E+02  0.13682385999E+03  0.22937855596E+03  0.16765981001E+03 0.  0.
         24    2    5    5    0    0  0.11712849628E+02 -0.42849669108E+02  0.14186149904E+03  0.17060077652E+03  0.83705764728E+02 0.  0.
          5    1    5    5  501    0  0.57333299238E+02  0.10965963145E+02 -0.50376390464E+01  0.58777779444E+02  0.47000000000E+01 0. -1.
        -11    1    6    6    0    0  0.12716991522E+02 -0.13604113114E+00 -0.78275751881E+01  0.14933563335E+02  0.00000000000E+00 0.  1.
         12    1    6    6    0    0 -0.10041418945E+01 -0.42713627977E+02  0.14968907423E+03  0.15566721318E+03  0.00000000000E+00 0. -1.
         -5    1    3    3    0  503 -0.89061555062E+02  0.32669227695E+02 -0.82950780419E+02  0.12610377076E+03  0.47000000000E+01 0.  1.
         11    1    4    4    0    0  0.18661441328E+02  0.34741662362E+02  0.84309192988E+01  0.40327569929E+02  0.00000000000E+00 0. -1.
        -12    1    4    4    0    0  0.13539648678E+01 -0.35527184094E+02 -0.39615693385E+02  0.53229852460E+02  0.00000000000E+00 0.  1.
</event>
<event>
12    1  0.8053217E-002  0.2352521E+03  0.7818608E-02  0.1123530E+00
         21   -1    0    0  503  502  0.00000000000E+00  0.00000000000E+00  0.21743422666E+03  0.21743422666E+03  0.00000000000E+00 0.  1.
         21   -1    0    0  501  503 -0.00000000000E+00 -0.00000000000E+00 -0.41037808734E+03  0.41037808734E+03  0.00000000000E+00 0. -1.
          6    2    1    2  501    0  0.13691093833E+03 -0.69349625548E+02 -0.29158510499E+03  0.37271692418E+03  0.17418971417E+03 0.  0.
         24    2    3    3    0    0  0.66810379790E+02  0.19112413376E+01 -0.57782841390E+02  0.11839864344E+03  0.78816891064E+02 0.  0.
         -6    2    1    2    0  502 -0.13691093833E+03  0.69349625548E+02  0.98641244317E+02  0.25509538982E+03  0.17829634665E+03 0.  0.
        -24    2    5    5    0    0 -0.95637219346E+01  0.87329228168E+01 -0.22964244846E+00  0.82789729952E+02  0.81770153062E+02 0.  0.
          5    1    3    3  501    0  0.70100558537E+02 -0.71260866886E+02 -0.23380226360E+03  0.25431828075E+03  0.47000000000E+01 0. -1.
        -11    1    4    4    0    0  0.40073317123E+02  0.16523866781E+02 -0.72570324222E+02  0.84530236462E+02  0.00000000000E+00 0.  1.
         12    1    4    4    0    0  0.26737062668E+02 -0.14612625443E+02  0.14787482832E+02  0.33868406974E+02  0.00000000000E+00 0. -1.
         -5    1    5    5    0  502 -0.12734721639E+03  0.60616702732E+02  0.98870886765E+02  0.17230565987E+03  0.47000000000E+01 0.  1.
         11    1    6    6    0    0 -0.22596236183E+02  0.26821537297E+02  0.29362016736E+02  0.45739619362E+02  0.00000000000E+00 0. -1.
        -12    1    6    6    0    0  0.13032514249E+02 -0.18088614480E+02 -0.29591659184E+02  0.37050110590E+02  0.00000000000E+00 0.  1.
</event>
<event>
12    1  0.8053217E-002  0.2036066E+03  0.7818608E-02  0.1146764E+00
         21   -1    0    0  503  502  0.00000000000E+00  0.00000000000E+00  0.35260124583E+02  0.35260124583E+02  0.00000000000E+00 0. -1.
         21   -1    0    0  501  503 -0.00000000000E+00 -0.00000000000E+00 -0.11927959407E+04  0.11927959407E+04  0.00000000000E+00 0. -1.
          6    2    1    2  501    0  0.10958216729E+03  0.11193533575E+02 -0.65445609073E+03  0.68539655442E+03  0.17123701564E+03 0.  0.
         24    2    3    3    0    0  0.98585795280E+02  0.56447101927E+01 -0.25205535452E+03  0.28277992269E+03  0.81740816913E+02 0.  0.
         -6    2    1    2    0  502 -0.10958216729E+03 -0.11193533575E+02 -0.50307972539E+03  0.54265951088E+03  0.17104557305E+03 0.  0.
        -24    2    5    5    0    0 -0.44466090550E+02 -0.31472125325E+02 -0.12256861306E+03  0.15605619823E+03  0.79766811517E+02 0.  0.
          5    1    3    3  501    0  0.10996372012E+02  0.55488233824E+01 -0.40240073621E+03  0.40261663172E+03  0.47000000000E+01 0. -1.
        -13    1    4    4    0    0  0.11286783591E+03  0.16340829161E+01 -0.22989976679E+03  0.25611661675E+03  0.00000000000E+00 0.  1.
         14    1    4    4    0    0 -0.14282040626E+02  0.40106272766E+01 -0.22155587737E+02  0.26663305938E+02  0.00000000000E+00 0. -1.
         -5    1    5    5    0  502 -0.65116076743E+02  0.20278591750E+02 -0.38051111234E+03  0.38660331264E+03  0.47000000000E+01 0.  1.
         11    1    6    6    0    0 -0.40928073696E+02 -0.56507729988E+02 -0.76753418181E+02  0.10372713226E+03  0.00000000000E+00 0. -1.
        -12    1    6    6    0    0 -0.35380168538E+01  0.25035604663E+02 -0.45815194875E+02  0.52329065972E+02  0.00000000000E+00 0.  1.
</event>
<event>
12    1  0.8053217E-002  0.1842733E+03  0.7818608E-02  0.1164133E+00
         21   -1    0    0  501  502  0.00000000000E+00  0.00000000000E+00  0.24316872526E+03  0.24316872526E+03  0.00000000000E+00 0. -1.
         21   -1    0    0  502  503 -0.00000000000E+00 -0.00000000000E+00 -0.27404842888E+03  0.27404842888E+03  0.00000000000E+00 0. -1.
         -6    2    1    2    0  503  0.53726467021E+02 -0.36002315544E+02  0.16657163774E+03  0.24713630283E+03  0.17072651139E+03 0.  0.
        -24    2    3    3    0    0  0.68903916245E+02 -0.45621974165E+02  0.18710393377E+03  0.21944951939E+03  0.79505316329E+02 0.  0.
          6    2    1    2  501    0 -0.53726467021E+02  0.36002315544E+02 -0.19745134137E+03  0.27008085132E+03  0.17255125053E+03 0.  0.
         24    2    5    5    0    0  0.40023938413E+02  0.26027427695E+02 -0.86652378945E+02  0.12452283203E+03  0.75617182443E+02 0.  0.
          5    1    5    5  501    0 -0.93750405433E+02  0.99748878483E+01 -0.11079896242E+03  0.14555801929E+03  0.47000000000E+01 0. -1.
        -13    1    6    6    0    0  0.52322063901E+01  0.38549064349E+02 -0.11176722307E+02  0.40476233365E+02  0.00000000000E+00 0.  1.
         14    1    6    6    0    0  0.34791732023E+02 -0.12521636654E+02 -0.75475656638E+02  0.84046598661E+02  0.00000000000E+00 0. -1.
         -5    1    3    3    0  503 -0.15177449224E+02  0.96196586210E+01 -0.20532296031E+02  0.27686783440E+02  0.47000000000E+01 0.  1.
         11    1    4    4    0    0  0.67604560929E+02 -0.27160768079E+02  0.70486535400E+02  0.10137275597E+03  0.00000000000E+00 0. -1.
        -12    1    4    4    0    0  0.12993553157E+01 -0.18461206086E+02  0.11661739837E+03  0.11807676341E+03  0.00000000000E+00 0.  1.
</event>
<event>
12    1  0.8053217E-002  0.1719458E+03  0.7818608E-02  0.1178076E+00
         21   -1    0    0  503  502  0.00000000000E+00  0.00000000000E+00  0.11503748177E+04  0.11503748177E+04  0.00000000000E+00 0.  1.
         21   -1    0    0  501  503 -0.00000000000E+00 -0.00000000000E+00 -0.15423813345E+03  0.15423813345E+03  0.00000000000E+00 0.  1.
          6    2    1    2  501    0 -0.16968439817E+02 -0.12706522075E+00 -0.10228342214E+03  0.19281616947E+03  0.16256762491E+03 0.  0.
         24    2    3    3    0    0 -0.16467211448E+01  0.35997193109E+02 -0.12061861399E+03  0.14925028416E+03  0.80176603062E+02 0.  0.
         -6    2    1    2    0  502  0.16968439817E+02  0.12706522075E+00  0.10984201064E+04  0.11117967817E+04  0.17110642759E+03 0.  0.
        -24    2    5    5    0    0  0.37286186169E+02  0.55870195533E+02  0.52926144959E+03  0.53953480147E+03  0.80426249130E+02 0.  0.
          5    1    3    3  501    0 -0.15321718673E+02 -0.36124258330E+02  0.18335191850E+02  0.43565885314E+02  0.47000000000E+01 0. -1.
        -13    1    4    4    0    0 -0.14984221035E+02 -0.20365922792E+02 -0.61465066653E+02  0.66462411255E+02  0.00000000000E+00 0.  1.
         14    1    4    4    0    0  0.13337499890E+02  0.56363115901E+02 -0.59153547334E+02  0.82787872902E+02  0.00000000000E+00 0. -1.
         -5    1    5    5    0  502 -0.20317746351E+02 -0.55743130312E+02  0.56915865683E+03  0.57226198025E+03  0.47000000000E+01 0.  1.
         13    1    6    6    0    0  0.62131865064E+02  0.33645183064E+02  0.32719922492E+03  0.33474124303E+03  0.00000000000E+00 0. -1.
        -14    1    6    6    0    0 -0.24845678895E+02  0.22225012468E+02  0.20206222467E+03  0.20479355843E+03  0.00000000000E+00 0.  1.
</event>
<event>
12    1  0.8053217E-002  0.2108142E+03  0.7818608E-02  0.1141015E+00
         21   -1    0    0  503  502  0.00000000000E+00  0.00000000000E+00  0.30282797872E+03  0.30282797872E+03  0.00000000000E+00 0.  1.
         21   -1    0    0  501  503 -0.00000000000E+00 -0.00000000000E+00 -0.14736227324E+03  0.14736227324E+03  0.00000000000E+00 0. -1.
          6    2    1    2  501    0  0.12042910083E+03  0.13805915889E+02  0.59932891993E+02  0.21916793019E+03  0.17247857386E+03 0.  0.
         24    2    3    3    0    0  0.61240036635E+02  0.40748329070E+02  0.96576811327E+02  0.14437417529E+03  0.78141241315E+02 0.  0.
         -6    2    1    2    0  502 -0.12042910083E+03 -0.13805915889E+02  0.95532813478E+02  0.23102232177E+03  0.17190411008E+03 0.  0.
        -24    2    5    5    0    0 -0.58245135611E+02  0.31779298866E+02 -0.40524648819E+01  0.10498988546E+03  0.81265207309E+02 0.  0.
          5    1    3    3  501    0  0.59189064200E+02 -0.26942413181E+02 -0.36643919334E+02  0.74793754906E+02  0.47000000000E+01 0. -1.
        -13    1    4    4    0    0 -0.66985867814E+01  0.38773435312E+02  0.35065324328E+02  0.52705097675E+02  0.00000000000E+00 0.  1.
         14    1    4    4    0    0  0.67938623416E+02  0.19748937578E+01  0.61511486999E+02  0.91669077610E+02  0.00000000000E+00 0. -1.
         -5    1    5    5    0  502 -0.62183965223E+02 -0.45585214754E+02  0.99585278360E+02  0.12603243631E+03  0.47000000000E+01 0.  1.
         13    1    6    6    0    0 -0.28812235760E+02  0.31612487320E+02  0.35570810422E+02  0.55630718476E+02  0.00000000000E+00 0. -1.
        -14    1    6    6    0    0 -0.29432899851E+02  0.16681154592E+00 -0.39623275304E+02  0.49359166986E+02  0.00000000000E+00 0.  1.
</event>
<event>
12    1  0.8053217E-002  0.2170057E+03  0.7818608E-02  0.1136312E+00
         21   -1    0    0  503  502  0.00000000000E+00  0.00000000000E+00  0.48129356862E+03  0.48129356862E+03  0.00000000000E+00 0.  1.
         21   -1    0    0  501  503 -0.00000000000E+00 -0.00000000000E+00 -0.23262349080E+03  0.23262349080E+03  0.00000000000E+00 0. -1.
          6    2    1    2  501    0  0.10647013942E+03  0.74082182178E+02 -0.14768395864E+03  0.26249196155E+03  0.17397533714E+03 0.  0.
         24    2    3    3    0    0  0.12459910793E+03  0.13996343387E+02 -0.76086541836E+02  0.16716490549E+03  0.80212894562E+02 0.  0.
         -6    2    1    2    0  502 -0.10647013942E+03 -0.74082182178E+02  0.39635403645E+03  0.45142509787E+03  0.17281214215E+03 0.  0.
        -24    2    5    5    0    0 -0.10722561055E+03  0.29723702065E+01  0.20160876046E+03  0.24193574898E+03  0.79878957153E+02 0.  0.
          5    1    3    3  501    0 -0.18128968518E+02  0.60085838791E+02 -0.71597416805E+02  0.95327056054E+02  0.47000000000E+01 0. -1.
        -11    1    4    4    0    0  0.62641743377E+02 -0.32401516037E+02 -0.27051061412E+02  0.75535463050E+02  0.00000000000E+00 0.  1.
         12    1    4    4    0    0  0.61957364556E+02  0.46397859424E+02 -0.49035480424E+02  0.91629442442E+02  0.00000000000E+00 0. -1.
         -5    1    5    5    0  502  0.75547113601E+00 -0.77054552385E+02  0.19474527599E+03  0.20948934890E+03  0.47000000000E+01 0.  1.
         13    1    6    6    0    0  0.41372723473E+00  0.24052093128E+02  0.36765008696E+02  0.43935637226E+02  0.00000000000E+00 0. -1.
        -14    1    6    6    0    0 -0.10763933779E+03 -0.21079722922E+02  0.16484375176E+03  0.19800011175E+03  0.00000000000E+00 0.  1.
</event>
<event>
12    1  0.8053217E-002  0.1959275E+03  0.7818608E-02  0.1153425E+00
         21   -1    0    0  503  502  0.00000000000E+00  0.00000000000E+00  0.11856030272E+03  0.11856030272E+03  0.00000000000E+00 0.  1.
         21   -1    0    0  501  503 -0.00000000000E+00 -0.00000000000E+00 -0.39517875338E+03  0.39517875338E+03  0.00000000000E+00 0.  1.
          6    2    1    2  501    0  0.21931360780E+02  0.89735448602E+02 -0.24894069624E+03  0.31679496195E+03  0.17278351296E+03 0.  0.
         24    2    3    3    0    0 -0.34627618782E+02  0.14720044175E+02 -0.62767427966E+02  0.10820731876E+03  0.79707729473E+02 0.  0.
         -6    2    1    2    0  502 -0.21931360780E+02 -0.89735448602E+02 -0.27677754419E+02  0.19694409415E+03  0.17171919756E+03 0.  0.
        -24    2    5    5    0    0 -0.80306220850E+01 -0.12852709817E+03 -0.23138836528E+02  0.15522222473E+03  0.83515432351E+02 0.  0.
          5    1    3    3  501    0  0.56558979562E+02  0.75015404427E+02 -0.18617326828E+03  0.20858764319E+03  0.47000000000E+01 0. -1.
        -11    1    4    4    0    0 -0.22326034523E+02 -0.85126890349E+01 -0.75360808810E+02  0.79058011590E+02  0.00000000000E+00 0.  1.
         12    1    4    4    0    0 -0.12301584258E+02  0.23232733210E+02  0.12593380844E+02  0.29149307174E+02  0.00000000000E+00 0. -1.
         -5    1    5    5    0  502 -0.13900738695E+02  0.38791649566E+02 -0.45389178915E+01  0.41721869421E+02  0.47000000000E+01 0.  1.
         13    1    6    6    0    0 -0.88761803762E+01  0.10878850480E+02 -0.31295959795E+01  0.14385073404E+02  0.00000000000E+00 0. -1.
        -14    1    6    6    0    0  0.84555829120E+00 -0.13940594865E+03 -0.20009240548E+02  0.14083715133E+03  0.00000000000E+00 0.  1.
</event>
<event>
12    1  0.8053217E-002  0.1812976E+03  0.7818608E-02  0.1166692E+00
         21   -1    0    0  501  502  0.00000000000E+00  0.00000000000E+00  0.80674628413E+03  0.80674628413E+03  0.00000000000E+00 0.  1.
         21   -1    0    0  502  503 -0.00000000000E+00 -0.00000000000E+00 -0.46958680638E+02  0.46958680638E+02  0.00000000000E+00 0.  1.
         -6    2    1    2    0  503  0.12203175812E+02 -0.46074383525E+02  0.22244440705E+03  0.28660132632E+03  0.17431878757E+03 0.  0.
        -24    2    3    3    0    0 -0.52084187041E+02 -0.56141094718E+02  0.10640800196E+03  0.15348205272E+03  0.79809100796E+02 0.  0.
          6    2    1    2  501    0 -0.12203175812E+02  0.46074383525E+02  0.53734319644E+03  0.56710363845E+03  0.17492015226E+03 0.  0.
         24    2    5    5    0    0  0.35559687072E+02  0.32846823795E+02  0.16277073081E+03  0.18923741687E+03  0.83504993595E+02 0.  0.
          5    1    5    5  501    0 -0.47762862884E+02  0.13227559731E+02  0.37457246563E+03  0.37786622159E+03  0.47000000000E+01 0. -1.
        -11    1    6    6    0    0  0.33522287561E+02 -0.18476566307E+02  0.36375910875E+02  0.52804679318E+02  0.00000000000E+00 0.  1.
         12    1    6    6    0    0  0.20373995112E+01  0.51323390102E+02  0.12639481994E+03  0.13643273755E+03  0.00000000000E+00 0. -1.
         -5    1    3    3    0  503  0.64287362852E+02  0.10066711193E+02  0.11603640510E+03  0.13311927360E+03  0.47000000000E+01 0.  1.
         11    1    4    4    0    0  0.41691153793E+00 -0.55728394692E+02  0.70534071008E+02  0.89893731501E+02  0.00000000000E+00 0. -1.
        -12    1    4    4    0    0 -0.52501098579E+02 -0.41270002560E+00  0.35873930947E+02  0.63588321214E+02  0.00000000000E+00 0.  1.
</event>
<event>
12    1  0.8053217E-002  0.2030630E+03  0.7818608E-02  0.1147483E+00
         21   -1    0    0  501  502  0.00000000000E+00  0.00000000000E+00  0.23351151915E+03  0.23351151915E+03  0.00000000000E+00 0.  1.
         21   -1    0    0  502  503 -0.00000000000E+00 -0.00000000000E+00 -0.24826088294E+03  0.24826088294E+03  0.00000000000E+00 0. -1.
         -6    2    1    2    0  503 -0.57603943426E+02  0.85698468952E+02 -0.13796216004E+03  0.24549568751E+03  0.17484888647E+03 0.  0.
        -24    2    3    3    0    0 -0.10360903298E+03  0.86104470128E+02 -0.10827939625E+03  0.19054307548E+03  0.80208630894E+02 0.  0.
          6    2    1    2  501    0  0.57603943426E+02 -0.85698468952E+02  0.12321279625E+03  0.23627671457E+03  0.17315556823E+03 0.  0.
         24    2    5    5    0    0 -0.29248209874E+02 -0.95759852349E+01  0.66171612553E+02  0.10738251107E+03  0.78772863987E+02 0.  0.
          5    1    5    5  501    0  0.86852153301E+02 -0.76122483717E+02  0.57041183701E+02  0.12889420351E+03  0.47000000000E+01 0. -1.
        -13    1    6    6    0    0  0.57846898220E+01  0.59039915401E+01  0.68513618143E+02  0.69010402285E+02  0.00000000000E+00 0.  1.
         14    1    6    6    0    0 -0.35032899696E+02 -0.15479976775E+02 -0.23420055901E+01  0.38372108781E+02  0.00000000000E+00 0. -1.
         -5    1    3    3    0  503  0.46005089556E+02 -0.40600117592E+00 -0.29682763793E+02  0.54952612026E+02  0.47000000000E+01 0.  1.
         11    1    4    4    0    0 -0.60348963963E+02  0.95022237973E+02 -0.75562866531E+02  0.13557643586E+03  0.00000000000E+00 0. -1.
        -12    1    4    4    0    0 -0.43260069019E+02 -0.89177678449E+01 -0.32716529719E+02  0.54966639626E+02  0.00000000000E+00 0.  1.
</event>
<event>
12    1  0.8053217E-002  0.4499498E+03  0.7818608E-02  0.1027765E+00
         21   -1    0    0  503  502  0.00000000000E+00  0.00000000000E+00  0.22871852671E+03  0.22871852671E+03  0.00000000000E+00 0.  1.
         21   -1    0    0  501  503 -0.00000000000E+00 -0.00000000000E+00 -0.98976584354E+03  0.98976584354E+03  0.00000000000E+00 0. -1.
          6    2    1    2  501    0  0.41541916000E+03  0.55952724629E+01 -0.57943024757E+03  0.73361724302E+03  0.17277286214E+03 0.  0.
         24    2    3    3    0    0  0.21984664980E+03 -0.35151741364E+01 -0.42152215846E+03  0.48204486459E+03  0.79633005252E+02 0.  0.
         -6    2    1    2    0  502 -0.41541916000E+03 -0.55952724629E+01 -0.18161706926E+03  0.48486712723E+03  0.17177597520E+03 0.  0.
        -24    2    5    5    0    0 -0.32233174609E+03 -0.64323602507E+02 -0.14764186131E+03  0.36958188042E+03  0.82203203976E+02 0.  0.
          5    1    3    3  501    0  0.19557251020E+03  0.91104465993E+01 -0.15790808910E+03  0.25157237843E+03  0.47000000000E+01 0. -1.
        -11    1    4    4    0    0  0.84330280217E+01  0.13885891066E+02 -0.10029092559E+02  0.19092318609E+02  0.00000000000E+00 0.  1.
         12    1    4    4    0    0  0.21141362177E+03 -0.17401065203E+02 -0.41149306591E+03  0.46295254598E+03  0.00000000000E+00 0. -1.
         -5    1    5    5    0  502 -0.93087413912E+02  0.58728330044E+02 -0.33975207950E+02  0.11528524682E+03  0.47000000000E+01 0.  1.
         11    1    6    6    0    0 -0.14207654520E+03 -0.68834859642E+02 -0.80141561754E+02  0.17704985885E+03  0.00000000000E+00 0. -1.
        -12    1    6    6    0    0 -0.18025520089E+03  0.45112571349E+01 -0.67500299561E+02  0.19253202157E+03  0.00000000000E+00 0.  1.
</event>
<event>
12    1  0.8053217E-002  0.1761314E+03  0.7818608E-02  0.1172233E+00
         21   -1    0    0  501  502  0.00000000000E+00  0.00000000000E+00  0.22613271732E+03  0.22613271732E+03  0.00000000000E+00 0.  1.
         21   -1    0    0  502  503 -0.00000000000E+00 -0.00000000000E+00 -0.16185325819E+03  0.16185325819E+03  0.00000000000E+00 0.  1.
         -6    2    1    2    0  503 -0.13314936595E+01 -0.36745253700E+02  0.11062244800E+03  0.20585980786E+03  0.16967306193E+03 0.  0.
        -24    2    3    3    0    0 -0.11716889666E+02 -0.69828911247E+02  0.20833793218E+02  0.10949343730E+03  0.80878943630E+02 0.  0.
          6    2    1    2  501    0  0.13314936595E+01  0.36745253700E+02 -0.46342988865E+02  0.18212616765E+03  0.17225063652E+03 0.  0.
         24    2    5    5    0    0 -0.47716716003E+02 -0.13262184422E+02 -0.89516129983E+00  0.98495636333E+02  0.85134120899E+02 0.  0.
          5    1    5    5  501    0  0.49048209662E+02  0.50007438122E+02 -0.45447827565E+02  0.83630531321E+02  0.47000000000E+01 0. -1.
        -11    1    6    6    0    0 -0.10252434233E+00 -0.22733410413E+02 -0.33160112903E+02  0.40204620978E+02  0.00000000000E+00 0.  1.
         12    1    6    6    0    0 -0.47614191661E+02  0.94712259908E+01  0.32264951603E+02  0.58291015356E+02  0.00000000000E+00 0. -1.
         -5    1    3    3    0  503  0.10385396006E+02  0.33083657547E+02  0.89788654779E+02  0.96366370555E+02  0.47000000000E+01 0.  1.
         13    1    4    4    0    0 -0.38498904158E+02 -0.78629195699E+01  0.13691388158E+02  0.41610638486E+02  0.00000000000E+00 0. -1.
        -14    1    4    4    0    0  0.26782014493E+02 -0.61965991677E+02  0.71424050606E+01  0.67882798814E+02  0.00000000000E+00 0.  1.
</event>
<event>
12    1  0.8053217E-002  0.2141148E+03  0.7818608E-02  0.1139879E+00
         21   -1    0    0  501  502  0.00000000000E+00  0.00000000000E+00  0.67890236430E+02  0.67890236430E+02  0.00000000000E+00 0.  1.
         21   -1    0    0  502  503 -0.00000000000E+00 -0.00000000000E+00 -0.68570819709E+03  0.68570819709E+03  0.00000000000E+00 0. -1.
         -6    2    1    2    0  503  0.91834624568E+02  0.70256500249E+02 -0.39909360649E+03  0.45290267872E+03  0.18020975434E+03 0.  0.
        -24    2    3    3    0    0  0.11455988541E+03  0.10246848688E+03 -0.34306136016E+03  0.38423134416E+03  0.79491325616E+02 0.  0.
          6    2    1    2  501    0 -0.91834624568E+02 -0.70256500249E+02 -0.21872435417E+03  0.30069575480E+03  0.17090353931E+03 0.  0.
         24    2    5    5    0    0 -0.49015480656E+02 -0.98892197907E+02 -0.79400945275E+02  0.15208019527E+03  0.68129960610E+02 0.  0.
          5    1    5    5  501    0 -0.42819143912E+02  0.28635697659E+02 -0.13932340890E+03  0.14861555952E+03  0.47000000000E+01 0. -1.
        -11    1    6    6    0    0  0.14629828407E+02 -0.39808587492E+02 -0.20184757852E+02  0.46969990067E+02  0.00000000000E+00 0.  1.
         12    1    6    6    0    0 -0.63645309064E+02 -0.59083610416E+02 -0.59216187423E+02  0.10511020521E+03  0.00000000000E+00 0. -1.
         -5    1    3    3    0  503 -0.22725260838E+02 -0.32211986632E+02 -0.56032246324E+02  0.68671334565E+02  0.47000000000E+01 0.  1.
         11    1    4    4    0    0  0.74951994200E+02  0.14919757914E+02 -0.16695554723E+03  0.18361523728E+03  0.00000000000E+00 0. -1.
        -12    1    4    4    0    0  0.39607891206E+02  0.87548728967E+02 -0.17610581293E+03  0.20061610687E+03  0.00000000000E+00 0.  1.
</event>
<event>
12    1  0.8053217E-002  0.1996715E+03  0.7818608E-02  0.1151245E+00
         21   -1    0    0  501  502  0.00000000000E+00  0.00000000000E+00  0.17510249185E+03  0.17510249185E+03  0.00000000000E+00 0.  1.
         21   -1    0    0  502  503 -0.00000000000E+00 -0.00000000000E+00 -0.41826574588E+03  0.41826574588E+03  0.00000000000E+00 0.  1.
         -6    2    1    2    0  503  0.79333099304E+02  0.64295304178E+02 -0.32427604581E+03  0.37785022964E+03  0.16488849374E+03 0.  0.
        -24    2    3    3    0    0 -0.51540686194E+01  0.47280146059E+02 -0.23626415694E+03  0.25457906622E+03  0.82022999616E+02 0.  0.
          6    2    1    2  501    0 -0.79333099304E+02 -0.64295304178E+02  0.81112791776E+02  0.21551800809E+03  0.17158409028E+03 0.  0.
         24    2    5    5    0    0 -0.22420752876E+02 -0.97718820510E+02  0.79206092932E+02  0.14932229735E+03  0.77277974133E+02 0.  0.
          5    1    5    5  501    0 -0.56912346428E+02  0.33423516332E+02  0.19066988441E+01  0.66195710740E+02  0.47000000000E+01 0. -1.
        -11    1    6    6    0    0 -0.34537572312E+02 -0.31794196773E+02  0.66020552339E+02  0.81008815450E+02  0.00000000000E+00 0.  1.
         12    1    6    6    0    0  0.12116819436E+02 -0.65924623737E+02  0.13185540593E+02  0.68313481897E+02  0.00000000000E+00 0. -1.
         -5    1    3    3    0  503  0.84487167923E+02  0.17015158119E+02 -0.88011888862E+02  0.12327116342E+03  0.47000000000E+01 0.  1.
         11    1    4    4    0    0 -0.29100164842E+02  0.45134477476E+02 -0.79228206088E+02  0.95713370492E+02  0.00000000000E+00 0. -1.
        -12    1    4    4    0    0  0.23946096223E+02  0.21456685824E+01 -0.15703595085E+03  0.15886569573E+03  0.00000000000E+00 0.  1.
</event>
<event>
12    1  0.8053217E-002  0.2635341E+03  0.7818608E-02  0.1105133E+00
         21   -1    0    0  503  502  0.00000000000E+00  0.00000000000E+00  0.14837035644E+03  0.14837035644E+03  0.00000000000E+00 0. -1.
         21   -1    0    0  501  503 -0.00000000000E+00 -0.00000000000E+00 -0.50948215015E+03  0.50948215015E+03  0.00000000000E+00 0.  1.
          6    2    1    2  501    0  0.17685320721E+03  0.92379526561E+02 -0.85714587375E+02  0.27712314256E+03  0.17216042468E+03 0.  0.
         24    2    3    3    0    0  0.15567006811E+03  0.81962694121E+02 -0.12616414329E+03  0.23005412564E+03  0.77823237787E+02 0.  0.
         -6    2    1    2    0  502 -0.17685320721E+03 -0.92379526561E+02 -0.27539720633E+03  0.38072936403E+03  0.17117299306E+03 0.  0.
        -24    2    5    5    0    0 -0.10949789549E+03 -0.11279565271E+03 -0.24972722918E+03  0.30566543161E+03  0.79718371163E+02 0.  0.
          5    1    3    3  501    0  0.21183139098E+02  0.10416832439E+02  0.40449555912E+02  0.47069016917E+02  0.47000000000E+01 0. -1.
        -13    1    4    4    0    0  0.67854741938E+02  0.35813227207E+02 -0.10126881972E+02  0.77391259099E+02  0.00000000000E+00 0.  1.
         14    1    4    4    0    0  0.87815326175E+02  0.46149466915E+02 -0.11603726131E+03  0.15266286654E+03  0.00000000000E+00 0. -1.
         -5    1    5    5    0  502 -0.67355311717E+02  0.20416126148E+02 -0.25669977146E+02  0.75063932418E+02  0.47000000000E+01 0.  1.
         11    1    6    6    0    0  0.36750287903E+01 -0.42910909003E+02 -0.55257796455E+02  0.70059089468E+02  0.00000000000E+00 0. -1.
        -12    1    6    6    0    0 -0.11317292428E+03 -0.69884743705E+02 -0.19446943273E+03  0.23560634215E+03  0.00000000000E+00 0.  1.
</event>
<event>
12    1  0.8053217E-002  0.1787336E+03  0.7818608E-02  0.1169512E+00
         21   -1    0    0  501  502  0.00000000000E+00  0.00000000000E+00  0.11349679677E+04  0.11349679677E+04  0.00000000000E+00 0. -1.
         21   -1    0    0  502  503 -0.00000000000E+00 -0.00000000000E+00 -0.43254481094E+02  0.43254481094E+02  0.00000000000E+00 0.  1.
         -6    2    1    2    0  503 -0.41622812007E+02  0.24276560909E+02  0.19227800292E+03  0.26120014655E+03  0.17009666741E+03 0.  0.
        -24    2    3    3    0    0  0.25495464644E+02  0.51622396705E+02  0.14832223550E+03  0.17630693548E+03  0.75958932304E+02 0.  0.
          6    2    1    2  501    0  0.41622812007E+02 -0.24276560909E+02  0.89943548370E+03  0.91702230226E+03  0.17211595976E+03 0.  0.
         24    2    5    5    0    0 -0.11940600163E+02  0.44778504544E+02  0.57782303056E+03  0.58371418473E+03  0.68520817391E+02 0.  0.
          5    1    5    5  501    0  0.53563412170E+02 -0.69055065454E+02  0.32161245315E+03  0.33330811752E+03  0.47000000000E+01 0. -1.
        -11    1    6    6    0    0 -0.34356987168E+02  0.13208218278E+02  0.40182720536E+03  0.40350955697E+03  0.00000000000E+00 0.  1.
         12    1    6    6    0    0  0.22416387005E+02  0.31570286266E+02  0.17599582519E+03  0.18020462776E+03  0.00000000000E+00 0. -1.
         -5    1    3    3    0  503 -0.67118276651E+02 -0.27345835796E+02  0.43955767415E+02  0.84893211065E+02  0.47000000000E+01 0.  1.
         11    1    4    4    0    0  0.29597279728E+01 -0.13663641445E-01  0.10549748419E+03  0.10553899443E+03  0.00000000000E+00 0. -1.
        -12    1    4    4    0    0  0.22535736671E+02  0.51636060346E+02  0.42824751316E+02  0.70767941051E+02  0.00000000000E+00 0.  1.
</event>
<event>
12    1  0.8053217E-002  0.1800691E+03  0.7818608E-02  0.1167928E+00
         21   -1    0    0  503  502  0.00000000000E+00  0.00000000000E+00  0.85233766265E+02  0.85233766265E+02  0.00000000000E+00 0.  1.
         21   -1    0    0  501  503 -0.00000000000E+00 -0.00000000000E+00 -0.79724271478E+03  0.79724271478E+03  0.00000000000E+00 0.  1.
          6    2    1    2  501    0  0.38724134965E+02  0.38082853263E+02 -0.67531451918E+03  0.69870661048E+03  0.17085480790E+03 0.  0.
         24    2    3    3    0    0  0.96652176557E+01 -0.64943336653E+01 -0.14096742409E+03  0.16169594551E+03  0.78346482612E+02 0.  0.
         -6    2    1    2    0  502 -0.38724134965E+02 -0.38082853263E+02 -0.36694429335E+02  0.18376987056E+03  0.17168291074E+03 0.  0.
        -24    2    5    5    0    0 -0.54776957641E+02 -0.61563869529E+02  0.22910836335E+02  0.11755862577E+03  0.80650473966E+02 0.  0.
          5    1    3    3  501    0  0.29058917310E+02  0.44577186928E+02 -0.53434709509E+03  0.53701066497E+03  0.47000000000E+01 0. -1.
        -11    1    4    4    0    0 -0.21067888911E+02  0.16364649232E+02 -0.16266113764E+02  0.31244905899E+02  0.00000000000E+00 0.  1.
         12    1    4    4    0    0  0.30733106567E+02 -0.22858982897E+02 -0.12470131033E+03  0.13045103961E+03  0.00000000000E+00 0. -1.
         -5    1    5    5    0  502  0.16052822676E+02  0.23481016266E+02 -0.59605265671E+02  0.66211244789E+02  0.47000000000E+01 0.  1.
         11    1    6    6    0    0  0.72567849414E+01 -0.36243293369E+02 -0.15777019258E+02  0.40188948463E+02  0.00000000000E+00 0. -1.
        -12    1    6    6    0    0 -0.62033742582E+02 -0.25320576161E+02  0.38687855593E+02  0.77369677305E+02  0.00000000000E+00 0.  1.
</event>
<event>
12    1  0.8053217E-002  0.1726930E+03  0.7818608E-02  0.1175105E+00
         21   -1    0    0  503  502  0.00000000000E+00  0.00000000000E+00  0.48046773064E+02  0.48046773064E+02  0.00000000000E+00 0.  1.
         21   -1    0    0  501  503 -0.00000000000E+00 -0.00000000000E+00 -0.83967414703E+03  0.83967414703E+03  0.00000000000E+00 0.  1.
          6    2    1    2  501    0  0.17577744039E+02  0.30818596008E+01 -0.62286486251E+03  0.64636174898E+03  0.17176844487E+03 0.  0.
         24    2    3    3    0    0 -0.28138554115E+02 -0.17718737771E+02 -0.55453083664E+03  0.56142486736E+03  0.81164653703E+02 0.  0.
         -6    2    1    2    0  502 -0.17577744039E+02 -0.30818596008E+01 -0.16876251146E+03  0.24135917112E+03  0.17162455903E+03 0.  0.
        -24    2    5    5    0    0  0.23433350814E+01 -0.53901034545E+02 -0.45402264072E+02  0.10638036326E+03  0.79653018521E+02 0.  0.
          5    1    3    3  501    0  0.45716298154E+02  0.20800597372E+02 -0.68334025869E+02  0.84936881620E+02  0.47000000000E+01 0. -1.
        -11    1    4    4    0    0 -0.28856382552E+02  0.26842613207E+02 -0.18076487757E+03  0.18501123658E+03  0.00000000000E+00 0.  1.
         12    1    4    4    0    0  0.71782843701E+00 -0.44561350978E+02 -0.37376595907E+03  0.37641363078E+03  0.00000000000E+00 0. -1.
         -5    1    5    5    0  502 -0.19921079120E+02  0.50819174944E+02 -0.12336024739E+03  0.13497880786E+03  0.47000000000E+01 0.  1.
         13    1    6    6    0    0  0.38285954875E+01 -0.56976072929E+02 -0.64980445450E+02  0.86506585418E+02  0.00000000000E+00 0. -1.
        -14    1    6    6    0    0 -0.14852604061E+01  0.30750383836E+01  0.19578181378E+02  0.19873777839E+02  0.00000000000E+00 0.  1.
</event>
<event>
12    1  0.8053217E-002  0.3413095E+03  0.7818608E-02  0.1066306E+00
         21   -1    0    0  503  502  0.00000000000E+00  0.00000000000E+00  0.71919198461E+03  0.71919198461E+03  0.00000000000E+00 0.  1.
         21   -1    0    0  501  503 -0.00000000000E+00 -0.00000000000E+00 -0.20006558856E+03  0.20006558856E+03  0.00000000000E+00 0. -1.
          6    2    1    2  501    0 -0.29209108344E+03  0.39262443393E+02  0.58428403505E+02  0.34627457753E+03  0.17214373128E+03 0.  0.
         24    2    3    3    0    0 -0.26148556111E+03  0.84840670776E+02  0.43903414984E+02  0.28929091232E+03  0.78670731665E+02 0.  0.
         -6    2    1    2    0  502  0.29209108344E+03 -0.39262443393E+02  0.46069799255E+03  0.57298299564E+03  0.17090386908E+03 0.  0.
        -24    2    5    5    0    0  0.24277584969E+03 -0.36175044936E+02  0.25439468303E+03  0.36079282191E+03  0.72153021548E+02 0.  0.
          5    1    3    3  501    0 -0.30605522331E+02 -0.45578227383E+02  0.14524988521E+02  0.56983665204E+02  0.47000000000E+01 0. -1.
        -11    1    4    4    0    0 -0.21750082933E+02  0.34782690081E+02  0.54113726007E+01  0.41378552298E+02  0.00000000000E+00 0.  1.
         12    1    4    4    0    0 -0.23973547817E+03  0.50057980695E+02  0.38492042383E+02  0.24791236003E+03  0.00000000000E+00 0. -1.
         -5    1    5    5    0  502  0.49315233749E+02 -0.30873984569E+01  0.20630330951E+03  0.21219017372E+03  0.47000000000E+01 0.  1.
         11    1    6    6    0    0  0.76114576610E+02  0.19891667357E+02  0.62137724445E+02  0.10025070574E+03  0.00000000000E+00 0. -1.
        -12    1    6    6    0    0  0.16666127308E+03 -0.56066712293E+02  0.19225695859E+03  0.26054211617E+03  0.00000000000E+00 0.  1.
</event>
<event>
12    1  0.8053217E-002  0.1780704E+03  0.7818608E-02  0.1170321E+00
         21   -1    0    0  503  502  0.00000000000E+00  0.00000000000E+00  0.12980475365E+04  0.12980475365E+04  0.00000000000E+00 0.  1.
         21   -1    0    0  501  503 -0.00000000000E+00 -0.00000000000E+00 -0.24101523966E+02  0.24101523966E+02  0.00000000000E+00 0.  1.
          6    2    1    2  501    0 -0.46303378932E+02 -0.84820377526E+01  0.62021851614E+03  0.64527517974E+03  0.17173555825E+03 0.  0.
         24    2    3    3    0    0 -0.52566846320E+02 -0.24865140712E+02  0.61928355129E+03  0.62709273641E+03  0.79697142982E+02 0.  0.
         -6    2    1    2    0  502  0.46303378932E+02  0.84820377526E+01  0.65372749643E+03  0.67687388075E+03  0.16906407956E+03 0.  0.
        -24    2    5    5    0    0 -0.32733515835E+02  0.28313327033E+02  0.27993703376E+03  0.29427551334E+03  0.79750908041E+02 0.  0.
          5    1    3    3  501    0  0.62634673883E+01  0.16383102960E+02  0.93496484343E+00  0.18182443333E+02  0.47000000000E+01 0. -1.
        -11    1    4    4    0    0 -0.27334012405E+02  0.11769533284E+02  0.70695856068E+02  0.76704460191E+02  0.00000000000E+00 0.  1.
         12    1    4    4    0    0 -0.25232833915E+02 -0.36634673996E+02  0.54858769523E+03  0.55038827622E+03  0.00000000000E+00 0. -1.
         -5    1    5    5    0  502  0.79036894767E+02 -0.19831289280E+02  0.37379046266E+03  0.38259836741E+03  0.47000000000E+01 0.  1.
         11    1    6    6    0    0 -0.38348994531E+02  0.49928782888E+02  0.24377364633E+03  0.25177195909E+03  0.00000000000E+00 0. -1.
        -12    1    6    6    0    0  0.56154786958E+01 -0.21615455855E+02  0.36163387437E+02  0.42503554248E+02  0.00000000000E+00 0.  1.
</event>
<event>
12    1  0.8053217E-002  0.2100293E+03  0.7818608E-02  0.1142374E+00
         21   -1    0    0  501  502  0.00000000000E+00  0.00000000000E+00  0.69642681023E+03  0.69642681023E+03  0.00000000000E+00 0.  1.
         21   -1    0    0  502  503 -0.00000000000E+00 -0.00000000000E+00 -0.83259378961E+02  0.83259378961E+02  0.00000000000E+00 0.  1.
         -6    2    1    2    0  503 -0.63980453431E+02 -0.10368553081E+03  0.10775427977E+03  0.23237022325E+03  0.16595405426E+03 0.  0.
        -24    2    3    3    0    0 -0.58452432297E+02 -0.13524589138E+03  0.68786516401E+02  0.18170275875E+03  0.81093586187E+02 0.  0.
          6    2    1    2  501    0  0.63980453431E+02  0.10368553081E+03  0.50541315150E+03  0.54731596594E+03  0.17107929491E+03 0.  0.
         24    2    5    5    0    0  0.63465015243E+02  0.31764862633E+02  0.19061922877E+03  0.22437610781E+03  0.94721342468E+02 0.  0.
          5    1    5    5  501    0  0.51543818866E+00  0.71920668172E+02  0.31479392273E+03  0.32293985814E+03  0.47000000000E+01 0. -1.
        -11    1    6    6    0    0  0.79885566294E+02 -0.27886328907E+01  0.12322313840E+03  0.14687893659E+03  0.00000000000E+00 0.  1.
         12    1    6    6    0    0 -0.16420551052E+02  0.34553495524E+02  0.67396090369E+02  0.77497171218E+02  0.00000000000E+00 0. -1.
         -5    1    3    3    0  503 -0.55280211345E+01  0.31560360574E+02  0.38967763368E+02  0.50667464503E+02  0.47000000000E+01 0.  1.
         11    1    4    4    0    0 -0.39390215227E+02 -0.34907846143E+02  0.59058409598E+02  0.79107790528E+02  0.00000000000E+00 0. -1.
        -12    1    4    4    0    0 -0.19062217069E+02 -0.10033804524E+03  0.97281068028E+01  0.10259496822E+03  0.00000000000E+00 0.  1.
</event>
<event>
12    1  0.8053217E-002  0.3468756E+03  0.7818608E-02  0.1063906E+00
         21   -1    0    0  501  502  0.00000000000E+00  0.00000000000E+00  0.28338586766E+03  0.28338586766E+03  0.00000000000E+00 0.  1.
         21   -1    0    0  502  503 -0.00000000000E+00 -0.00000000000E+00 -0.99837900524E+03  0.99837900524E+03  0.00000000000E+00 0. -1.
         -6    2    1    2    0  503  0.25778220622E+03  0.15557590936E+03 -0.84335570982E+03  0.91190050526E+03  0.17221541391E+03 0.  0.
        -24    2    3    3    0    0  0.27488739988E+03  0.14030514878E+03 -0.81555006674E+03  0.87555456235E+03  0.78900335312E+02 0.  0.
          6    2    1    2  501    0 -0.25778220622E+03 -0.15557590936E+03  0.12836257223E+03  0.36986436764E+03  0.17224160672E+03 0.  0.
         24    2    5    5    0    0 -0.18534770308E+03 -0.14754371644E+03  0.36828444058E+02  0.25276671613E+03  0.80073461235E+02 0.  0.
          5    1    5    5  501    0 -0.72434503144E+02 -0.80321929191E+01  0.91534128177E+02  0.11709765151E+03  0.47000000000E+01 0. -1.
        -13    1    6    6    0    0 -0.12916310601E+03 -0.79216417486E+02  0.57257246093E+02  0.16197759408E+03  0.00000000000E+00 0.  1.
         14    1    6    6    0    0 -0.56184597068E+02 -0.68327298956E+02 -0.20428802036E+02  0.90789122052E+02  0.00000000000E+00 0. -1.
         -5    1    3    3    0  503 -0.17105193656E+02  0.15270760577E+02 -0.27805643076E+02  0.36345942903E+02  0.47000000000E+01 0.  1.
         13    1    4    4    0    0  0.16454373522E+02  0.24999904936E+02 -0.13933548917E+03  0.14251357899E+03  0.00000000000E+00 0. -1.
        -14    1    4    4    0    0  0.25843302635E+03  0.11530524385E+03 -0.67621457757E+03  0.73304098336E+03  0.00000000000E+00 0.  1.
</event>
<event>
12    1  0.8053217E-002  0.3039208E+03  0.7818608E-02  0.1083747E+00
         21   -1    0    0  501  502  0.00000000000E+00  0.00000000000E+00  0.51139186094E+03  0.51139186094E+03  0.00000000000E+00 0.  1.
         21   -1    0    0  502  503 -0.00000000000E+00 -0.00000000000E+00 -0.18582277330E+03  0.18582277330E+03  0.00000000000E+00 0. -1.
         -6    2    1    2    0  503  0.14178337175E+03  0.20032989328E+03  0.92478155724E+02  0.31420130969E+03  0.17301925639E+03 0.  0.
        -24    2    3    3    0    0  0.30843487943E+02  0.67023699813E+02 -0.11293178814E+02  0.11204102945E+03  0.83559316103E+02 0.  0.
          6    2    1    2  501    0 -0.14178337175E+03 -0.20032989328E+03  0.23309093192E+03  0.38301332455E+03  0.17925745060E+03 0.  0.
         24    2    5    5    0    0 -0.62347879622E+01 -0.76730460726E+02  0.44670952220E+02  0.12000302619E+03  0.80490969300E+02 0.  0.
          5    1    5    5  501    0 -0.13554858379E+03 -0.12359943255E+03  0.18841997970E+03  0.26301029836E+03  0.47000000000E+01 0. -1.
        -11    1    6    6    0    0 -0.67005429220E+01 -0.93061781206E+02  0.29896515520E+02  0.97975476712E+02  0.00000000000E+00 0.  1.
         12    1    6    6    0    0  0.46575495972E+00  0.16331320480E+02  0.14774436700E+02  0.22027549481E+02  0.00000000000E+00 0. -1.
         -5    1    3    3    0  503  0.11093988381E+03  0.13330619347E+03  0.10377133454E+03  0.20216028024E+03  0.47000000000E+01 0.  1.
         13    1    4    4    0    0  0.47585959707E+02  0.74843321454E+02 -0.21036833411E+02  0.91150944524E+02  0.00000000000E+00 0. -1.
        -14    1    4    4    0    0 -0.16742471764E+02 -0.78196216408E+01  0.97436545968E+01  0.20890084928E+02  0.00000000000E+00 0.  1.
</event>
<event>
12    1  0.8053217E-002  0.2266993E+03  0.7818608E-02  0.1129123E+00
         21   -1    0    0  501  502  0.00000000000E+00  0.00000000000E+00  0.28648195386E+03  0.28648195386E+03  0.00000000000E+00 0. -1.
         21   -1    0    0  502  503 -0.00000000000E+00 -0.00000000000E+00 -0.19543922877E+03  0.19543922877E+03  0.00000000000E+00 0. -1.
         -6    2    1    2    0  503 -0.14510131015E+03  0.25123731674E+02 -0.24892293054E+02  0.22729695370E+03  0.17134376793E+03 0.  0.
        -24    2    3    3    0    0 -0.44495335816E+02  0.22786660041E+02 -0.70071734647E+02  0.11688728059E+03  0.79079210807E+02 0.  0.
          6    2    1    2  501    0  0.14510131015E+03 -0.25123731674E+02  0.11593501814E+03  0.25462422892E+03  0.17235712176E+03 0.  0.
         24    2    5    5    0    0  0.14166990441E+03  0.20650520518E+02  0.44139778204E+02  0.16927961464E+03  0.78806485118E+02 0.  0.
          5    1    5    5  501    0  0.34314057310E+01 -0.45774252192E+02  0.71795239940E+02  0.85344614283E+02  0.47000000000E+01 0. -1.
        -11    1    6    6    0    0  0.14632750746E+03  0.55016215908E+01  0.33570160517E+02  0.15022970065E+03  0.00000000000E+00 0.  1.
         12    1    6    6    0    0 -0.46576030461E+01  0.15148898928E+02  0.10569617687E+02  0.19049913987E+02  0.00000000000E+00 0. -1.
         -5    1    3    3    0  503 -0.10060597433E+03  0.23370716329E+01  0.45179441593E+02  0.11040967311E+03  0.47000000000E+01 0.  1.
         11    1    4    4    0    0 -0.63422437640E+02  0.28129616678E+02 -0.37573469571E+02  0.78901499012E+02  0.00000000000E+00 0. -1.
        -12    1    4    4    0    0  0.18927101824E+02 -0.53429566372E+01 -0.32498265076E+02  0.37985781578E+02  0.00000000000E+00 0.  1.
</event>
<event>
12    1  0.8053217E-002  0.1991332E+03  0.7818608E-02  0.1150502E+00
         21   -1    0    0  501  502  0.00000000000E+00  0.00000000000E+00  0.41782136685E+03  0.41782136685E+03  0.00000000000E+00 0.  1.
         21   -1    0    0  502  503 -0.00000000000E+00 -0.00000000000E+00 -0.10348484831E+03  0.10348484831E+03  0.00000000000E+00 0. -1.
         -6    2    1    2    0  503  0.36602973546E+02 -0.92863284472E+02  0.23255802212E+03  0.30616541046E+03  0.17230977231E+03 0.  0.
        -24    2    3    3    0    0  0.88723032061E+02 -0.50739107148E+02  0.12352756631E+03  0.17810028207E+03  0.77552675153E+02 0.  0.
          6    2    1    2  501    0 -0.36602973546E+02  0.92863284472E+02  0.81778496420E+02  0.21514080470E+03  0.17214667029E+03 0.  0.
         24    2    5    5    0    0 -0.64105357499E+02  0.10800647166E+03  0.27530031858E+02  0.15228634464E+03  0.81598611080E+02 0.  0.
          5    1    5    5  501    0  0.27502383954E+02 -0.15143187187E+02  0.54248464562E+02  0.62854460054E+02  0.47000000000E+01 0. -1.
        -13    1    6    6    0    0  0.13108401735E+01  0.39826582324E+02  0.40613922122E+02  0.56897852611E+02  0.00000000000E+00 0.  1.
         14    1    6    6    0    0 -0.65416197673E+02  0.68179889336E+02 -0.13083890264E+02  0.95388492032E+02  0.00000000000E+00 0. -1.
         -5    1    3    3    0  503 -0.52120058515E+02 -0.42124177324E+02  0.10903045581E+03  0.12806512839E+03  0.47000000000E+01 0.  1.
         13    1    4    4    0    0  0.48482587759E+02  0.53599675951E+01  0.17995677821E+02  0.51991681918E+02  0.00000000000E+00 0. -1.
        -14    1    4    4    0    0  0.40240444302E+02 -0.56099074743E+02  0.10553188849E+03  0.12610860016E+03  0.00000000000E+00 0.  1.
</event>
<event>
12    1  0.8053217E-002  0.2217743E+03  0.7818608E-02  0.1133932E+00
         21   -1    0    0  501  502  0.00000000000E+00  0.00000000000E+00  0.13507623601E+03  0.13507623601E+03  0.00000000000E+00 0.  1.
         21   -1    0    0  502  503 -0.00000000000E+00 -0.00000000000E+00 -0.85037702861E+03  0.85037702861E+03  0.00000000000E+00 0.  1.
         -6    2    1    2    0  503 -0.64055733114E+02  0.11143512578E+03 -0.73225966214E+03  0.76303148919E+03  0.17173210679E+03 0.  0.
        -24    2    3    3    0    0  0.21066403271E+02  0.93012060265E+02 -0.50208123624E+03  0.51688237749E+03  0.77374334691E+02 0.  0.
          6    2    1    2  501    0  0.64055733114E+02 -0.11143512578E+03  0.16958869536E+02  0.22242177544E+03  0.18072885417E+03 0.  0.
         24    2    5    5    0    0  0.10578957539E+03 -0.49840244517E+02 -0.14282092740E+02  0.14159027964E+03  0.78538811302E+02 0.  0.
          5    1    5    5  501    0 -0.41733842277E+02 -0.61594881262E+02  0.31240962277E+02  0.80831495797E+02  0.47000000000E+01 0. -1.
        -11    1    6    6    0    0  0.61188300669E+02 -0.84675161118E+01 -0.42041264261E+02  0.74720645531E+02  0.00000000000E+00 0.  1.
         12    1    6    6    0    0  0.44601274721E+02 -0.41372728405E+02  0.27759171521E+02  0.66869634110E+02  0.00000000000E+00 0. -1.
         -5    1    3    3    0  503 -0.85122136385E+02  0.18423065514E+02 -0.23017842589E+03  0.24614911170E+03  0.47000000000E+01 0.  1.
         11    1    4    4    0    0  0.32292979459E+02  0.60552012874E+01 -0.96753499010E+02  0.10217994693E+03  0.00000000000E+00 0. -1.
        -12    1    4    4    0    0 -0.11226576188E+02  0.86956858977E+02 -0.40532773723E+03  0.41470243055E+03  0.00000000000E+00 0.  1.
</event>
<event>
12    1  0.8053217E-002  0.2289813E+03  0.7818608E-02  0.1127716E+00
         21   -1    0    0  503  502  0.00000000000E+00  0.00000000000E+00  0.56083790251E+02  0.56083790251E+02  0.00000000000E+00 0. -1.
         21   -1    0    0  501  503 -0.00000000000E+00 -0.00000000000E+00 -0.11003050073E+04  0.11003050073E+04  0.00000000000E+00 0. -1.
          6    2    1    2  501    0  0.14287642887E+03  0.53377298189E+02 -0.75371319825E+03  0.78772840268E+03  0.17079122131E+03 0.  0.
         24    2    3    3    0    0  0.18204306327E+02  0.51474742608E+01 -0.16905872579E+03  0.18796828711E+03  0.79958307467E+02 0.  0.
         -6    2    1    2    0  502 -0.14287642887E+03 -0.53377298189E+02 -0.29050801883E+03  0.36866039491E+03  0.16808559688E+03 0.  0.
        -24    2    5    5    0    0 -0.72407009308E+02  0.24782674219E+02 -0.20427290654E+03  0.23252257881E+03  0.80513187561E+02 0.  0.
          5    1    3    3  501    0  0.12467212255E+03  0.48229823928E+02 -0.58465447246E+03  0.59976011557E+03  0.47000000000E+01 0. -1.
        -13    1    4    4    0    0 -0.18250809468E+02  0.31109141180E+02 -0.58906860492E+02  0.69071621699E+02  0.00000000000E+00 0.  1.
         14    1    4    4    0    0  0.36455115795E+02 -0.25961666919E+02 -0.11015186530E+03  0.11889666541E+03  0.00000000000E+00 0. -1.
         -5    1    5    5    0  502 -0.70469419565E+02 -0.78159972408E+02 -0.86235112295E+02  0.13613781610E+03  0.47000000000E+01 0.  1.
         11    1    6    6    0    0 -0.34383000947E+02  0.47925511057E+02 -0.72665683989E+02  0.93591383117E+02  0.00000000000E+00 0. -1.
        -12    1    6    6    0    0 -0.38024008361E+02 -0.23142836838E+02 -0.13160722255E+03  0.13893119569E+03  0.00000000000E+00 0.  1.
</event>
<event>
12    1  0.8053217E-002  0.2498976E+03  0.7818608E-02  0.1113389E+00
         21   -1    0    0  501  502  0.00000000000E+00  0.00000000000E+00  0.85249481205E+03  0.85249481205E+03  0.00000000000E+00 0. -1.
         21   -1    0    0  502  503 -0.00000000000E+00 -0.00000000000E+00 -0.14826435574E+03  0.14826435574E+03  0.00000000000E+00 0. -1.
         -6    2    1    2    0  503 -0.44251325156E+02  0.17740535633E+03 -0.39217109576E+01  0.24980758349E+03  0.17016935305E+03 0.  0.
        -24    2    3    3    0    0 -0.21683119811E+02  0.19992018005E+03  0.15679821784E+01  0.21712015608E+03  0.81856383577E+02 0.  0.
          6    2    1    2  501    0  0.44251325156E+02 -0.17740535633E+03  0.70815216726E+03  0.75095158430E+03  0.17034655774E+03 0.  0.
         24    2    5    5    0    0  0.31106141766E+02 -0.13360956095E+03  0.67692459098E+03  0.69538073709E+03  0.80674412346E+02 0.  0.
          5    1    5    5  501    0  0.13145183390E+02 -0.43795795385E+02  0.31227576287E+02  0.55570847218E+02  0.47000000000E+01 0. -1.
        -13    1    6    6    0    0 -0.27326530465E+02 -0.38027464229E+02  0.18090400558E+03  0.18686649388E+03  0.00000000000E+00 0.  1.
         14    1    6    6    0    0  0.58432672230E+02 -0.95582096720E+02  0.49602058540E+03  0.50851424320E+03  0.00000000000E+00 0. -1.
         -5    1    3    3    0  503 -0.22568205345E+02 -0.22514823718E+02 -0.54896931360E+01  0.32687427404E+02  0.47000000000E+01 0.  1.
         13    1    4    4    0    0 -0.76991892877E+01  0.94868549539E+02 -0.40049521889E+02  0.10326317548E+03  0.00000000000E+00 0. -1.
        -14    1    4    4    0    0 -0.13983930523E+02  0.10505163051E+03  0.41617504067E+02  0.11385698060E+03  0.00000000000E+00 0.  1.
</event>
<event>
12    1  0.8053217E-002  0.3123847E+03  0.7818608E-02  0.1079555E+00
         21   -1    0    0  503  502  0.00000000000E+00  0.00000000000E+00  0.51823903942E+03  0.51823903942E+03  0.00000000000E+00 0.  1.
         21   -1    0    0  501  503 -0.00000000000E+00 -0.00000000000E+00 -0.38236101099E+03  0.38236101099E+03  0.00000000000E+00 0. -1.
          6    2    1    2  501    0  0.25193922258E+03 -0.53623477331E+02 -0.25445698340E+03  0.40065443757E+03  0.17154233516E+03 0.  0.
         24    2    3    3    0    0  0.21442233831E+03 -0.72236197215E+02 -0.26472489990E+03  0.35727852195E+03  0.79835219474E+02 0.  0.
         -6    2    1    2    0  502 -0.25193922258E+03  0.53623477331E+02  0.39033501183E+03  0.49994561284E+03  0.17673524023E+03 0.  0.
        -24    2    5    5    0    0 -0.63166406745E+02 -0.13015420942E+02  0.20726114116E+03  0.22862651863E+03  0.71787939520E+02 0.  0.
          5    1    3    3  501    0  0.37516884267E+02  0.18612719884E+02  0.10267916499E+02  0.43375915619E+02  0.47000000000E+01 0. -1.
        -11    1    4    4    0    0 -0.21347218797E+01 -0.12297593520E+02 -0.40415214059E+01  0.13119517490E+02  0.00000000000E+00 0.  1.
         12    1    4    4    0    0  0.21655706019E+03 -0.59938603695E+02 -0.26068337849E+03  0.34415900446E+03  0.00000000000E+00 0. -1.
         -5    1    5    5    0  502 -0.18877281583E+03  0.66638898273E+02  0.18307387067E+03  0.27131909421E+03  0.47000000000E+01 0.  1.
         11    1    6    6    0    0 -0.25910784822E+01 -0.31987835919E+02  0.85256468998E+02  0.91096656583E+02  0.00000000000E+00 0. -1.
        -12    1    6    6    0    0 -0.60575328263E+02  0.18972414977E+02  0.12200467216E+03  0.13752986204E+03  0.00000000000E+00 0.  1.
</event>
<event>
12    1  0.8053217E-002  0.2064766E+03  0.7818608E-02  0.1144601E+00
         21   -1    0    0  503  502  0.00000000000E+00  0.00000000000E+00  0.14412545005E+03  0.14412545005E+03  0.00000000000E+00 0. -1.
         21   -1    0    0  501  503 -0.00000000000E+00 -0.00000000000E+00 -0.34056795649E+03  0.34056795649E+03  0.00000000000E+00 0. -1.
          6    2    1    2  501    0 -0.72668888103E+02  0.87912073805E+02 -0.18733570761E+03  0.27801607160E+03  0.17084779396E+03 0.  0.
         24    2    3    3    0    0  0.92294574162E+01 -0.53950105533E+01 -0.72690665069E+02  0.10896245061E+03  0.80464860850E+02 0.  0.
         -6    2    1    2    0  502  0.72668888103E+02 -0.87912073805E+02 -0.91067988310E+01  0.20667733495E+03  0.17211416844E+03 0.  0.
        -24    2    5    5    0    0  0.43449884638E+02 -0.33126054343E+02 -0.70811532575E+02  0.11901421694E+03  0.78516767238E+02 0.  0.
          5    1    3    3  501    0 -0.81898345520E+02  0.93307084358E+02 -0.11464504254E+03  0.16905362099E+03  0.47000000000E+01 0. -1.
        -11    1    4    4    0    0  0.62860247543E+01  0.17892584123E+02  0.11080781039E+02  0.21964571069E+02  0.00000000000E+00 0.  1.
         12    1    4    4    0    0  0.29434326619E+01 -0.23287594676E+02 -0.83771446107E+02  0.86997879541E+02  0.00000000000E+00 0. -1.
         -5    1    5    5    0  502  0.29219003466E+02 -0.54786019462E+02  0.61704733744E+02  0.87663118005E+02  0.47000000000E+01 0.  1.
         11    1    6    6    0    0  0.48989368126E+02 -0.51827485568E+02 -0.37911547313E+02  0.80767145977E+02  0.00000000000E+00 0. -1.
        -12    1    6    6    0    0 -0.55394834885E+01  0.18701431225E+02 -0.32899985262E+02  0.38247070965E+02  0.00000000000E+00 0.  1.
</event>
<event>
12    1  0.8053217E-002  0.1742245E+03  0.7818608E-02  0.1173983E+00
         21   -1    0    0  501  502  0.00000000000E+00  0.00000000000E+00  0.61939829886E+03  0.61939829886E+03  0.00000000000E+00 0. -1.
         21   -1    0    0  502  503 -0.00000000000E+00 -0.00000000000E+00 -0.31774686045E+03  0.31774686045E+03  0.00000000000E+00 0. -1.
         -6    2    1    2    0  503 -0.27426500403E+02  0.20861253196E-01 -0.28039332473E+03  0.33011302284E+03  0.17205225351E+03 0.  0.
        -24    2    3    3    0    0 -0.41396358722E+02 -0.59552114898E+02 -0.15074238088E+03  0.18667121001E+03  0.82841791070E+02 0.  0.
          6    2    1    2  501    0  0.27426500403E+02 -0.20861253196E-01  0.58204476313E+03  0.60703213647E+03  0.17017548313E+03 0.  0.
         24    2    5    5    0    0 -0.10463219231E+02 -0.36474999842E+02  0.14335882752E+03  0.16518151106E+03  0.72754887101E+02 0.  0.
          5    1    5    5  501    0  0.37889719634E+02  0.36454138589E+02  0.43868593561E+03  0.44185062541E+03  0.47000000000E+01 0. -1.
        -11    1    6    6    0    0  0.26738070764E+02 -0.36006813540E+02  0.77664827718E+02  0.89684115171E+02  0.00000000000E+00 0.  1.
         12    1    6    6    0    0 -0.37201289995E+02 -0.46818630297E+00  0.65693999800E+02  0.75497395885E+02  0.00000000000E+00 0. -1.
         -5    1    3    3    0  503  0.13969858319E+02  0.59572976152E+02 -0.12965094384E+03  0.14344181283E+03  0.47000000000E+01 0.  1.
         13    1    4    4    0    0  0.22730404864E+01 -0.55959437306E+02 -0.12207630504E+03  0.13431027358E+03  0.00000000000E+00 0. -1.
        -14    1    4    4    0    0 -0.43669399209E+02 -0.35926775925E+01 -0.28666075841E+02  0.52360936428E+02  0.00000000000E+00 0.  1.
</event>
<event>
12    1  0.8053217E-002  0.1820537E+03  0.7818608E-02  0.1170669E+00
         21   -1    0    0  503  502  0.00000000000E+00  0.00000000000E+00  0.77520755948E+02  0.77520755948E+02  0.00000000000E+00 0.  1.
         21   -1    0    0  501  503 -0.00000000000E+00 -0.00000000000E+00 -0.42571668519E+03  0.42571668519E+03  0.00000000000E+00 0.  1.
          6    2    1    2  501    0 -0.41522007074E+02 -0.70099783202E+01 -0.26164848393E+03  0.31875301924E+03  0.17711674473E+03 0.  0.
         24    2    3    3    0    0  0.31034379589E+02 -0.47475174797E+02 -0.17038584330E+03  0.19525070774E+03  0.76645145550E+02 0.  0.
         -6    2    1    2    0  502  0.41522007074E+02  0.70099783202E+01 -0.86547445311E+02  0.18448442190E+03  0.15738749876E+03 0.  0.
        -24    2    5    5    0    0 -0.28652895818E+02 -0.32300790873E+01 -0.74472139089E+02  0.11239226704E+03  0.79085399035E+02 0.  0.
          5    1    3    3  501    0 -0.72556386662E+02  0.40465196477E+02 -0.91262640630E+02  0.12350231150E+03  0.47000000000E+01 0. -1.
        -11    1    4    4    0    0  0.43930080633E+02 -0.21274302156E+02 -0.15445821789E+03  0.16198700254E+03  0.00000000000E+00 0.  1.
         12    1    4    4    0    0 -0.12895701044E+02 -0.26200872641E+02 -0.15927625410E+02  0.33263705202E+02  0.00000000000E+00 0. -1.
         -5    1    5    5    0  502  0.70174902891E+02  0.10240057407E+02 -0.12075306222E+02  0.72092154856E+02  0.47000000000E+01 0.  1.
         13    1    6    6    0    0 -0.15903463260E+02 -0.12542916193E+02  0.12630702531E+02  0.23870055231E+02  0.00000000000E+00 0. -1.
        -14    1    6    6    0    0 -0.12749432557E+02  0.93128371053E+01 -0.87102841621E+02  0.88522211811E+02  0.00000000000E+00 0.  1.
</event>
<event>
12    1  0.8053217E-002  0.1847676E+03  0.7818608E-02  0.1163450E+00
         21   -1    0    0  501  502  0.00000000000E+00  0.00000000000E+00  0.11757021421E+03  0.11757021421E+03  0.00000000000E+00 0. -1.
         21   -1    0    0  502  503 -0.00000000000E+00 -0.00000000000E+00 -0.55531829315E+03  0.55531829315E+03  0.00000000000E+00 0. -1.
         -6    2    1    2    0  503 -0.67033693227E+02 -0.13566701433E+02 -0.45156077538E+03  0.48760529049E+03  0.17080460779E+03 0.  0.
        -24    2    3    3    0    0 -0.39965779673E+02 -0.93151507288E+01 -0.45087475522E+03  0.45979686998E+03  0.80256346615E+02 0.  0.
          6    2    1    2  501    0  0.67033693227E+02  0.13566701433E+02  0.13812696441E+02  0.18528321687E+03  0.17164355058E+03 0.  0.
         24    2    5    5    0    0  0.26142761986E+02  0.73683146442E+02  0.60559823552E+01  0.11201445250E+03  0.79986952522E+02 0.  0.
          5    1    5    5  501    0  0.40890931240E+02 -0.60116445009E+02  0.77567140856E+01  0.73268764366E+02  0.47000000000E+01 0. -1.
        -11    1    6    6    0    0  0.50834020876E+02  0.37803464526E+02  0.19751093603E+02  0.66357405819E+02  0.00000000000E+00 0.  1.
         12    1    6    6    0    0 -0.24691258890E+02  0.35879681916E+02 -0.13695111248E+02  0.45657046686E+02  0.00000000000E+00 0. -1.
         -5    1    3    3    0  503 -0.27067913554E+02 -0.42515507037E+01 -0.68602015369E+00  0.27808420509E+02  0.47000000000E+01 0.  1.
         11    1    4    4    0    0 -0.51200919782E+02  0.17863780812E+02 -0.20061127629E+03  0.20781129186E+03  0.00000000000E+00 0. -1.
        -12    1    4    4    0    0  0.11235140110E+02 -0.27178931541E+02 -0.25026347893E+03  0.25198557812E+03  0.00000000000E+00 0.  1.
</event>
<event>
12    1  0.8053217E-002  0.1933226E+03  0.7818608E-02  0.1156161E+00
         21   -1    0    0  503  502  0.00000000000E+00  0.00000000000E+00  0.83167878469E+02  0.83167878469E+02  0.00000000000E+00 0. -1.
         21   -1    0    0  501  503 -0.00000000000E+00 -0.00000000000E+00 -0.76210652713E+03  0.76210652713E+03  0.00000000000E+00 0. -1.
          6    2    1    2  501    0 -0.66010861285E+02 -0.61812248165E+02 -0.61163935421E+03  0.64057265671E+03  0.16748862968E+03 0.  0.
         24    2    3    3    0    0 -0.59102365687E+02 -0.80994610427E+02 -0.60498667466E+03  0.61861728200E+03  0.81395629612E+02 0.  0.
         -6    2    1    2    0  502  0.66010861285E+02  0.61812248165E+02 -0.67299294449E+02  0.20470174889E+03  0.17086668234E+03 0.  0.
        -24    2    5    5    0    0  0.37323541437E+01 -0.22799941973E+02 -0.47727476585E+02  0.97729877696E+02  0.82094148097E+02 0.  0.
          5    1    3    3  501    0 -0.69084955988E+01  0.19182362262E+02 -0.66526795446E+01  0.21955374707E+02  0.47000000000E+01 0. -1.
        -11    1    4    4    0    0 -0.36417862480E+01 -0.27720433490E+02 -0.42332083667E+02  0.50731551795E+02  0.00000000000E+00 0.  1.
         12    1    4    4    0    0 -0.55460579439E+02 -0.53274176937E+02 -0.56265459100E+03  0.56788573020E+03  0.00000000000E+00 0. -1.
         -5    1    5    5    0  502  0.62278507142E+02  0.84612190138E+02 -0.19571817864E+02  0.10697187119E+03  0.47000000000E+01 0.  1.
         13    1    6    6    0    0  0.10796275281E+02  0.25325191697E+02  0.27050374920E+01  0.27663010000E+02  0.00000000000E+00 0. -1.
        -14    1    6    6    0    0 -0.70639211374E+01 -0.48125133670E+02 -0.50432514077E+02  0.70066867696E+02  0.00000000000E+00 0.  1.
</event>
<event>
12    1  0.8053217E-002  0.1885418E+03  0.7818608E-02  0.1159901E+00
         21   -1    0    0  503  502  0.00000000000E+00  0.00000000000E+00  0.47298280929E+03  0.47298280929E+03  0.00000000000E+00 0. -1.
         21   -1    0    0  501  503 -0.00000000000E+00 -0.00000000000E+00 -0.13104633473E+03  0.13104633473E+03  0.00000000000E+00 0. -1.
          6    2    1    2  501    0  0.55343390376E+02  0.56222746691E+02 -0.26761846558E+02  0.18991991800E+03  0.17067363802E+03 0.  0.
         24    2    3    3    0    0 -0.63694066535E+01 -0.17573701920E+02 -0.43141391566E+02  0.92222606674E+02  0.79337413464E+02 0.  0.
         -6    2    1    2    0  502 -0.55343390376E+02 -0.56222746691E+02  0.36869832112E+03  0.41410922603E+03  0.17124284213E+03 0.  0.
        -24    2    5    5    0    0  0.30653539231E+02 -0.24710033053E+02  0.24089696325E+03  0.25680760462E+03  0.79803343853E+02 0.  0.
          5    1    3    3  501    0  0.61712797030E+02  0.73796448611E+02  0.16379545008E+02  0.97697311322E+02  0.47000000000E+01 0. -1.
        -13    1    4    4    0    0 -0.21840915993E+02 -0.21120440395E+02  0.13611212206E+02  0.33292096834E+02  0.00000000000E+00 0.  1.
         14    1    4    4    0    0  0.15471509340E+02  0.35467384746E+01 -0.56752603772E+02  0.58930509840E+02  0.00000000000E+00 0. -1.
         -5    1    5    5    0  502 -0.85996929607E+02 -0.31512713638E+02  0.12780135787E+03  0.15730162140E+03  0.47000000000E+01 0.  1.
         13    1    6    6    0    0 -0.16106609687E+02 -0.37114971797E+02  0.10230497708E+03  0.11001478238E+03  0.00000000000E+00 0. -1.
        -14    1    6    6    0    0  0.46760148918E+02  0.12404938745E+02  0.13859198617E+03  0.14679282224E+03  0.00000000000E+00 0.  1.
</event>
<event>
12    1  0.8053217E-002  0.2215274E+03  0.7818608E-02  0.1132759E+00
         21   -1    0    0  501  502  0.00000000000E+00  0.00000000000E+00  0.19182934510E+03  0.19182934510E+03  0.00000000000E+00 0. -1.
         21   -1    0    0  502  503 -0.00000000000E+00 -0.00000000000E+00 -0.25992555724E+03  0.25992555724E+03  0.00000000000E+00 0. -1.
         -6    2    1    2    0  503 -0.50554420212E+02 -0.12857910135E+03 -0.62640841560E+02  0.23021352744E+03  0.17316483037E+03 0.  0.
        -24    2    3    3    0    0 -0.10748604674E+02 -0.42603539566E+02  0.32548836499E+02  0.95828018610E+02  0.78695541852E+02 0.  0.
          6    2    1    2  501    0  0.50554420212E+02  0.12857910135E+03 -0.54553705868E+01  0.22154137490E+03  0.17309675045E+03 0.  0.
         24    2    5    5    0    0  0.35263193926E+02  0.14920650246E+03  0.32015558994E+02  0.17587440826E+03  0.80004613884E+02 0.  0.
          5    1    5    5  501    0  0.15291226286E+02 -0.20627401110E+02 -0.37470929581E+02  0.45666966634E+02  0.47000000000E+01 0. -1.
        -13    1    6    6    0    0  0.42318440600E+02  0.30834033032E+02  0.22246356613E+02  0.56890143174E+02  0.00000000000E+00 0.  1.
         14    1    6    6    0    0 -0.70552466737E+01  0.11837246943E+03  0.97692023812E+01  0.11898426509E+03  0.00000000000E+00 0. -1.
         -5    1    3    3    0  503 -0.39805815538E+02 -0.85975561783E+02 -0.95189678058E+02  0.13438550883E+03  0.47000000000E+01 0.  1.
         13    1    4    4    0    0  0.31435034630E+02 -0.34446631372E+02  0.22126220897E+02  0.51616871914E+02  0.00000000000E+00 0. -1.
        -14    1    4    4    0    0 -0.42183639304E+02 -0.81569081948E+01  0.10422615601E+02  0.44211146696E+02  0.00000000000E+00 0.  1.
</event>
<event>
12    1  0.8053217E-002  0.2089334E+03  0.7818608E-02  0.1142551E+00
         21   -1    0    0  501  502  0.00000000000E+00  0.00000000000E+00  0.97955737463E+02  0.97955737463E+02  0.00000000000E+00 0. -1.
         21   -1    0    0  502  503 -0.00000000000E+00 -0.00000000000E+00 -0.57904886182E+03  0.57904886182E+03  0.00000000000E+00 0. -1.
         -6    2    1    2    0  503 -0.87721649829E+02 -0.77188754631E+02 -0.40361172249E+03  0.45416716497E+03  0.17237227012E+03 0.  0.
        -24    2    3    3    0    0 -0.88910181674E+02 -0.13842208301E+02 -0.15169357174E+03  0.19436138708E+03  0.81662610456E+02 0.  0.
          6    2    1    2  501    0  0.87721649829E+02  0.77188754631E+02 -0.77481401867E+02  0.22283743432E+03  0.17320497340E+03 0.  0.
         24    2    5    5    0    0  0.51306481868E+01 -0.18201790181E+02 -0.36437594535E+02  0.90069540191E+02  0.80169788937E+02 0.  0.
          5    1    5    5  501    0  0.82591001642E+02  0.95390544812E+02 -0.41043807332E+02  0.13276789413E+03  0.47000000000E+01 0. -1.
        -11    1    6    6    0    0  0.73869074120E+01 -0.11488451721E+02 -0.62029650862E+02  0.63515576909E+02  0.00000000000E+00 0.  1.
         12    1    6    6    0    0 -0.22562592252E+01 -0.67133384594E+01  0.25592056327E+02  0.26553963282E+02  0.00000000000E+00 0. -1.
         -5    1    3    3    0  503  0.11885318452E+01 -0.63346546331E+02 -0.25191815076E+03  0.25980577788E+03  0.47000000000E+01 0.  1.
         13    1    4    4    0    0 -0.86817071764E+02  0.20951680284E+01 -0.15525952847E+03  0.17789635988E+03  0.00000000000E+00 0. -1.
        -14    1    4    4    0    0 -0.20931099098E+01 -0.15937376329E+02  0.35659567314E+01  0.16465027202E+02  0.00000000000E+00 0.  1.
</event>
<event>
12    1  0.8053217E-002  0.1785454E+03  0.7818608E-02  0.1170222E+00
         21   -1    0    0  503  502  0.00000000000E+00  0.00000000000E+00  0.24850803885E+03  0.24850803885E+03  0.00000000000E+00 0. -1.
         21   -1    0    0  501  503 -0.00000000000E+00 -0.00000000000E+00 -0.15603237033E+03  0.15603237033E+03  0.00000000000E+00 0. -1.
          6    2    1    2  501    0  0.98454350377E+01 -0.29178373228E+02 -0.42976859137E+02  0.18364500161E+03  0.17586974197E+03 0.  0.
         24    2    3    3    0    0  0.73349724194E+02 -0.23874562815E+02 -0.93391838867E+01  0.11143344892E+03  0.79875004809E+02 0.  0.
         -6    2    1    2    0  502 -0.98454350377E+01  0.29178373228E+02  0.13545252765E+03  0.22089540758E+03  0.17175297315E+03 0.  0.
        -24    2    5    5    0    0 -0.62490025555E+02 -0.56755601265E+01  0.46272563294E+02  0.11152719636E+03  0.79749295531E+02 0.  0.
          5    1    3    3  501    0 -0.63504289156E+02 -0.53038104128E+01 -0.33637675250E+02  0.72211552694E+02  0.47000000000E+01 0. -1.
        -11    1    4    4    0    0  0.24205319499E+02  0.21740156783E+02 -0.26793459512E+02  0.42147614187E+02  0.00000000000E+00 0.  1.
         12    1    4    4    0    0  0.49144404696E+02 -0.45614719598E+02  0.17454275625E+02  0.69285834732E+02  0.00000000000E+00 0. -1.
         -5    1    5    5    0  502  0.52644590517E+02  0.34853933354E+02  0.89179964360E+02  0.10936821121E+03  0.47000000000E+01 0.  1.
         11    1    6    6    0    0  0.12747533733E+02  0.34091904098E+01  0.31724541742E+02  0.34359405470E+02  0.00000000000E+00 0. -1.
        -12    1    6    6    0    0 -0.75237559287E+02 -0.90847505363E+01  0.14548021552E+02  0.77167790890E+02  0.00000000000E+00 0.  1.
</event>
<event>
12    1  0.8053217E-002  0.1800855E+03  0.7818608E-02  0.1167801E+00
         21   -1    0    0  501  502  0.00000000000E+00  0.00000000000E+00  0.17059283113E+03  0.17059283113E+03  0.00000000000E+00 0. -1.
         21   -1    0    0  502  503 -0.00000000000E+00 -0.00000000000E+00 -0.31804098324E+03  0.31804098324E+03  0.00000000000E+00 0. -1.
         -6    2    1    2    0  503  0.33997632290E+02 -0.40531353880E+02 -0.22893176707E+03  0.29127399270E+03  0.17213992913E+03 0.  0.
        -24    2    3    3    0    0 -0.36047693044E+02 -0.33476605043E+01 -0.66004727245E+02  0.11001096569E+03  0.80219358939E+02 0.  0.
          6    2    1    2  501    0 -0.33997632290E+02  0.40531353880E+02  0.81483614955E+02  0.19735982167E+03  0.17179257858E+03 0.  0.
         24    2    5    5    0    0 -0.47362944775E+02 -0.38119366395E+02  0.37842334561E+02  0.10630369210E+03  0.78562701311E+02 0.  0.
          5    1    5    5  501    0  0.13365312485E+02  0.78650720275E+02  0.43641280394E+02  0.91056129568E+02  0.47000000000E+01 0. -1.
        -13    1    6    6    0    0 -0.29642999138E+02  0.88793859089E+01 -0.14137643553E+02  0.34020932634E+02  0.00000000000E+00 0.  1.
         14    1    6    6    0    0 -0.17719945637E+02 -0.46998752304E+02  0.51979978114E+02  0.72282759468E+02  0.00000000000E+00 0. -1.
         -5    1    3    3    0  503  0.70045325333E+02 -0.37183693375E+02 -0.16292703982E+03  0.18126302701E+03  0.47000000000E+01 0.  1.
         13    1    4    4    0    0 -0.51191057540E+01 -0.95925019922E+01 -0.76107531753E+02  0.76880281787E+02  0.00000000000E+00 0. -1.
        -14    1    4    4    0    0 -0.30928587290E+02  0.62448414880E+01  0.10102804507E+02  0.33130683903E+02  0.00000000000E+00 0.  1.
</event>
<event>
12    1  0.8053217E-002  0.2096593E+03  0.7818608E-02  0.1142014E+00
         21   -1    0    0  503  502  0.00000000000E+00  0.00000000000E+00  0.16720584468E+03  0.16720584468E+03  0.00000000000E+00 0. -1.
         21   -1    0    0  501  503 -0.00000000000E+00 -0.00000000000E+00 -0.34209956072E+03  0.34209956072E+03  0.00000000000E+00 0. -1.
          6    2    1    2  501    0  0.31534761653E+02 -0.11430307507E+03 -0.21070314925E+03  0.29661003214E+03  0.17181984723E+03 0.  0.
         24    2    3    3    0    0  0.62054932517E+02 -0.15996154793E+02 -0.80958448119E+02  0.13092506338E+03  0.80500995524E+02 0.  0.
         -6    2    1    2    0  502 -0.31534761653E+02  0.11430307507E+03  0.35809433207E+02  0.21269537326E+03  0.17290856582E+03 0.  0.
        -24    2    5    5    0    0 -0.13940244351E+02  0.13693815492E+03  0.66895120989E+02  0.17014747244E+03  0.74356011743E+02 0.  0.
          5    1    3    3  501    0 -0.30520170864E+02 -0.98306920281E+02 -0.12974470113E+03  0.16568496877E+03  0.47000000000E+01 0. -1.
        -11    1    4    4    0    0  0.38752795972E+02  0.13306908910E+02 -0.83900385215E+02  0.93370914420E+02  0.00000000000E+00 0.  1.
         12    1    4    4    0    0  0.23302136545E+02 -0.29303063703E+02  0.29419370960E+01  0.37554148956E+02  0.00000000000E+00 0. -1.
         -5    1    5    5    0  502 -0.17594517302E+02 -0.22635079842E+02 -0.31085687782E+02  0.42547900811E+02  0.47000000000E+01 0.  1.
         13    1    6    6    0    0 -0.27143971256E+02  0.73198208688E+02  0.17990014432E+01  0.78089751805E+02  0.00000000000E+00 0. -1.
        -14    1    6    6    0    0  0.13203726905E+02  0.63739946228E+02  0.65096119546E+02  0.92057720639E+02  0.00000000000E+00 0.  1.
</event>
<event>
12    1  0.8053217E-002  0.1783459E+03  0.7818608E-02  0.1169871E+00
         21   -1    0    0  501  502  0.00000000000E+00  0.00000000000E+00  0.13279760202E+03  0.13279760202E+03  0.00000000000E+00 0. -1.
         21   -1    0    0  502  503 -0.00000000000E+00 -0.00000000000E+00 -0.63806737912E+03  0.63806737912E+03  0.00000000000E+00 0. -1.
         -6    2    1    2    0  503 -0.42242662146E+02 -0.60658962519E+01 -0.55869182404E+03  0.58646722962E+03  0.17316471802E+03 0.  0.
        -24    2    3    3    0    0  0.23391851391E+02  0.95719425431E+01 -0.45619349164E+03  0.46366482934E+03  0.78954235839E+02 0.  0.
          6    2    1    2  501    0  0.42242662146E+02  0.60658962519E+01  0.53422046929E+02  0.18439775152E+03  0.17125238120E+03 0.  0.
         24    2    5    5    0    0  0.76992417542E+02 -0.21995678921E+02 -0.19465000353E+01  0.11310424906E+03  0.79856997450E+02 0.  0.
          5    1    5    5  501    0 -0.34749755396E+02  0.28061575173E+02  0.55368546965E+02  0.71293502469E+02  0.47000000000E+01 0. -1.
        -11    1    6    6    0    0 -0.14177415403E+02 -0.12709685564E+01 -0.12591825841E+02  0.19004434919E+02  0.00000000000E+00 0.  1.
         12    1    6    6    0    0  0.91169832945E+02 -0.20724710365E+02  0.10645325806E+02  0.94099814136E+02  0.00000000000E+00 0. -1.
         -5    1    3    3    0  503 -0.65634513537E+02 -0.15637838795E+02 -0.10249833240E+03  0.12280240027E+03  0.47000000000E+01 0.  1.
         11    1    4    4    0    0 -0.17552644400E+02  0.21283178056E+02 -0.71767947376E+02  0.76887627510E+02  0.00000000000E+00 0. -1.
        -12    1    4    4    0    0  0.40944495791E+02 -0.11711235513E+02 -0.38442554427E+03  0.38677720183E+03  0.00000000000E+00 0.  1.
</event>
<event>
12    1  0.8053217E-002  0.1861772E+03  0.7818608E-02  0.1162006E+00
         21   -1    0    0  501  502  0.00000000000E+00  0.00000000000E+00  0.31459158888E+03  0.31459158888E+03  0.00000000000E+00 0. -1.
         21   -1    0    0  502  503 -0.00000000000E+00 -0.00000000000E+00 -0.14258226796E+03  0.14258226796E+03  0.00000000000E+00 0.  1.
         -6    2    1    2    0  503  0.21448045486E+02 -0.66895568704E+02 -0.23141998795E+02  0.18761001263E+03  0.17241499054E+03 0.  0.
        -24    2    3    3    0    0 -0.46333251940E+02 -0.72553167768E+02 -0.74413080540E+01  0.11764634779E+03  0.79840827244E+02 0.  0.
          6    2    1    2  501    0 -0.21448045486E+02  0.66895568704E+02  0.19515131971E+03  0.26956384421E+03  0.17217895560E+03 0.  0.
         24    2    5    5    0    0 -0.34722236933E+02 -0.10367903697E+02  0.16327199030E+03  0.18480400720E+03  0.78623476748E+02 0.  0.
          5    1    5    5  501    0  0.13274191447E+02  0.77263472401E+02  0.31879329413E+02  0.84759837009E+02  0.47000000000E+01 0. -1.
        -13    1    6    6    0    0  0.79762638313E+01 -0.18353333415E+02  0.12596212403E+03  0.12754184538E+03  0.00000000000E+00 0.  1.
         14    1    6    6    0    0 -0.42698500765E+02  0.79854297181E+01  0.37309866265E+02  0.57262161818E+02  0.00000000000E+00 0. -1.
         -5    1    3    3    0  503  0.67781297426E+02  0.56575990642E+01 -0.15700690741E+02  0.69963664839E+02  0.47000000000E+01 0.  1.
         11    1    4    4    0    0 -0.16613531359E+02 -0.99504126116E+01  0.32373838566E+02  0.37723806261E+02  0.00000000000E+00 0. -1.
        -12    1    4    4    0    0 -0.29719720581E+02 -0.62602755157E+02 -0.39815146620E+02  0.79922541532E+02  0.00000000000E+00 0.  1.
</event>
<event>
12    1  0.8053217E-002  0.1746318E+03  0.7818608E-02  0.1173106E+00
         21   -1    0    0  503  502  0.00000000000E+00  0.00000000000E+00  0.59985727279E+03  0.59985727279E+03  0.00000000000E+00 0. -1.
         21   -1    0    0  501  503 -0.00000000000E+00 -0.00000000000E+00 -0.79521177889E+02  0.79521177889E+02  0.00000000000E+00 0. -1.
          6    2    1    2  501    0 -0.25023590319E+01 -0.31893936396E+02  0.56136232843E+02  0.18341697819E+03  0.17165962329E+03 0.  0.
         24    2    3    3    0    0 -0.43338987091E+02 -0.60914665674E+02  0.83414278414E+00  0.10864904332E+03  0.78835617105E+02 0.  0.
         -6    2    1    2    0  502  0.25023590319E+01  0.31893936396E+02  0.46419986206E+03  0.49596147250E+03  0.17167639699E+03 0.  0.
        -24    2    5    5    0    0  0.20245537477E+02 -0.46060836544E+02  0.22878948715E+03  0.24730125932E+03  0.79257813343E+02 0.  0.
          5    1    3    3  501    0  0.40836628059E+02  0.29020729277E+02  0.55302090058E+02  0.74767934864E+02  0.47000000000E+01 0. -1.
        -11    1    4    4    0    0 -0.28450765911E+02 -0.33969465784E+01  0.30833530700E+02  0.42091471137E+02  0.00000000000E+00 0.  1.
         12    1    4    4    0    0 -0.14888221180E+02 -0.57517719095E+02 -0.29999387916E+02  0.66557572185E+02  0.00000000000E+00 0. -1.
         -5    1    5    5    0  502 -0.17743178445E+02  0.77954772940E+02  0.23541037491E+03  0.24866021318E+03  0.47000000000E+01 0.  1.
         13    1    6    6    0    0  0.27729297569E+02 -0.38163018283E+02  0.23136092047E+03  0.23612116684E+03  0.00000000000E+00 0. -1.
        -14    1    6    6    0    0 -0.74837600914E+01 -0.78978182608E+01 -0.25714333206E+01  0.11180092473E+02  0.00000000000E+00 0.  1.
</event>
<event>
12    1  0.8053217E-002  0.1867674E+03  0.7818608E-02  0.1161824E+00
         21   -1    0    0  501  502  0.00000000000E+00  0.00000000000E+00  0.11367441974E+03  0.11367441974E+03  0.00000000000E+00 0.  1.
         21   -1    0    0  502  503 -0.00000000000E+00 -0.00000000000E+00 -0.41463213871E+03  0.41463213871E+03  0.00000000000E+00 0.  1.
         -6    2    1    2    0  503 -0.29513427665E+02 -0.62127631805E+02 -0.28643976326E+03  0.34097572695E+03  0.17171436557E+03 0.  0.
        -24    2    3    3    0    0 -0.29992831855E+02 -0.52037667882E+02 -0.66142084665E+02  0.12039650219E+03  0.80703491460E+02 0.  0.
          6    2    1    2  501    0  0.29513427665E+02  0.62127631805E+02 -0.14517955707E+02  0.18733083149E+03  0.17364096390E+03 0.  0.
         24    2    5    5    0    0  0.82527718108E+02  0.60267799392E+02 -0.27498808310E+02  0.13251690532E+03  0.79759098781E+02 0.  0.
          5    1    5    5  501    0 -0.53014290443E+02  0.18598324125E+01  0.12980852603E+02  0.54813926169E+02  0.47000000000E+01 0. -1.
        -11    1    6    6    0    0 -0.14516690617E+02  0.18303622843E+02 -0.37602351271E+00  0.23364466811E+02  0.00000000000E+00 0.  1.
         12    1    6    6    0    0  0.97044408725E+02  0.41964176549E+02 -0.27122784797E+02  0.10915243851E+03  0.00000000000E+00 0. -1.
         -5    1    3    3    0  503  0.47940418999E+00 -0.10089963923E+02 -0.22029767860E+03  0.22057922476E+03  0.47000000000E+01 0.  1.
         13    1    4    4    0    0 -0.49928996279E+02 -0.22663112273E+02 -0.64778831263E+02  0.84869419152E+02  0.00000000000E+00 0. -1.
        -14    1    4    4    0    0  0.19936164424E+02 -0.29374555609E+02 -0.13632534018E+01  0.35527083035E+02  0.00000000000E+00 0.  1.
</event>
<event>
12    1  0.8053217E-002  0.2074465E+03  0.7818608E-02  0.1143695E+00
         21   -1    0    0  501  502  0.00000000000E+00  0.00000000000E+00  0.82285647091E+03  0.82285647091E+03  0.00000000000E+00 0.  1.
         21   -1    0    0  502  503 -0.00000000000E+00 -0.00000000000E+00 -0.49918606740E+03  0.49918606740E+03  0.00000000000E+00 0. -1.
         -6    2    1    2    0  503  0.11123694221E+03  0.34200552465E+02 -0.46366256303E+03  0.50795376662E+03  0.17172862767E+03 0.  0.
        -24    2    3    3    0    0  0.61575300461E+02 -0.45836194116E+02 -0.28806160291E+03  0.30863004334E+03  0.79878296572E+02 0.  0.
          6    2    1    2  501    0 -0.11123694221E+03 -0.34200552465E+02  0.78733296654E+03  0.81408877170E+03  0.17118409070E+03 0.  0.
         24    2    5    5    0    0 -0.12648490660E+03 -0.21349446516E+02  0.77611303884E+03  0.79073008767E+03  0.80301880623E+02 0.  0.
          5    1    5    5  501    0  0.15247964382E+02 -0.12851105949E+02  0.11219927699E+02  0.23358684027E+02  0.47000000000E+01 0. -1.
        -13    1    6    6    0    0 -0.10132396468E+03 -0.28461802437E+01  0.71448945861E+03  0.72164384084E+03  0.00000000000E+00 0.  1.
         14    1    6    6    0    0 -0.25160941917E+02 -0.18503266272E+02  0.61623580228E+02  0.69086246830E+02  0.00000000000E+00 0. -1.
         -5    1    3    3    0  503  0.49661641754E+02  0.80036746581E+02 -0.17560096012E+03  0.19932372328E+03  0.47000000000E+01 0.  1.
         11    1    4    4    0    0  0.23987371587E+02 -0.22612115370E+02 -0.24405004447E+03  0.24626637197E+03  0.00000000000E+00 0. -1.
        -12    1    4    4    0    0  0.37587928874E+02 -0.23224078746E+02 -0.44011558441E+02  0.62363671372E+02  0.00000000000E+00 0.  1.
</event>
<event>
12    1  0.8053217E-002  0.1811496E+03  0.7818608E-02  0.1166722E+00
         21   -1    0    0  501  502  0.00000000000E+00  0.00000000000E+00  0.56961173028E+02  0.56961173028E+02  0.00000000000E+00 0. -1.
         21   -1    0    0  502  503 -0.00000000000E+00 -0.00000000000E+00 -0.15622311096E+04  0.15622311096E+04  0.00000000000E+00 0. -1.
         -6    2    1    2    0  503 -0.35066672331E+02  0.44136279476E+02 -0.13958918314E+04  0.14075823822E+04  0.17203626045E+03 0.  0.
        -24    2    3    3    0    0  0.14596293908E+02  0.33526499660E+02 -0.35003517154E+03  0.36048295009E+03  0.78014473145E+02 0.  0.
          6    2    1    2  501    0  0.35066672331E+02 -0.44136279476E+02 -0.10937810514E+03  0.21160990044E+03  0.17215544547E+03 0.  0.
         24    2    5    5    0    0  0.34165250376E+02 -0.70733655860E+01 -0.13837592082E+03  0.16430836281E+03  0.81437373445E+02 0.  0.
          5    1    5    5  501    0  0.90142195490E+00 -0.37062913890E+02  0.28997815681E+02  0.47301537627E+02  0.47000000000E+01 0. -1.
        -11    1    6    6    0    0  0.28911458201E+02 -0.18428234537E+02 -0.10550057287E+02  0.35871659457E+02  0.00000000000E+00 0.  1.
         12    1    6    6    0    0  0.52537921748E+01  0.11354868951E+02 -0.12782586353E+03  0.12843670335E+03  0.00000000000E+00 0. -1.
         -5    1    3    3    0  503 -0.49662966239E+02  0.10609779816E+02 -0.10458566599E+04  0.10470994321E+04  0.47000000000E+01 0.  1.
         11    1    4    4    0    0  0.24598495719E+02  0.32093412193E+02 -0.34778923063E+03  0.35013200660E+03  0.00000000000E+00 0. -1.
        -12    1    4    4    0    0 -0.10002201810E+02  0.14330874673E+01 -0.22459409022E+01  0.10350943497E+02  0.00000000000E+00 0.  1.
</event>
<event>
12    1  0.8053217E-002  0.1786193E+03  0.7818608E-02  0.1169423E+00
         21   -1    0    0  501  502  0.00000000000E+00  0.00000000000E+00  0.26217775110E+03  0.26217775110E+03  0.00000000000E+00 0. -1.
         21   -1    0    0  502  503 -0.00000000000E+00 -0.00000000000E+00 -0.12188143744E+03  0.12188143744E+03  0.00000000000E+00 0. -1.
         -6    2    1    2    0  503 -0.33333068675E+02  0.26021676965E+02  0.53338158762E+02  0.18641301577E+03  0.17354144211E+03 0.  0.
        -24    2    3    3    0    0 -0.80605613085E+02 -0.14829102113E+02  0.49031960660E+02  0.12361084265E+03  0.78475092386E+02 0.  0.
          6    2    1    2  501    0  0.33333068675E+02 -0.26021676965E+02  0.86958154899E+02  0.19764617276E+03  0.17237768929E+03 0.  0.
         24    2    5    5    0    0  0.72242101618E+02 -0.35775225645E+01  0.57635599702E+01  0.10473597334E+03  0.75529368948E+02 0.  0.
          5    1    5    5  501    0 -0.38909032943E+02 -0.22444154401E+02  0.81194594929E+02  0.92910199424E+02  0.47000000000E+01 0. -1.
        -11    1    6    6    0    0  0.15735189640E+02 -0.41876349306E+01 -0.32595669237E+02  0.36436384732E+02  0.00000000000E+00 0.  1.
         12    1    6    6    0    0  0.56506911978E+02  0.61011236614E+00  0.38359229207E+02  0.68299588606E+02  0.00000000000E+00 0. -1.
         -5    1    3    3    0  503  0.47272544410E+02  0.40850779079E+02  0.43061981026E+01  0.62802173119E+02  0.47000000000E+01 0.  1.
         11    1    4    4    0    0 -0.35374803932E+02 -0.44537090553E+02  0.37945018682E+02  0.68372170003E+02  0.00000000000E+00 0. -1.
        -12    1    4    4    0    0 -0.45230809153E+02  0.29707988440E+02  0.11086941978E+02  0.55238672651E+02  0.00000000000E+00 0.  1.
</event>
<event>
12    1  0.8053217E-002  0.1765056E+03  0.7818608E-02  0.1171918E+00
         21   -1    0    0  503  502  0.00000000000E+00  0.00000000000E+00  0.16666573865E+04  0.16666573865E+04  0.00000000000E+00 0.  1.
         21   -1    0    0  501  503 -0.00000000000E+00 -0.00000000000E+00 -0.26750884446E+02  0.26750884446E+02  0.00000000000E+00 0.  1.
          6    2    1    2  501    0  0.30454337590E+02  0.70453901114E+01  0.35138475551E+03  0.39322444330E+03  0.17371560727E+03 0.  0.
         24    2    3    3    0    0  0.29130852737E+02  0.15327667935E+02  0.36562039525E+03  0.37604622520E+03  0.81541069883E+02 0.  0.
         -6    2    1    2    0  502 -0.30454337590E+02 -0.70453901114E+01  0.12885217465E+04  0.13001838276E+04  0.17091691002E+03 0.  0.
        -24    2    5    5    0    0 -0.41568021113E+02  0.47262810795E+02  0.55369513867E+03  0.56325430029E+03  0.81947706110E+02 0.  0.
          5    1    3    3  501    0  0.13234848530E+01 -0.82822778231E+01 -0.14235639749E+02  0.17178218102E+02  0.47000000000E+01 0. -1.
        -11    1    4    4    0    0  0.34498853778E+02 -0.18323974252E+02  0.87221477829E+02  0.95569478072E+02  0.00000000000E+00 0.  1.
         12    1    4    4    0    0 -0.53680010409E+01  0.33651642186E+02  0.27839891743E+03  0.28047674713E+03  0.00000000000E+00 0. -1.
         -5    1    5    5    0  502  0.11113683523E+02 -0.54308200907E+02  0.73482660785E+03  0.73692952733E+03  0.47000000000E+01 0.  1.
         11    1    6    6    0    0 -0.50827532708E+02  0.17365499018E+02  0.16997031259E+03  0.17825517047E+03  0.00000000000E+00 0. -1.
        -12    1    6    6    0    0  0.92595115948E+01  0.29897311777E+02  0.38372482608E+03  0.38499912981E+03  0.00000000000E+00 0.  1.
</event>
<event>
12    1  0.8053217E-002  0.1751023E+03  0.7818608E-02  0.1172708E+00
         21   -1    0    0  503  502  0.00000000000E+00  0.00000000000E+00  0.29837733105E+03  0.29837733105E+03  0.00000000000E+00 0. -1.
         21   -1    0    0  501  503 -0.00000000000E+00 -0.00000000000E+00 -0.20203012991E+03  0.20203012991E+03  0.00000000000E+00 0. -1.
          6    2    1    2  501    0  0.28961723988E+02 -0.20437832818E+02 -0.12739836047E+03  0.21628969190E+03  0.17115607528E+03 0.  0.
         24    2    3    3    0    0 -0.41324584491E+02 -0.22684002655E+02 -0.31684537111E+02  0.97426592408E+02  0.79156463769E+02 0.  0.
         -6    2    1    2    0  502 -0.28961723988E+02  0.20437832818E+02  0.22374556161E+03  0.28411776906E+03  0.17147694856E+03 0.  0.
        -24    2    5    5    0    0 -0.68347837627E+02 -0.24561682588E+02  0.17954814077E+03  0.20960787480E+03  0.80145013328E+02 0.  0.
          5    1    3    3  501    0  0.70286308479E+02  0.22461698370E+01 -0.95713823355E+02  0.11886309949E+03  0.47000000000E+01 0. -1.
        -11    1    4    4    0    0 -0.11879876782E+01 -0.44404369026E+02 -0.25913423293E+02  0.51426304651E+02  0.00000000000E+00 0.  1.
         12    1    4    4    0    0 -0.40136596812E+02  0.21720366371E+02 -0.57711138186E+01  0.46000287757E+02  0.00000000000E+00 0. -1.
         -5    1    5    5    0  502  0.39386113639E+02  0.44999515406E+02  0.44197420835E+02  0.74509894261E+02  0.47000000000E+01 0.  1.
         11    1    6    6    0    0 -0.74309758663E+01 -0.35875523820E+02  0.11250011174E+03  0.11831545864E+03  0.00000000000E+00 0. -1.
        -12    1    6    6    0    0 -0.60916861761E+02  0.11313841231E+02  0.67048029029E+02  0.91292416152E+02  0.00000000000E+00 0.  1.
</event>
<event>
12    1  0.8053217E-002  0.2064953E+03  0.7818608E-02  0.1144492E+00
         21   -1    0    0  501  502  0.00000000000E+00  0.00000000000E+00  0.10937801200E+04  0.10937801200E+04  0.00000000000E+00 0.  1.
         21   -1    0    0  502  503 -0.00000000000E+00 -0.00000000000E+00 -0.38896300330E+02  0.38896300330E+02  0.00000000000E+00 0.  1.
         -6    2    1    2    0  503  0.33871148683E+02 -0.10844935982E+03  0.54236261970E+03  0.58034259471E+03  0.17242910901E+03 0.  0.
        -24    2    3    3    0    0 -0.71448304160E+01 -0.10823315480E+03  0.23821305706E+03  0.27340383252E+03  0.78985635920E+02 0.  0.
          6    2    1    2  501    0 -0.33871148683E+02  0.10844935982E+03  0.51252119995E+03  0.55233382560E+03  0.17171533461E+03 0.  0.
         24    2    5    5    0    0 -0.65111507324E+02  0.13052260374E+03  0.39425588497E+03  0.42794748055E+03  0.80160369289E+02 0.  0.
          5    1    5    5  501    0  0.31240358640E+02 -0.22073243926E+02  0.11826531499E+03  0.12438634505E+03  0.47000000000E+01 0. -1.
        -13    1    6    6    0    0  0.16740030977E+00  0.36844983614E+02  0.19364786547E+03  0.19712198417E+03  0.00000000000E+00 0.  1.
         14    1    6    6    0    0 -0.65278907633E+02  0.93677620128E+02  0.20060801950E+03  0.23082549639E+03  0.00000000000E+00 0. -1.
         -5    1    3    3    0  503  0.41015979099E+02 -0.21620502072E+00  0.30414956264E+03  0.30693876220E+03  0.47000000000E+01 0.  1.
         11    1    4    4    0    0 -0.38371449030E+02 -0.47178780464E+02  0.14860115032E+03  0.16056309446E+03  0.00000000000E+00 0. -1.
        -12    1    4    4    0    0  0.31226618614E+02 -0.61054374332E+02  0.89611906742E+02  0.11284073806E+03  0.00000000000E+00 0.  1.
</event>
<event>
12    1  0.8053217E-002  0.1826010E+03  0.7818608E-02  0.1166095E+00
         21   -1    0    0  501  502  0.00000000000E+00  0.00000000000E+00  0.66212258851E+02  0.66212258851E+02  0.00000000000E+00 0.  1.
         21   -1    0    0  502  503 -0.00000000000E+00 -0.00000000000E+00 -0.50192993220E+03  0.50192993220E+03  0.00000000000E+00 0.  1.
         -6    2    1    2    0  503  0.42854877143E+02  0.20911513498E+02 -0.25028251523E+03  0.30789361123E+03  0.17286788746E+03 0.  0.
        -24    2    3    3    0    0  0.24340967225E+02  0.35520351714E+02 -0.40144915362E+02  0.96384547851E+02  0.76316372841E+02 0.  0.
          6    2    1    2  501    0 -0.42854877143E+02 -0.20911513498E+02 -0.18543515812E+03  0.26024857982E+03  0.17626483920E+03 0.  0.
         24    2    5    5    0    0 -0.17824234375E+02 -0.52852151541E+02 -0.56312960588E+02  0.12481826810E+03  0.96423012132E+02 0.  0.
          5    1    5    5  501    0 -0.25030642768E+02  0.31940638042E+02 -0.12912219753E+03  0.13543031171E+03  0.47000000000E+01 0. -1.
        -11    1    6    6    0    0 -0.88204333721E+01  0.50427004302E+01  0.23619387011E+02  0.25711948881E+02  0.00000000000E+00 0.  1.
         12    1    6    6    0    0 -0.90038010034E+01 -0.57894851971E+02 -0.79932347598E+02  0.99106319222E+02  0.00000000000E+00 0. -1.
         -5    1    3    3    0  503  0.18513909918E+02 -0.14608838215E+02 -0.21013759987E+03  0.21150906338E+03  0.47000000000E+01 0.  1.
         13    1    4    4    0    0  0.80149695587E+01 -0.10592608457E+02  0.16732940641E+02  0.21364325251E+02  0.00000000000E+00 0. -1.
        -14    1    4    4    0    0  0.16325997667E+02  0.46112960170E+02 -0.56877856002E+02  0.75020222600E+02  0.00000000000E+00 0.  1.
</event>
