<event>
12    1  0.1594900E-001  0.1788014E+03  0.7818608E-02  0.1169899E+00
         21   -1    0    0  503  502  0.00000000000E+00  0.00000000000E+00  0.29309139543E+02  0.29309139543E+02  0.00000000000E+00 0.  1.
         21   -1    0    0  501  503 -0.00000000000E+00 -0.00000000000E+00 -0.12317797813E+04  0.12317797813E+04  0.00000000000E+00 0.  1.
          6    2    1    2  501    0  0.28355505753E+01 -0.46558187970E+02 -0.83677758983E+03  0.85566737678E+03  0.17261002179E+03 0.  0.
         24    2    3    3    0    0  0.13434384245E+02  0.22568713342E+02 -0.65992352788E+03  0.66542985948E+03  0.81289640987E+02 0.  0.
         -6    2    1    2    0  502 -0.28355505753E+01  0.46558187970E+02 -0.36569305190E+03  0.40542154404E+03  0.16869948118E+03 0.  0.
        -24    2    5    5    0    0 -0.42933111160E+02  0.63599241571E+02 -0.33212224759E+03  0.35021918200E+03  0.80375198505E+02 0.  0.
          5    1    3    3  501    0 -0.10598833670E+02 -0.69126901312E+02 -0.17685406195E+03  0.19023751730E+03  0.47000000000E+01 0. -1.
        -11    1    4    4    0    0  0.23785218928E+02 -0.24689153258E+02 -0.36011906545E+03  0.36174719381E+03  0.00000000000E+00 0.  1.
         12    1    4    4    0    0 -0.10350834683E+02  0.47257866600E+02 -0.29980446243E+03  0.30368266567E+03  0.00000000000E+00 0. -1.
         -5    1    5    5    0  502  0.40097560584E+02 -0.17041053601E+02 -0.33570804308E+02  0.55202362038E+02  0.47000000000E+01 0.  1.
         13    1    6    6    0    0  0.86938521525E+01  0.14966656230E+02 -0.92038260341E+01  0.19603425150E+02  0.00000000000E+00 0. -1.
        -14    1    6    6    0    0 -0.51626963312E+02  0.48632585342E+02 -0.32291842156E+03  0.33061575685E+03  0.00000000000E+00 0.  1.
</event>
<event>
12    1  0.1594900E-001  0.1777800E+03  0.7818608E-02  0.1169974E+00
         21   -1    0    0  503  502  0.00000000000E+00  0.00000000000E+00  0.12160137105E+03  0.12160137105E+03  0.00000000000E+00 0. -1.
         21   -1    0    0  501  503 -0.00000000000E+00 -0.00000000000E+00 -0.13513512427E+04  0.13513512427E+04  0.00000000000E+00 0. -1.
          6    2    1    2  501    0 -0.41581121546E+02  0.14069391922E+02 -0.12767617563E+04  0.12890796331E+04  0.17227530491E+03 0.  0.
         24    2    3    3    0    0  0.71955984314E+01  0.15568255278E+02 -0.29609638699E+03  0.30718958246E+03  0.79988886553E+02 0.  0.
         -6    2    1    2    0  502  0.41581121546E+02 -0.14069391922E+02  0.47011884563E+02  0.18387298073E+03  0.17225625763E+03 0.  0.
        -24    2    5    5    0    0  0.90905433264E+02 -0.15000140818E+02  0.54135310942E+02  0.13380715183E+03  0.80529000787E+02 0.  0.
          5    1    3    3  501    0 -0.48776719978E+02 -0.14988633560E+01 -0.98066536927E+03  0.98189005061E+03  0.47000000000E+01 0. -1.
        -13    1    4    4    0    0 -0.26225195074E+02 -0.77122253179E+01 -0.43825479018E+02  0.51651833338E+02  0.00000000000E+00 0.  1.
         14    1    4    4    0    0  0.33420793506E+02  0.23280480596E+02 -0.25227090797E+03  0.25553774912E+03  0.00000000000E+00 0. -1.
         -5    1    5    5    0  502 -0.49324311717E+02  0.93074889613E+00 -0.71234263797E+01  0.50065828899E+02  0.47000000000E+01 0.  1.
         11    1    6    6    0    0  0.96754783979E+02 -0.13608425673E+02  0.20751810750E+02  0.99886511209E+02  0.00000000000E+00 0. -1.
        -12    1    6    6    0    0 -0.58493507148E+01 -0.13917151444E+01  0.33383500193E+02  0.33920640618E+02  0.00000000000E+00 0.  1.
</event>
<event>
12    1  0.1594900E-001  0.2276690E+03  0.7818608E-02  0.1131367E+00
         21   -1    0    0  501  502  0.00000000000E+00  0.00000000000E+00  0.16117132000E+03  0.16117132000E+03  0.00000000000E+00 0.  1.
         21   -1    0    0  502  503 -0.00000000000E+00 -0.00000000000E+00 -0.30433274508E+03  0.30433274508E+03  0.00000000000E+00 0.  1.
         -6    2    1    2    0  503 -0.91747472749E+02 -0.80652528137E+02 -0.10079011117E+03  0.23392580366E+03  0.17216331217E+03 0.  0.
        -24    2    3    3    0    0 -0.42116874471E+01  0.33958199998E+02 -0.32209823550E+02  0.74165112116E+02  0.57376767632E+02 0.  0.
          6    2    1    2  501    0  0.91747472749E+02  0.80652528137E+02 -0.42371313915E+02  0.23157826142E+03  0.19212166424E+03 0.  0.
         24    2    5    5    0    0  0.96297258261E+02  0.34434781832E+02 -0.95416254480E+02  0.16091967142E+03  0.79573631832E+02 0.  0.
          5    1    5    5  501    0 -0.45497855123E+01  0.46217746305E+02  0.53044940565E+02  0.70658590003E+02  0.47000000000E+01 0. -1.
        -13    1    6    6    0    0  0.35577694201E+02  0.50119960401E+02 -0.24276531128E+02  0.66084284961E+02  0.00000000000E+00 0.  1.
         14    1    6    6    0    0  0.60719564061E+02 -0.15685178569E+02 -0.71139723352E+02  0.94835386460E+02  0.00000000000E+00 0. -1.
         -5    1    3    3    0  503 -0.87535785302E+02 -0.11461072814E+03 -0.68580287619E+02  0.15976069154E+03  0.47000000000E+01 0.  1.
         13    1    4    4    0    0  0.12401245334E+02  0.37715365589E+02 -0.39163774664E+02  0.55767740974E+02  0.00000000000E+00 0. -1.
        -14    1    4    4    0    0 -0.16612932781E+02 -0.37571655915E+01  0.69539511140E+01  0.18397371143E+02  0.00000000000E+00 0.  1.
</event>
<event>
12    1  0.1594900E-001  0.2083670E+03  0.7818608E-02  0.1143504E+00
         21   -1    0    0  503  502  0.00000000000E+00  0.00000000000E+00  0.16208665563E+03  0.16208665563E+03  0.00000000000E+00 0.  1.
         21   -1    0    0  501  503 -0.00000000000E+00 -0.00000000000E+00 -0.45613010505E+03  0.45613010505E+03  0.00000000000E+00 0.  1.
          6    2    1    2  501    0  0.70624307621E+02 -0.91401926800E+02 -0.34708342672E+03  0.40320506275E+03  0.16960339758E+03 0.  0.
         24    2    3    3    0    0  0.51451555376E+02  0.21772064399E+02 -0.13876201250E+03  0.16530624321E+03  0.70356041626E+02 0.  0.
         -6    2    1    2    0  502 -0.70624307621E+02  0.91401926800E+02  0.53039977300E+02  0.21501169794E+03  0.17342054667E+03 0.  0.
        -24    2    5    5    0    0  0.72650364013E+00  0.13290546873E+02  0.68076316976E+02  0.10805139010E+03  0.82846554096E+02 0.  0.
          5    1    3    3  501    0  0.19172752245E+02 -0.11317399120E+03 -0.20832141422E+03  0.23789881953E+03  0.47000000000E+01 0. -1.
        -13    1    4    4    0    0  0.51429641061E+02 -0.10090230937E+02 -0.56380665872E+02  0.76977920368E+02  0.00000000000E+00 0.  1.
         14    1    4    4    0    0  0.21914315573E-01  0.31862295336E+02 -0.82381346630E+02  0.88328322846E+02  0.00000000000E+00 0. -1.
         -5    1    5    5    0  502 -0.71350811261E+02  0.78111379927E+02 -0.15036339676E+02  0.10696030784E+03  0.47000000000E+01 0.  1.
         11    1    6    6    0    0  0.23227037914E+02  0.51233338487E+01 -0.10433847334E+02  0.25973236421E+02  0.00000000000E+00 0. -1.
        -12    1    6    6    0    0 -0.22500534274E+02  0.81672130244E+01  0.78510164310E+02  0.82078153678E+02  0.00000000000E+00 0.  1.
</event>
<event>
12    1  0.1594900E-001  0.1751892E+03  0.7818608E-02  0.1172860E+00
         21   -1    0    0  501  502  0.00000000000E+00  0.00000000000E+00  0.73724100026E+02  0.73724100026E+02  0.00000000000E+00 0.  1.
         21   -1    0    0  502  503 -0.00000000000E+00 -0.00000000000E+00 -0.43382041466E+03  0.43382041466E+03  0.00000000000E+00 0.  1.
         -6    2    1    2    0  503  0.92380582190E+01 -0.27114111480E+02 -0.12424072391E+03  0.21374337104E+03  0.17155160864E+03 0.  0.
        -24    2    3    3    0    0  0.22906268858E+01  0.13018669807E+02 -0.14684452169E+03  0.16692533381E+03  0.78268900485E+02 0.  0.
          6    2    1    2  501    0 -0.92380582190E+01  0.27114111480E+02 -0.23585559073E+03  0.29380114365E+03  0.17283152366E+03 0.  0.
         24    2    5    5    0    0  0.47575425518E+02 -0.12855959059E+02 -0.18546325914E+03  0.20785432546E+03  0.79863028526E+02 0.  0.
          5    1    5    5  501    0 -0.56813483737E+02  0.39970070539E+02 -0.50392331585E+02  0.85946818184E+02  0.47000000000E+01 0. -1.
        -11    1    6    6    0    0  0.43080664102E+02  0.26187316132E+02 -0.72961240671E+02  0.88685183577E+02  0.00000000000E+00 0.  1.
         12    1    6    6    0    0  0.44947614160E+01 -0.39043275191E+02 -0.11250201847E+03  0.11916914189E+03  0.00000000000E+00 0. -1.
         -5    1    3    3    0  503  0.69474313332E+01 -0.40132781287E+02  0.22603797780E+02  0.46818037230E+02  0.47000000000E+01 0.  1.
         13    1    4    4    0    0  0.82779719572E+01  0.40848123893E+02 -0.45699781957E+02  0.61851144826E+02  0.00000000000E+00 0. -1.
        -14    1    4    4    0    0 -0.59873450714E+01 -0.27829454086E+02 -0.10114473973E+03  0.10507418899E+03  0.00000000000E+00 0.  1.
</event>
<event>
12    1  0.1594900E-001  0.1856625E+03  0.7818608E-02  0.1163664E+00
         21   -1    0    0  503  502  0.00000000000E+00  0.00000000000E+00  0.89760686383E+02  0.89760686383E+02  0.00000000000E+00 0.  1.
         21   -1    0    0  501  503 -0.00000000000E+00 -0.00000000000E+00 -0.51768769793E+03  0.51768769793E+03  0.00000000000E+00 0.  1.
          6    2    1    2  501    0  0.17222052644E+02 -0.52731288345E+02 -0.37654709245E+03  0.41983125277E+03  0.17718177137E+03 0.  0.
         24    2    3    3    0    0 -0.23688864349E+01 -0.77386504110E+02 -0.37152162831E+03  0.38759726685E+03  0.78797451300E+02 0.  0.
         -6    2    1    2    0  502 -0.17222052644E+02  0.52731288345E+02 -0.51379919097E+02  0.18761713154E+03  0.17170644744E+03 0.  0.
        -24    2    5    5    0    0  0.52237209886E+02  0.28381622659E+02 -0.53181683149E+01  0.10066156671E+03  0.81056927504E+02 0.  0.
          5    1    3    3  501    0  0.19590939078E+02  0.24655215765E+02 -0.50254641426E+01  0.32233985919E+02  0.47000000000E+01 0. -1.
        -13    1    4    4    0    0 -0.30256042281E+02 -0.76799933410E+02 -0.28158910404E+03  0.29343837749E+03  0.00000000000E+00 0.  1.
         14    1    4    4    0    0  0.27887155846E+02 -0.58657070048E+00 -0.89932524264E+02  0.94158889367E+02  0.00000000000E+00 0. -1.
         -5    1    5    5    0  502 -0.69459262530E+02  0.24349665686E+02 -0.46061750782E+02  0.86955564832E+02  0.47000000000E+01 0.  1.
         13    1    6    6    0    0  0.47668240129E+02  0.45778947396E+02 -0.27945397046E+02  0.71755963918E+02  0.00000000000E+00 0. -1.
        -14    1    6    6    0    0  0.45689697567E+01 -0.17397324736E+02  0.22627228731E+02  0.28905602790E+02  0.00000000000E+00 0.  1.
</event>
<event>
12    1  0.1594900E-001  0.1962254E+03  0.7818608E-02  0.1154374E+00
         21   -1    0    0  503  502  0.00000000000E+00  0.00000000000E+00  0.37761964797E+02  0.37761964797E+02  0.00000000000E+00 0. -1.
         21   -1    0    0  501  503 -0.00000000000E+00 -0.00000000000E+00 -0.10669560275E+04  0.10669560275E+04  0.00000000000E+00 0. -1.
          6    2    1    2  501    0 -0.90928015657E+02 -0.24958826250E+02 -0.37095216270E+03  0.41965450015E+03  0.17208586650E+03 0.  0.
         24    2    3    3    0    0 -0.77247061997E+01  0.36151159353E+02 -0.21767258066E+03  0.23479254810E+03  0.79872466256E+02 0.  0.
         -6    2    1    2    0  502  0.90928015657E+02  0.24958826250E+02 -0.65824189997E+03  0.68506349211E+03  0.16473840568E+03 0.  0.
        -24    2    5    5    0    0  0.91793047744E+02 -0.22655949737E+02 -0.58460691789E+03  0.59724483943E+03  0.77439615881E+02 0.  0.
          5    1    3    3  501    0 -0.83203309457E+02 -0.61109985602E+02 -0.15327958204E+03  0.18486195205E+03  0.47000000000E+01 0. -1.
        -13    1    4    4    0    0  0.26230177539E+02  0.75468921325E+01 -0.24808099532E+02  0.36883866350E+02  0.00000000000E+00 0.  1.
         14    1    4    4    0    0 -0.33954883738E+02  0.28604267220E+02 -0.19286448113E+03  0.19790868175E+03  0.00000000000E+00 0. -1.
         -5    1    5    5    0  502 -0.86503208726E+00  0.47614775986E+02 -0.73634982081E+02  0.87818652681E+02  0.47000000000E+01 0.  1.
         13    1    6    6    0    0  0.38843064780E+02  0.15778485095E+02 -0.38297251426E+03  0.38526054943E+03  0.00000000000E+00 0. -1.
        -14    1    6    6    0    0  0.52949982964E+02 -0.38434434831E+02 -0.20163440363E+03  0.21198428999E+03  0.00000000000E+00 0.  1.
</event>
<event>
12    1  0.1594900E-001  0.1848221E+03  0.7818608E-02  0.1163727E+00
         21   -1    0    0  501  502  0.00000000000E+00  0.00000000000E+00  0.27617742677E+03  0.27617742677E+03  0.00000000000E+00 0.  1.
         21   -1    0    0  502  503 -0.00000000000E+00 -0.00000000000E+00 -0.17670694302E+03  0.17670694302E+03  0.00000000000E+00 0.  1.
         -6    2    1    2    0  503  0.43320675763E+02  0.46376060510E+02 -0.75782165028E+02  0.19975522701E+03  0.17358512103E+03 0.  0.
        -24    2    3    3    0    0  0.59435131656E+02  0.22124159495E+02 -0.11345384706E+03  0.15191093771E+03  0.78632971919E+02 0.  0.
          6    2    1    2  501    0 -0.43320675763E+02 -0.46376060510E+02  0.17525264878E+03  0.25312914278E+03  0.17127011439E+03 0.  0.
         24    2    5    5    0    0  0.11170639590E+02 -0.25290235300E+01  0.20717786671E+02  0.83438307116E+02  0.80009657299E+02 0.  0.
          5    1    5    5  501    0 -0.54491315353E+02 -0.43847036980E+02  0.15453486211E+03  0.16969083566E+03  0.47000000000E+01 0. -1.
        -13    1    6    6    0    0 -0.21090381116E+02 -0.29896125027E+02  0.18691162677E+02  0.41084571672E+02  0.00000000000E+00 0.  1.
         14    1    6    6    0    0  0.32261020705E+02  0.27367101497E+02  0.20266239943E+01  0.42353735445E+02  0.00000000000E+00 0. -1.
         -5    1    3    3    0  503 -0.16114455893E+02  0.24251901015E+02  0.37671682035E+02  0.47844289304E+02  0.47000000000E+01 0.  1.
         11    1    4    4    0    0  0.96260701376E+01  0.11301400476E+02  0.10301730886E+02  0.18069547263E+02  0.00000000000E+00 0. -1.
        -12    1    4    4    0    0  0.49809061519E+02  0.10822759018E+02 -0.12375557795E+03  0.13384139044E+03  0.00000000000E+00 0.  1.
</event>
<event>
12    1  0.1594900E-001  0.1757775E+03  0.7818608E-02  0.1172444E+00
         21   -1    0    0  503  502  0.00000000000E+00  0.00000000000E+00  0.57411296039E+02  0.57411296039E+02  0.00000000000E+00 0.  1.
         21   -1    0    0  501  503 -0.00000000000E+00 -0.00000000000E+00 -0.53848764168E+03  0.53848764168E+03  0.00000000000E+00 0.  1.
          6    2    1    2  501    0  0.18984009120E+02 -0.39555349689E+02 -0.27404066664E+03  0.32557029178E+03  0.17021371750E+03 0.  0.
         24    2    3    3    0    0  0.59412485867E+02 -0.72266810535E+02 -0.17767723396E+03  0.21596872901E+03  0.79504446814E+02 0.  0.
         -6    2    1    2    0  502 -0.18984009120E+02  0.39555349689E+02 -0.20703567901E+03  0.27032864594E+03  0.16819270538E+03 0.  0.
        -24    2    5    5    0    0  0.61884972362E+01 -0.19980586620E+02 -0.42986886806E+02  0.93941914551E+02  0.80868346914E+02 0.  0.
          5    1    3    3  501    0 -0.40428476747E+02  0.32711460846E+02 -0.96363432679E+02  0.10960156276E+03  0.47000000000E+01 0. -1.
        -13    1    4    4    0    0  0.63901353890E+02 -0.33106043799E+02 -0.66413905128E+02  0.97929566318E+02  0.00000000000E+00 0.  1.
         14    1    4    4    0    0 -0.44888680235E+01 -0.39160766736E+02 -0.11126332883E+03  0.11803916270E+03  0.00000000000E+00 0. -1.
         -5    1    5    5    0  502 -0.25172506356E+02  0.59535936309E+02 -0.16404879220E+03  0.17638673139E+03  0.47000000000E+01 0.  1.
         11    1    6    6    0    0 -0.22302633984E+02  0.22130215168E+02 -0.86439265062E+01  0.32586367878E+02  0.00000000000E+00 0. -1.
        -12    1    6    6    0    0  0.28491131220E+02 -0.42110801788E+02 -0.34342960300E+02  0.61355546674E+02  0.00000000000E+00 0.  1.
</event>
<event>
12    1  0.1594900E-001  0.1975299E+03  0.7818608E-02  0.1154309E+00
         21   -1    0    0  501  502  0.00000000000E+00  0.00000000000E+00  0.19114632478E+03  0.19114632478E+03  0.00000000000E+00 0.  1.
         21   -1    0    0  502  503 -0.00000000000E+00 -0.00000000000E+00 -0.22825428179E+03  0.22825428179E+03  0.00000000000E+00 0.  1.
         -6    2    1    2    0  503  0.57557783990E+02 -0.43587299919E+02 -0.10077124127E+03  0.21186486287E+03  0.17181130883E+03 0.  0.
        -24    2    3    3    0    0  0.17989553868E+02  0.38808736163E+02 -0.73766549377E+02  0.11643900170E+03  0.79289313643E+02 0.  0.
          6    2    1    2  501    0 -0.57557783990E+02  0.43587299919E+02  0.63663284252E+02  0.20753574370E+03  0.18386223086E+03 0.  0.
         24    2    5    5    0    0 -0.68847649729E+02  0.96209843361E+02  0.32024338001E+02  0.14492818771E+03  0.77345255417E+02 0.  0.
          5    1    5    5  501    0  0.11289865739E+02 -0.52622543442E+02  0.31638946251E+02  0.62607555987E+02  0.47000000000E+01 0. -1.
        -13    1    6    6    0    0 -0.34780023904E+02  0.11440751072E+02  0.38763655234E+02  0.53321307326E+02  0.00000000000E+00 0.  1.
         14    1    6    6    0    0 -0.34067625825E+02  0.84769092289E+02 -0.67393172322E+01  0.91606880383E+02  0.00000000000E+00 0. -1.
         -5    1    3    3    0  503  0.39568230122E+02 -0.82396036081E+02 -0.27004691889E+02  0.95425861174E+02  0.47000000000E+01 0.  1.
         11    1    4    4    0    0  0.30827217130E+02  0.48796476554E+02 -0.80316183892E+02  0.98904513724E+02  0.00000000000E+00 0. -1.
        -12    1    4    4    0    0 -0.12837663262E+02 -0.99877403914E+01  0.65496345150E+01  0.17534487971E+02  0.00000000000E+00 0.  1.
</event>
<event>
12    1  0.1594900E-001  0.2205919E+03  0.7818608E-02  0.1133662E+00
         21   -1    0    0  503  502  0.00000000000E+00  0.00000000000E+00  0.75684473435E+02  0.75684473435E+02  0.00000000000E+00 0. -1.
         21   -1    0    0  501  503 -0.00000000000E+00 -0.00000000000E+00 -0.14494074044E+04  0.14494074044E+04  0.00000000000E+00 0. -1.
          6    2    1    2  501    0 -0.36868443717E+02  0.13004057198E+03 -0.12576866678E+04  0.12768854841E+04  0.17433001090E+03 0.  0.
         24    2    3    3    0    0 -0.27468597659E+02  0.58960627516E+01 -0.71230069541E+03  0.71744990681E+03  0.81072811071E+02 0.  0.
         -6    2    1    2    0  502  0.36868443717E+02 -0.13004057198E+03 -0.11603626325E+03  0.24820639380E+03  0.17283566480E+03 0.  0.
        -24    2    5    5    0    0  0.79132246211E+01 -0.35951532008E+02  0.96107657991E+01  0.88517890560E+02  0.79924454032E+02 0.  0.
          5    1    3    3  501    0 -0.93998460576E+01  0.12414450923E+03 -0.54538597235E+03  0.55943557727E+03  0.47000000000E+01 0. -1.
        -13    1    4    4    0    0 -0.38749571148E+02  0.27193143840E+02 -0.62772428054E+03  0.62950676622E+03  0.00000000000E+00 0.  1.
         14    1    4    4    0    0  0.11280973488E+02 -0.21297081089E+02 -0.84576414871E+02  0.87943140598E+02  0.00000000000E+00 0. -1.
         -5    1    5    5    0  502  0.28955219096E+02 -0.94089039977E+02 -0.12564702905E+03  0.15968850324E+03  0.47000000000E+01 0.  1.
         13    1    6    6    0    0 -0.48669407238E+01 -0.53246138281E+02 -0.15295244459E+02  0.55612794004E+02  0.00000000000E+00 0. -1.
        -14    1    6    6    0    0  0.12780165345E+02  0.17294606273E+02  0.24906010258E+02  0.32905096556E+02  0.00000000000E+00 0.  1.
</event>
<event>
12    1  0.1594900E-001  0.1933777E+03  0.7818608E-02  0.1155580E+00
         21   -1    0    0  503  502  0.00000000000E+00  0.00000000000E+00  0.48738394105E+03  0.48738394105E+03  0.00000000000E+00 0.  1.
         21   -1    0    0  501  503 -0.00000000000E+00 -0.00000000000E+00 -0.85745085170E+02  0.85745085170E+02  0.00000000000E+00 0. -1.
          6    2    1    2  501    0 -0.80218543797E+02  0.35445316106E+02  0.29468250271E+03  0.35214351793E+03  0.17168545253E+03 0.  0.
         24    2    3    3    0    0 -0.16874689456E+02  0.10130810413E+02  0.26455806218E+03  0.27742511324E+03  0.81156248855E+02 0.  0.
         -6    2    1    2    0  502  0.80218543797E+02 -0.35445316106E+02  0.10695635317E+03  0.22098550829E+03  0.17234717343E+03 0.  0.
        -24    2    5    5    0    0  0.11722041205E+02 -0.70056983776E+02  0.27407788321E+02  0.11035186705E+03  0.79880914333E+02 0.  0.
          5    1    3    3  501    0 -0.63343854341E+02  0.25314505693E+02  0.30124440531E+02  0.74718404684E+02  0.47000000000E+01 0. -1.
        -13    1    4    4    0    0  0.20473826789E+02 -0.33470570345E+01  0.17337990674E+02  0.27036758216E+02  0.00000000000E+00 0.  1.
         14    1    4    4    0    0 -0.37348516246E+02  0.13477867447E+02  0.24722007151E+03  0.25038835503E+03  0.00000000000E+00 0. -1.
         -5    1    5    5    0  502  0.68496502592E+02  0.34611667670E+02  0.79548564847E+02  0.11063364125E+03  0.47000000000E+01 0.  1.
         11    1    6    6    0    0  0.25241302195E+02  0.89030418915E+01  0.77833175656E+01  0.27874137184E+02  0.00000000000E+00 0. -1.
        -12    1    6    6    0    0 -0.13519260990E+02 -0.78960025667E+02  0.19624470755E+02  0.82477729864E+02  0.00000000000E+00 0.  1.
</event>
<event>
12    1  0.1594900E-001  0.1968941E+03  0.7818608E-02  0.1153563E+00
         21   -1    0    0  501  502  0.00000000000E+00  0.00000000000E+00  0.17476687009E+04  0.17476687009E+04  0.00000000000E+00 0. -1.
         21   -1    0    0  502  503 -0.00000000000E+00 -0.00000000000E+00 -0.22999815841E+02  0.22999815841E+02  0.00000000000E+00 0. -1.
         -6    2    1    2    0  503  0.80061971532E+02  0.33877622125E+02  0.10711051796E+04  0.10880904616E+04  0.17063684905E+03 0.  0.
        -24    2    3    3    0    0  0.14340932094E+02 -0.24893714462E+02  0.76668643114E+03  0.77112644242E+03  0.77476106988E+02 0.  0.
          6    2    1    2  501    0 -0.80061971532E+02 -0.33877622125E+02  0.65356370547E+03  0.68257805517E+03  0.17666259289E+03 0.  0.
         24    2    5    5    0    0 -0.11926836480E+03  0.18724362336E+01  0.46772442747E+03  0.48925569435E+03  0.79853275077E+02 0.  0.
          5    1    5    5  501    0  0.39206393270E+02 -0.35750058359E+02  0.18583927799E+03  0.19332236082E+03  0.47000000000E+01 0. -1.
        -11    1    6    6    0    0 -0.33599273046E+02  0.16243579881E+02  0.27917596790E+03  0.28165934405E+03  0.00000000000E+00 0.  1.
         12    1    6    6    0    0 -0.85669091757E+02 -0.14371143648E+02  0.18854845957E+03  0.20759635030E+03  0.00000000000E+00 0. -1.
         -5    1    3    3    0  503  0.65721039439E+02  0.58771336587E+02  0.30441874849E+03  0.31696401919E+03  0.47000000000E+01 0.  1.
         13    1    4    4    0    0  0.27025244725E+02 -0.35874959122E+01  0.68984144467E+03  0.69037993364E+03  0.00000000000E+00 0. -1.
        -14    1    4    4    0    0 -0.12684312631E+02 -0.21306218549E+02  0.76844986465E+02  0.80746508783E+02  0.00000000000E+00 0.  1.
</event>
<event>
12    1  0.1594900E-001  0.1768473E+03  0.7818608E-02  0.1171080E+00
         21   -1    0    0  503  502  0.00000000000E+00  0.00000000000E+00  0.43118431145E+02  0.43118431145E+02  0.00000000000E+00 0. -1.
         21   -1    0    0  501  503 -0.00000000000E+00 -0.00000000000E+00 -0.75132955171E+03  0.75132955171E+03  0.00000000000E+00 0. -1.
          6    2    1    2  501    0 -0.36276918655E+01  0.38818306391E+02 -0.43308799268E+03  0.46780356993E+03  0.17249623063E+03 0.  0.
         24    2    3    3    0    0 -0.34236939597E+02 -0.21978828797E+02 -0.13630368198E+03  0.16327732349E+03  0.80159551506E+02 0.  0.
         -6    2    1    2    0  502  0.36276918655E+01 -0.38818306391E+02 -0.27512312789E+03  0.32664441292E+03  0.17170852028E+03 0.  0.
        -24    2    5    5    0    0  0.11706623469E+02 -0.46721301949E+02 -0.63612677956E+02  0.11478010044E+03  0.82510445222E+02 0.  0.
          5    1    3    3  501    0  0.30609247731E+02  0.60797135188E+02 -0.29678431070E+03  0.30452624644E+03  0.47000000000E+01 0. -1.
        -13    1    4    4    0    0  0.10150702162E+02 -0.37804282522E+02 -0.39484419968E+02  0.55598740558E+02  0.00000000000E+00 0.  1.
         14    1    4    4    0    0 -0.44387641759E+02  0.15825453725E+02 -0.96819262012E+02  0.10767858294E+03  0.00000000000E+00 0. -1.
         -5    1    5    5    0  502 -0.80789316037E+01  0.79029955587E+01 -0.21151044993E+03  0.21186431249E+03  0.47000000000E+01 0.  1.
         11    1    6    6    0    0 -0.10802594329E+02 -0.62433257858E+02 -0.26645809237E+02  0.68735775844E+02  0.00000000000E+00 0. -1.
        -12    1    6    6    0    0  0.22509217798E+02  0.15711955908E+02 -0.36966868718E+02  0.46044324593E+02  0.00000000000E+00 0.  1.
</event>
<event>
12    1  0.1594900E-001  0.2154103E+03  0.7818608E-02  0.1140178E+00
         21   -1    0    0  503  502  0.00000000000E+00  0.00000000000E+00  0.10664181384E+03  0.10664181384E+03  0.00000000000E+00 0. -1.
         21   -1    0    0  501  503 -0.00000000000E+00 -0.00000000000E+00 -0.47196434497E+03  0.47196434497E+03  0.00000000000E+00 0. -1.
          6    2    1    2  501    0 -0.49860149698E+02 -0.10981281652E+03 -0.80639401813E+02  0.23000938913E+03  0.17848450007E+03 0.  0.
         24    2    3    3    0    0 -0.18429847888E+02 -0.14603339545E+03 -0.66462522417E+02  0.17978122852E+03  0.78984880578E+02 0.  0.
         -6    2    1    2    0  502  0.49860149698E+02  0.10981281652E+03 -0.28468312932E+03  0.34859676967E+03  0.16102898654E+03 0.  0.
        -24    2    5    5    0    0  0.85992308267E+02  0.80465056142E+02 -0.11912819832E+03  0.17655796852E+03  0.55784283384E+02 0.  0.
          5    1    3    3  501    0 -0.31430301810E+02  0.36220578929E+02 -0.14176879396E+02  0.50228160619E+02  0.47000000000E+01 0. -1.
        -13    1    4    4    0    0  0.25306460463E+02 -0.46044003721E+02 -0.43602895648E+02  0.68276494701E+02  0.00000000000E+00 0.  1.
         14    1    4    4    0    0 -0.43736308351E+02 -0.99989391731E+02 -0.22859626769E+02  0.11150473381E+03  0.00000000000E+00 0. -1.
         -5    1    5    5    0  502 -0.36132158569E+02  0.29347760382E+02 -0.16555493100E+03  0.17203880115E+03  0.47000000000E+01 0.  1.
         13    1    6    6    0    0  0.27130913545E+02  0.21090213190E+02 -0.44682231000E+01  0.34653262182E+02  0.00000000000E+00 0. -1.
        -14    1    6    6    0    0  0.58861394722E+02  0.59374842952E+02 -0.11465997522E+03  0.14190470634E+03  0.00000000000E+00 0.  1.
</event>
<event>
12    1  0.1594900E-001  0.1790407E+03  0.7818608E-02  0.1169148E+00
         21   -1    0    0  503  502  0.00000000000E+00  0.00000000000E+00  0.74759539898E+02  0.74759539898E+02  0.00000000000E+00 0. -1.
         21   -1    0    0  501  503 -0.00000000000E+00 -0.00000000000E+00 -0.43870495083E+03  0.43870495083E+03  0.00000000000E+00 0. -1.
          6    2    1    2  501    0  0.22303121078E+02  0.27303059892E+02 -0.22692974022E+03  0.28801192127E+03  0.17381275415E+03 0.  0.
         24    2    3    3    0    0  0.47416825167E+02 -0.24481000759E+02 -0.63907002785E+02  0.11506455936E+03  0.79423378852E+02 0.  0.
         -6    2    1    2    0  502 -0.22303121078E+02 -0.27303059892E+02 -0.13701567071E+03  0.22545256946E+03  0.17553541171E+03 0.  0.
        -24    2    5    5    0    0 -0.41020589381E+01 -0.68576433377E+02 -0.31171456646E+02  0.11030111409E+03  0.80468142506E+02 0.  0.
          5    1    3    3  501    0 -0.25113704089E+02  0.51784060651E+02 -0.16302273744E+03  0.17294736191E+03  0.47000000000E+01 0. -1.
        -13    1    4    4    0    0  0.44746323163E+02 -0.50506771470E+02 -0.56129254709E+02  0.87770499800E+02  0.00000000000E+00 0.  1.
         14    1    4    4    0    0  0.26705020041E+01  0.26025770711E+02 -0.77777480756E+01  0.27294059558E+02  0.00000000000E+00 0. -1.
         -5    1    5    5    0  502 -0.18201062140E+02  0.41273373485E+02 -0.10584421407E+03  0.11515145537E+03  0.47000000000E+01 0.  1.
         11    1    6    6    0    0  0.23422740189E+02 -0.13577696437E+02  0.17183498369E+02  0.32066356430E+02  0.00000000000E+00 0. -1.
        -12    1    6    6    0    0 -0.27524799127E+02 -0.54998736941E+02 -0.48354955016E+02  0.78234757663E+02  0.00000000000E+00 0.  1.
</event>
<event>
12    1  0.1594900E-001  0.2442340E+03  0.7818608E-02  0.1117199E+00
         21   -1    0    0  501  502  0.00000000000E+00  0.00000000000E+00  0.10629400506E+03  0.10629400506E+03  0.00000000000E+00 0. -1.
         21   -1    0    0  502  503 -0.00000000000E+00 -0.00000000000E+00 -0.61712218702E+03  0.61712218702E+03  0.00000000000E+00 0. -1.
         -6    2    1    2    0  503 -0.67663989972E+02 -0.15924691741E+03 -0.14331515732E+03  0.28214974238E+03  0.17067878182E+03 0.  0.
        -24    2    3    3    0    0  0.13696705721E+02 -0.13623094861E+03 -0.11799888815E+03  0.19376251984E+03  0.69811928669E+02 0.  0.
          6    2    1    2  501    0  0.67663989972E+02  0.15924691741E+03 -0.36751302464E+03  0.44126644969E+03  0.17237244587E+03 0.  0.
         24    2    5    5    0    0  0.31485825452E+02  0.10797637327E+02 -0.87996071434E+02  0.12267915321E+03  0.78733219601E+02 0.  0.
          5    1    5    5  501    0  0.36178164520E+02  0.14844928009E+03 -0.27951695321E+03  0.31858729648E+03  0.47000000000E+01 0. -1.
        -13    1    6    6    0    0  0.10365870830E+02  0.20095823054E+01 -0.97382240858E+02  0.97953001657E+02  0.00000000000E+00 0.  1.
         14    1    6    6    0    0  0.21119954621E+02  0.87880550213E+01  0.93861694239E+01  0.24726151555E+02  0.00000000000E+00 0. -1.
         -5    1    3    3    0  503 -0.81360695693E+02 -0.23015968806E+02 -0.25316269165E+02  0.88387222539E+02  0.47000000000E+01 0.  1.
         11    1    4    4    0    0 -0.19245911428E+02 -0.10957301578E+03 -0.87859840709E+02  0.14176037000E+03  0.00000000000E+00 0. -1.
        -12    1    4    4    0    0  0.32942617149E+02 -0.26657932828E+02 -0.30139047444E+02  0.52002149841E+02  0.00000000000E+00 0.  1.
</event>
<event>
12    1  0.1594900E-001  0.1780049E+03  0.7818608E-02  0.1169784E+00
         21   -1    0    0  501  502  0.00000000000E+00  0.00000000000E+00  0.21726799774E+03  0.21726799774E+03  0.00000000000E+00 0.  1.
         21   -1    0    0  502  503 -0.00000000000E+00 -0.00000000000E+00 -0.33012806149E+03  0.33012806149E+03  0.00000000000E+00 0.  1.
         -6    2    1    2    0  503 -0.99166319923E+01 -0.41550345061E+02 -0.26100116412E+03  0.31592303714E+03  0.17280331870E+03 0.  0.
        -24    2    3    3    0    0 -0.19316377917E+02 -0.69567953446E+02 -0.65130832742E+02  0.11778011317E+03  0.66462824811E+02 0.  0.
          6    2    1    2  501    0  0.99166319923E+01  0.41550345061E+02  0.14814110037E+03  0.23147302209E+03  0.17265342038E+03 0.  0.
         24    2    5    5    0    0 -0.38565251458E+01 -0.20239918868E+02  0.24951517358E+02  0.92889112713E+02  0.87070557251E+02 0.  0.
          5    1    5    5  501    0  0.13773157138E+02  0.61790263929E+02  0.12318958301E+03  0.13858390937E+03  0.47000000000E+01 0. -1.
        -11    1    6    6    0    0  0.14121075908E+02 -0.43688668867E+02  0.38935041852E+02  0.60200017078E+02  0.00000000000E+00 0.  1.
         12    1    6    6    0    0 -0.17977601053E+02  0.23448749999E+02 -0.13983524494E+02  0.32689095635E+02  0.00000000000E+00 0. -1.
         -5    1    3    3    0  503  0.93997459246E+01  0.28017608385E+02 -0.19587033138E+03  0.19814292397E+03  0.47000000000E+01 0.  1.
         11    1    4    4    0    0  0.21546143649E+02 -0.46337896235E+02 -0.32546200878E+02  0.60586237094E+02  0.00000000000E+00 0. -1.
        -12    1    4    4    0    0 -0.40862521566E+02 -0.23230057212E+02 -0.32584631864E+02  0.57193876075E+02  0.00000000000E+00 0.  1.
</event>
<event>
12    1  0.1594900E-001  0.2122700E+03  0.7818608E-02  0.1139919E+00
         21   -1    0    0  501  502  0.00000000000E+00  0.00000000000E+00  0.18109476941E+03  0.18109476941E+03  0.00000000000E+00 0.  1.
         21   -1    0    0  502  503 -0.00000000000E+00 -0.00000000000E+00 -0.24914341657E+03  0.24914341657E+03  0.00000000000E+00 0.  1.
         -6    2    1    2    0  503  0.74393970825E+02 -0.97078814946E+02 -0.48627254570E+02  0.21708156249E+03  0.17262976476E+03 0.  0.
        -24    2    3    3    0    0  0.53297022951E+01  0.13702464082E+02 -0.23093088302E+02  0.83978412201E+02  0.79390929834E+02 0.  0.
          6    2    1    2  501    0 -0.74393970825E+02  0.97078814946E+02 -0.19421392588E+02  0.21315662349E+03  0.17349292908E+03 0.  0.
         24    2    5    5    0    0 -0.87355111469E+02  0.25108823356E+02 -0.51777677695E+02  0.13305237864E+03  0.82223105294E+02 0.  0.
          5    1    5    5  501    0  0.12961140643E+02  0.71969991590E+02  0.32356285108E+02  0.80104244845E+02  0.47000000000E+01 0. -1.
        -11    1    6    6    0    0 -0.95837194500E+01  0.38415999339E+02 -0.17595954319E+01  0.39632472290E+02  0.00000000000E+00 0.  1.
         12    1    6    6    0    0 -0.77771392019E+02 -0.13307175983E+02 -0.50018082264E+02  0.93419906350E+02  0.00000000000E+00 0. -1.
         -5    1    3    3    0  503  0.69064268530E+02 -0.11078127903E+03 -0.25534166268E+02  0.13310315029E+03  0.47000000000E+01 0.  1.
         13    1    4    4    0    0 -0.42157413786E+01 -0.20568551188E+01  0.28661082592E+02  0.29042396314E+02  0.00000000000E+00 0. -1.
        -14    1    4    4    0    0  0.95454436737E+01  0.15759319200E+02 -0.51754170894E+02  0.54936015886E+02  0.00000000000E+00 0.  1.
</event>
<event>
12    1  0.1594900E-001  0.2049353E+03  0.7818608E-02  0.1145705E+00
         21   -1    0    0  501  502  0.00000000000E+00  0.00000000000E+00  0.12105504209E+03  0.12105504209E+03  0.00000000000E+00 0. -1.
         21   -1    0    0  502  503 -0.00000000000E+00 -0.00000000000E+00 -0.35827389134E+03  0.35827389134E+03  0.00000000000E+00 0. -1.
         -6    2    1    2    0  503 -0.99233438735E+02  0.52540653640E+02 -0.16214591621E+03  0.26107580315E+03  0.17105987606E+03 0.  0.
        -24    2    3    3    0    0 -0.59830747395E+02  0.97341982785E+02 -0.13113597046E+03  0.19367077430E+03  0.85185363326E+02 0.  0.
          6    2    1    2  501    0  0.99233438735E+02 -0.52540653640E+02 -0.75072933033E+02  0.21825313029E+03  0.17143712538E+03 0.  0.
         24    2    5    5    0    0  0.51960574705E+02  0.17657892407E+02 -0.87268965061E+02  0.13261789958E+03  0.83426210142E+02 0.  0.
          5    1    5    5  501    0  0.47272864029E+02 -0.70198546047E+02  0.12196032028E+02  0.85635230704E+02  0.47000000000E+01 0. -1.
        -11    1    6    6    0    0  0.14228982372E+02 -0.27117720227E+02 -0.61381654251E+02  0.68596954511E+02  0.00000000000E+00 0.  1.
         12    1    6    6    0    0  0.37731592334E+02  0.44775612634E+02 -0.25887310811E+02  0.64020945071E+02  0.00000000000E+00 0. -1.
         -5    1    3    3    0  503 -0.39402691339E+02 -0.44801329145E+02 -0.31009945755E+02  0.67405028845E+02  0.47000000000E+01 0.  1.
         11    1    4    4    0    0  0.13160587364E+01  0.49029365499E+02 -0.96790810772E+02  0.10850839480E+03  0.00000000000E+00 0. -1.
        -12    1    4    4    0    0 -0.61146806132E+02  0.48312617286E+02 -0.34345159687E+02  0.85162379506E+02  0.00000000000E+00 0.  1.
</event>
<event>
12    1  0.1594900E-001  0.2406282E+03  0.7818608E-02  0.1119444E+00
         21   -1    0    0  501  502  0.00000000000E+00  0.00000000000E+00  0.48540793844E+03  0.48540793844E+03  0.00000000000E+00 0.  1.
         21   -1    0    0  502  503 -0.00000000000E+00 -0.00000000000E+00 -0.14569867791E+03  0.14569867791E+03  0.00000000000E+00 0. -1.
         -6    2    1    2    0  503  0.36263139743E+02  0.16448819364E+03  0.34857901958E+02  0.24273016560E+03  0.17126435360E+03 0.  0.
        -24    2    3    3    0    0  0.15536903856E+02  0.83594711702E+02 -0.47107982853E+02  0.12562410877E+03  0.79578787686E+02 0.  0.
          6    2    1    2  501    0 -0.36263139743E+02 -0.16448819364E+03  0.30485135856E+03  0.38837645075E+03  0.17184450973E+03 0.  0.
         24    2    5    5    0    0  0.31106171411E+02 -0.10064489454E+03  0.10657996107E+03  0.16940561253E+03  0.79006232396E+02 0.  0.
          5    1    5    5  501    0 -0.67369311153E+02 -0.63843299101E+02  0.19827139749E+03  0.21897083822E+03  0.47000000000E+01 0. -1.
        -11    1    6    6    0    0 -0.52211057476E+01 -0.22896206197E+02  0.73959039563E+02  0.77597910645E+02  0.00000000000E+00 0.  1.
         12    1    6    6    0    0  0.36327277158E+02 -0.77748688346E+02  0.32620921506E+02  0.91807701884E+02  0.00000000000E+00 0. -1.
         -5    1    3    3    0  503  0.20726235886E+02  0.80893481942E+02  0.81965884811E+02  0.11710605684E+03  0.47000000000E+01 0.  1.
         11    1    4    4    0    0 -0.81947753121E+01  0.17312217347E+02 -0.51637807721E+02  0.55075678826E+02  0.00000000000E+00 0. -1.
        -12    1    4    4    0    0  0.23731679169E+02  0.66282494356E+02  0.45298248685E+01  0.70548429944E+02  0.00000000000E+00 0.  1.
</event>
<event>
12    1  0.1594900E-001  0.1880572E+03  0.7818608E-02  0.1160282E+00
         21   -1    0    0  503  502  0.00000000000E+00  0.00000000000E+00  0.45792274660E+02  0.45792274660E+02  0.00000000000E+00 0. -1.
         21   -1    0    0  501  503 -0.00000000000E+00 -0.00000000000E+00 -0.13606883093E+04  0.13606883093E+04  0.00000000000E+00 0. -1.
          6    2    1    2  501    0 -0.64830072802E+02  0.37422950443E+02 -0.11205345015E+04  0.11362055599E+04  0.17251692616E+03 0.  0.
         24    2    3    3    0    0 -0.90476855131E+02  0.35606199383E+02 -0.10890429726E+04  0.10952804524E+04  0.64581813691E+02 0.  0.
         -6    2    1    2    0  502  0.64830072802E+02 -0.37422950443E+02 -0.19436153311E+03  0.27027502400E+03  0.17224624084E+03 0.  0.
        -24    2    5    5    0    0  0.85454267883E+02  0.49661203876E+01 -0.69504890435E+02  0.13673303821E+03  0.80857279768E+02 0.  0.
          5    1    3    3  501    0  0.25646782329E+02  0.18167510602E+01 -0.31491528920E+02  0.40925107476E+02  0.47000000000E+01 0. -1.
        -11    1    4    4    0    0 -0.30453406137E+02  0.41918305795E+02 -0.65736077253E+03  0.65939952955E+03  0.00000000000E+00 0.  1.
         12    1    4    4    0    0 -0.60023448994E+02 -0.63121064114E+01 -0.43168220004E+03  0.43588092290E+03  0.00000000000E+00 0. -1.
         -5    1    5    5    0  502 -0.20624195081E+02 -0.42389070831E+02 -0.12485664267E+03  0.13354198579E+03  0.47000000000E+01 0.  1.
         11    1    6    6    0    0  0.48459343123E+02  0.22840139562E+02 -0.78147729470E+02  0.94747282454E+02  0.00000000000E+00 0. -1.
        -12    1    6    6    0    0  0.36994924760E+02 -0.17874019175E+02  0.86428390347E+01  0.41985755752E+02  0.00000000000E+00 0.  1.
</event>
<event>
12    1  0.1594900E-001  0.3575913E+03  0.7818608E-02  0.1059570E+00
         21   -1    0    0  501  502  0.00000000000E+00  0.00000000000E+00  0.13635375203E+03  0.13635375203E+03  0.00000000000E+00 0. -1.
         21   -1    0    0  502  503 -0.00000000000E+00 -0.00000000000E+00 -0.94002727343E+03  0.94002727343E+03  0.00000000000E+00 0. -1.
         -6    2    1    2    0  503 -0.30255368767E+03  0.80964141244E+02 -0.43203057994E+03  0.56063885505E+03  0.17196388488E+03 0.  0.
        -24    2    3    3    0    0 -0.31199855037E+03  0.89738987955E+02 -0.43280400839E+03  0.54689507254E+03  0.79866947476E+02 0.  0.
          6    2    1    2  501    0  0.30255368767E+03 -0.80964141244E+02 -0.37164294146E+03  0.51574217041E+03  0.17256182751E+03 0.  0.
         24    2    5    5    0    0  0.19722649312E+03 -0.86333868778E+02 -0.15906547997E+03  0.27839449501E+03  0.76484256207E+02 0.  0.
          5    1    5    5  501    0  0.10532719456E+03  0.53697275342E+01 -0.21257746149E+03  0.23734767540E+03  0.47000000000E+01 0. -1.
        -13    1    6    6    0    0  0.86944597450E+02 -0.56992097152E+01 -0.35157459258E+02  0.93956856901E+02  0.00000000000E+00 0.  1.
         14    1    6    6    0    0  0.11028189567E+03 -0.80634659063E+02 -0.12390802071E+03  0.18443763811E+03  0.00000000000E+00 0. -1.
         -5    1    3    3    0  503  0.94448626997E+01 -0.87748467114E+01  0.77342844889E+00  0.13743782514E+02  0.47000000000E+01 0.  1.
         13    1    4    4    0    0 -0.59717917178E+02  0.48675963964E+02 -0.78232467445E+02  0.10979935365E+03  0.00000000000E+00 0. -1.
        -14    1    4    4    0    0 -0.25228063319E+03  0.41063023991E+02 -0.35457154094E+03  0.43709571889E+03  0.00000000000E+00 0.  1.
</event>
<event>
12    1  0.1594900E-001  0.1994858E+03  0.7818608E-02  0.1151265E+00
         21   -1    0    0  501  502  0.00000000000E+00  0.00000000000E+00  0.59076155768E+02  0.59076155768E+02  0.00000000000E+00 0.  1.
         21   -1    0    0  502  503 -0.00000000000E+00 -0.00000000000E+00 -0.77362003513E+03  0.77362003513E+03  0.00000000000E+00 0.  1.
         -6    2    1    2    0  503  0.27777994839E+02  0.86955157971E+02 -0.51530967985E+03  0.55075848956E+03  0.17163342093E+03 0.  0.
        -24    2    3    3    0    0  0.77385458406E+02  0.30690607875E+02 -0.36983176105E+03  0.38701321513E+03  0.77931217236E+02 0.  0.
          6    2    1    2  501    0 -0.27777994839E+02 -0.86955157971E+02 -0.19923419952E+03  0.28193770135E+03  0.17737470137E+03 0.  0.
         24    2    5    5    0    0 -0.10644060894E+02 -0.98458855540E+02 -0.58482953327E+02  0.13960390334E+03  0.79129967343E+02 0.  0.
          5    1    5    5  501    0 -0.17133933945E+02  0.11503697569E+02 -0.14075124619E+03  0.14233379800E+03  0.47000000000E+01 0. -1.
        -11    1    6    6    0    0 -0.91297229961E+01 -0.11071218771E+03 -0.41455060177E+02  0.11857091702E+03  0.00000000000E+00 0.  1.
         12    1    6    6    0    0 -0.15143378974E+01  0.12253332167E+02 -0.17027893149E+02  0.21032986321E+02  0.00000000000E+00 0. -1.
         -5    1    3    3    0  503 -0.49607463567E+02  0.56264550096E+02 -0.14547791880E+03  0.16374527443E+03  0.47000000000E+01 0.  1.
         13    1    4    4    0    0  0.51991305536E+02  0.11096881214E+02 -0.33680449759E+03  0.34097434833E+03  0.00000000000E+00 0. -1.
        -14    1    4    4    0    0  0.25394152869E+02  0.19593726662E+02 -0.33027263463E+02  0.46038866801E+02  0.00000000000E+00 0.  1.
</event>
<event>
12    1  0.1594900E-001  0.1911181E+03  0.7818608E-02  0.1157701E+00
         21   -1    0    0  501  502  0.00000000000E+00  0.00000000000E+00  0.99479012538E+02  0.99479012538E+02  0.00000000000E+00 0.  1.
         21   -1    0    0  502  503 -0.00000000000E+00 -0.00000000000E+00 -0.54032393438E+03  0.54032393438E+03  0.00000000000E+00 0.  1.
         -6    2    1    2    0  503  0.27676418488E+02  0.81115953308E+02 -0.40217652509E+03  0.44481224475E+03  0.16960599554E+03 0.  0.
        -24    2    3    3    0    0  0.47861388574E+02  0.47148574387E+02 -0.11135657841E+03  0.15128277905E+03  0.77281893724E+02 0.  0.
          6    2    1    2  501    0 -0.27676418488E+02 -0.81115953308E+02 -0.38668396747E+02  0.19499070217E+03  0.17082255999E+03 0.  0.
         24    2    5    5    0    0 -0.41626976618E+02 -0.12336218894E+02  0.38114102056E+02  0.90861397643E+02  0.70129318599E+02 0.  0.
          5    1    5    5  501    0  0.13950558130E+02 -0.68779734414E+02 -0.76782498803E+02  0.10412930452E+03  0.47000000000E+01 0. -1.
        -13    1    6    6    0    0 -0.51239159423E+01 -0.29754376384E+02 -0.62450061530E+01  0.30831437372E+02  0.00000000000E+00 0.  1.
         14    1    6    6    0    0 -0.36503060675E+02  0.17418157490E+02  0.44359108209E+02  0.60029960271E+02  0.00000000000E+00 0. -1.
         -5    1    3    3    0  503 -0.20184970086E+02  0.33967378921E+02 -0.29081994668E+03  0.29352946570E+03  0.47000000000E+01 0.  1.
         13    1    4    4    0    0 -0.10531707787E+02  0.31290198420E+01  0.63652572083E+01  0.12697406562E+02  0.00000000000E+00 0. -1.
        -14    1    4    4    0    0  0.58393096361E+02  0.44019554545E+02 -0.11772183562E+03  0.13858537249E+03  0.00000000000E+00 0.  1.
</event>
<event>
12    1  0.1594900E-001  0.2650605E+03  0.7818608E-02  0.1104241E+00
         21   -1    0    0  503  502  0.00000000000E+00  0.00000000000E+00  0.12554585518E+04  0.12554585518E+04  0.00000000000E+00 0. -1.
         21   -1    0    0  501  503 -0.00000000000E+00 -0.00000000000E+00 -0.11030193803E+03  0.11030193803E+03  0.00000000000E+00 0. -1.
          6    2    1    2  501    0 -0.19972609413E+03 -0.16600979924E+02  0.92254090537E+02  0.28000692783E+03  0.17241507243E+03 0.  0.
         24    2    3    3    0    0 -0.15609461199E+03 -0.71154764443E+02  0.92570601694E+02  0.20999255917E+03  0.78096288096E+02 0.  0.
         -6    2    1    2    0  502  0.19972609413E+03  0.16600979924E+02  0.10529025232E+04  0.10857535620E+04  0.17346748614E+03 0.  0.
        -24    2    5    5    0    0  0.21651033964E+03 -0.80817790305E+01  0.91490742330E+03  0.94448896243E+03  0.89787329890E+02 0.  0.
          5    1    3    3  501    0 -0.43631482139E+02  0.54553784519E+02 -0.31651115756E+00  0.70014368656E+02  0.47000000000E+01 0. -1.
        -11    1    4    4    0    0 -0.27352095398E+02  0.53829523014E+01  0.44833783246E+02  0.52793763062E+02  0.00000000000E+00 0.  1.
         12    1    4    4    0    0 -0.12874251659E+03 -0.76537716745E+02  0.47736818449E+02  0.15719879611E+03  0.00000000000E+00 0. -1.
         -5    1    5    5    0  502 -0.16784245510E+02  0.24682758955E+02  0.13799509994E+03  0.14126459958E+03  0.47000000000E+01 0.  1.
         11    1    6    6    0    0  0.87814268326E+02  0.38039730209E+02  0.31582538113E+03  0.33000611837E+03  0.00000000000E+00 0. -1.
        -12    1    6    6    0    0  0.12869607131E+03 -0.46121509239E+02  0.59908204217E+03  0.61448284405E+03  0.00000000000E+00 0.  1.
</event>
<event>
12    1  0.1594900E-001  0.1722735E+03  0.7818608E-02  0.1175526E+00
         21   -1    0    0  501  502  0.00000000000E+00  0.00000000000E+00  0.30741125978E+03  0.30741125978E+03  0.00000000000E+00 0. -1.
         21   -1    0    0  502  503 -0.00000000000E+00 -0.00000000000E+00 -0.18592170228E+03  0.18592170228E+03  0.00000000000E+00 0. -1.
         -6    2    1    2    0  503  0.18543373719E+02 -0.96304597346E+01 -0.11035189174E+03  0.20449284407E+03  0.17088938177E+03 0.  0.
        -24    2    3    3    0    0 -0.43641402791E+01  0.57972948003E+02 -0.76996789642E+02  0.12556485302E+03  0.80362418321E+02 0.  0.
          6    2    1    2  501    0 -0.18543373719E+02  0.96304597346E+01  0.23184144924E+03  0.28884011799E+03  0.17100161902E+03 0.  0.
         24    2    5    5    0    0  0.71601218759E+01  0.45783712659E+02  0.22770482032E+03  0.24404135593E+03  0.74560596267E+02 0.  0.
          5    1    5    5  501    0 -0.25703495595E+02 -0.36153252925E+02  0.41366289172E+01  0.44798762055E+02  0.47000000000E+01 0. -1.
        -11    1    6    6    0    0 -0.33193832996E+02  0.24965497000E+02  0.12575974008E+03  0.13244100126E+03  0.00000000000E+00 0.  1.
         12    1    6    6    0    0  0.40353954872E+02  0.20818215659E+02  0.10194508024E+03  0.11160035467E+03  0.00000000000E+00 0. -1.
         -5    1    3    3    0  503  0.22907513998E+02 -0.67603407738E+02 -0.33355102096E+02  0.78927991050E+02  0.47000000000E+01 0.  1.
         11    1    4    4    0    0 -0.76423160257E+01 -0.19860589643E+02 -0.16055532700E+02  0.26657609523E+02  0.00000000000E+00 0. -1.
        -12    1    4    4    0    0  0.32781757466E+01  0.77833537646E+02 -0.60941256942E+02  0.98907243498E+02  0.00000000000E+00 0.  1.
</event>
<event>
12    1  0.1594900E-001  0.2132734E+03  0.7818608E-02  0.1139131E+00
         21   -1    0    0  501  502  0.00000000000E+00  0.00000000000E+00  0.31724333080E+03  0.31724333080E+03  0.00000000000E+00 0. -1.
         21   -1    0    0  502  503 -0.00000000000E+00 -0.00000000000E+00 -0.15944862615E+03  0.15944862615E+03  0.00000000000E+00 0.  1.
         -6    2    1    2    0  503  0.36323692948E+02  0.11995052481E+03  0.22800640735E+01  0.21328555601E+03  0.17256300484E+03 0.  0.
        -24    2    3    3    0    0  0.90503054464E+02  0.73021953554E+02 -0.61952323963E+01  0.14095565441E+03  0.79417296848E+02 0.  0.
          6    2    1    2  501    0 -0.36323692948E+02 -0.11995052481E+03  0.15551464057E+03  0.26340640095E+03  0.17172824332E+03 0.  0.
         24    2    5    5    0    0 -0.81589826076E+02 -0.81365326035E+02  0.62123296323E+02  0.15258278634E+03  0.78389965825E+02 0.  0.
          5    1    5    5  501    0  0.45266133129E+02 -0.38585198777E+02  0.93391344249E+02  0.11082361460E+03  0.47000000000E+01 0. -1.
        -11    1    6    6    0    0 -0.29564565983E+02 -0.12679916860E+02 -0.16308977003E+02  0.36066973594E+02  0.00000000000E+00 0.  1.
         12    1    6    6    0    0 -0.52025260093E+02 -0.68685409175E+02  0.78432273326E+02  0.11651581275E+03  0.00000000000E+00 0. -1.
         -5    1    3    3    0  503 -0.54179361516E+02  0.46928571258E+02  0.84752964698E+01  0.72329901596E+02  0.47000000000E+01 0.  1.
         11    1    4    4    0    0  0.64542324992E+02  0.37595477625E+02  0.33400933310E+02  0.81821476394E+02  0.00000000000E+00 0. -1.
        -12    1    4    4    0    0  0.25960729472E+02  0.35426475929E+02 -0.39596165707E+02  0.59134178020E+02  0.00000000000E+00 0.  1.
</event>
<event>
12    1  0.1594900E-001  0.2951946E+03  0.7818608E-02  0.1087740E+00
         21   -1    0    0  501  502  0.00000000000E+00  0.00000000000E+00  0.38906893843E+03  0.38906893843E+03  0.00000000000E+00 0.  1.
         21   -1    0    0  502  503 -0.00000000000E+00 -0.00000000000E+00 -0.26599537805E+03  0.26599537805E+03  0.00000000000E+00 0.  1.
         -6    2    1    2    0  503 -0.16217959324E+03  0.17654835111E+03 -0.69265273697E+02  0.30321198416E+03  0.17224485030E+03 0.  0.
        -24    2    3    3    0    0 -0.17322941012E+03  0.11401739039E+03 -0.20789530582E+02  0.22318569365E+03  0.79820144241E+02 0.  0.
          6    2    1    2  501    0  0.16217959324E+03 -0.17654835111E+03  0.19233883407E+03  0.35185233232E+03  0.17127257784E+03 0.  0.
         24    2    5    5    0    0  0.21086108765E+02 -0.50806103211E+02  0.29656167721E+02  0.10244057598E+03  0.81170802735E+02 0.  0.
          5    1    5    5  501    0  0.14109348447E+03 -0.12574224790E+03  0.16268266635E+03  0.24941175634E+03  0.47000000000E+01 0. -1.
        -11    1    6    6    0    0  0.44888014144E+02 -0.57858394139E+02  0.22162562760E+02  0.76509520808E+02  0.00000000000E+00 0.  1.
         12    1    6    6    0    0 -0.23801905378E+02  0.70522909285E+01  0.74936049614E+01  0.25931055171E+02  0.00000000000E+00 0. -1.
         -5    1    3    3    0  503  0.11049816885E+02  0.62530960719E+02 -0.48475743115E+02  0.80026290506E+02  0.47000000000E+01 0.  1.
         13    1    4    4    0    0 -0.39563546524E+02 -0.11960696548E+01  0.16395872196E+02  0.42843079036E+02  0.00000000000E+00 0. -1.
        -14    1    4    4    0    0 -0.13366586360E+03  0.11521346005E+03 -0.37185402778E+02  0.18034261462E+03  0.00000000000E+00 0.  1.
</event>
<event>
12    1  0.1594900E-001  0.1971050E+03  0.7818608E-02  0.1152562E+00
         21   -1    0    0  503  502  0.00000000000E+00  0.00000000000E+00  0.41804394469E+03  0.41804394469E+03  0.00000000000E+00 0.  1.
         21   -1    0    0  501  503 -0.00000000000E+00 -0.00000000000E+00 -0.15278918635E+03  0.15278918635E+03  0.00000000000E+00 0.  1.
          6    2    1    2  501    0 -0.29895558022E+02  0.88187156344E+02 -0.47510351171E+02  0.20114082988E+03  0.17184202351E+03 0.  0.
         24    2    3    3    0    0 -0.77485609325E+02  0.70146640233E+02 -0.18225774432E+01  0.13258621025E+03  0.81554954309E+02 0.  0.
         -6    2    1    2    0  502  0.29895558022E+02 -0.88187156344E+02  0.31276510951E+03  0.36969230116E+03  0.17372295436E+03 0.  0.
        -24    2    5    5    0    0  0.25421612284E+02 -0.11617649110E+03  0.15170016751E+03  0.20608476896E+03  0.72902371130E+02 0.  0.
          5    1    3    3  501    0  0.47590051303E+02  0.18040516111E+02 -0.45687773728E+02  0.68554619631E+02  0.47000000000E+01 0. -1.
        -11    1    4    4    0    0 -0.27538020706E+02 -0.10314809701E+02  0.19792713345E+02  0.35446994021E+02  0.00000000000E+00 0.  1.
         12    1    4    4    0    0 -0.49947588619E+02  0.80461449935E+02 -0.21615290788E+02  0.97139216233E+02  0.00000000000E+00 0. -1.
         -5    1    5    5    0  502  0.44739457379E+01  0.27989334759E+02  0.16106494200E+03  0.16360753220E+03  0.47000000000E+01 0.  1.
         13    1    6    6    0    0 -0.25540784905E+01 -0.11322884353E+01 -0.73167100363E+01  0.78319627037E+01  0.00000000000E+00 0. -1.
        -14    1    6    6    0    0  0.27975690774E+02 -0.11504420267E+03  0.15901687755E+03  0.19825280625E+03  0.00000000000E+00 0.  1.
</event>
<event>
12    1  0.1594900E-001  0.2165127E+03  0.7818608E-02  0.1137872E+00
         21   -1    0    0  501  502  0.00000000000E+00  0.00000000000E+00  0.17968979440E+03  0.17968979440E+03  0.00000000000E+00 0. -1.
         21   -1    0    0  502  503 -0.00000000000E+00 -0.00000000000E+00 -0.26467613555E+03  0.26467613555E+03  0.00000000000E+00 0. -1.
         -6    2    1    2    0  503  0.46562185355E+02  0.10928051627E+03 -0.90857614116E+02  0.23480389836E+03  0.18101794469E+03 0.  0.
        -24    2    3    3    0    0 -0.11228972493E+02  0.12126659678E+03 -0.97512456726E+02  0.17522318855E+03  0.79767219281E+02 0.  0.
          6    2    1    2  501    0 -0.46562185355E+02 -0.10928051627E+03  0.58712729699E+01  0.20956203159E+03  0.17254421143E+03 0.  0.
         24    2    5    5    0    0 -0.26204598485E+02  0.46164987548E+01 -0.25472626978E+02  0.89597489168E+02  0.81675346938E+02 0.  0.
          5    1    5    5  501    0 -0.20357586870E+02 -0.11389701503E+03  0.31343899948E+02  0.11996454242E+03  0.47000000000E+01 0. -1.
        -13    1    6    6    0    0  0.15753252827E+02 -0.15579013287E+02  0.15929830214E+02  0.27287911614E+02  0.00000000000E+00 0.  1.
         14    1    6    6    0    0 -0.41957851312E+02  0.20195512042E+02 -0.41402457192E+02  0.62309577553E+02  0.00000000000E+00 0. -1.
         -5    1    3    3    0  503  0.57791157849E+02 -0.11986080505E+02  0.66548426101E+01  0.59580709810E+02  0.47000000000E+01 0.  1.
         13    1    4    4    0    0  0.32397041016E+02  0.74140394280E+02 -0.47457113707E+02  0.93800554220E+02  0.00000000000E+00 0. -1.
        -14    1    4    4    0    0 -0.43626013509E+02  0.47126202497E+02 -0.50055343019E+02  0.81422634330E+02  0.00000000000E+00 0.  1.
</event>
<event>
12    1  0.1594900E-001  0.1731701E+03  0.7818608E-02  0.1174656E+00
         21   -1    0    0  501  502  0.00000000000E+00  0.00000000000E+00  0.10629662603E+03  0.10629662603E+03  0.00000000000E+00 0.  1.
         21   -1    0    0  502  503 -0.00000000000E+00 -0.00000000000E+00 -0.49613373285E+03  0.49613373285E+03  0.00000000000E+00 0.  1.
         -6    2    1    2    0  503 -0.11187885443E+02 -0.11007322442E+02 -0.39287922138E+03  0.42923355935E+03  0.17216572235E+03 0.  0.
        -24    2    3    3    0    0 -0.10538818731E+02  0.56860391702E+00 -0.49002926796E+02  0.85129767834E+02  0.68806980215E+02 0.  0.
          6    2    1    2  501    0  0.11187885443E+02  0.11007322442E+02  0.30421145655E+01  0.17319679952E+03  0.17245737727E+03 0.  0.
         24    2    5    5    0    0 -0.57516293370E+02  0.13781170326E+02 -0.17084566519E+02  0.10139755364E+03  0.80570073920E+02 0.  0.
          5    1    5    5  501    0  0.68704178813E+02 -0.27738478841E+01  0.20126681084E+02  0.71799245886E+02  0.47000000000E+01 0. -1.
        -13    1    6    6    0    0 -0.30772302618E+02 -0.11193488425E+02  0.28173771621E+02  0.43197108687E+02  0.00000000000E+00 0.  1.
         14    1    6    6    0    0 -0.26743990752E+02  0.24974658751E+02 -0.45258338140E+02  0.58200444949E+02  0.00000000000E+00 0. -1.
         -5    1    3    3    0  503 -0.64906671197E+00 -0.11575926359E+02 -0.34387629459E+03  0.34410379152E+03  0.47000000000E+01 0.  1.
         11    1    4    4    0    0 -0.33101700338E+02 -0.16890253892E+02 -0.41344003013E+02  0.55590735082E+02  0.00000000000E+00 0. -1.
        -12    1    4    4    0    0  0.22562881608E+02  0.17458857809E+02 -0.76589237824E+01  0.29539032752E+02  0.00000000000E+00 0.  1.
</event>
<event>
12    1  0.1594900E-001  0.2118816E+03  0.7818608E-02  0.1140136E+00
         21   -1    0    0  501  502  0.00000000000E+00  0.00000000000E+00  0.11024141234E+03  0.11024141234E+03  0.00000000000E+00 0.  1.
         21   -1    0    0  502  503 -0.00000000000E+00 -0.00000000000E+00 -0.13208896441E+04  0.13208896441E+04  0.00000000000E+00 0.  1.
         -6    2    1    2    0  503  0.70511074075E+02  0.10017703860E+03 -0.12004977724E+04  0.12190064972E+04  0.17255343537E+03 0.  0.
        -24    2    3    3    0    0  0.46829969515E+02  0.13257470049E+03 -0.79159348592E+03  0.80811087942E+03  0.81571129931E+02 0.  0.
          6    2    1    2  501    0 -0.70511074075E+02 -0.10017703860E+03 -0.10150459356E+02  0.21212455923E+03  0.17287725753E+03 0.  0.
         24    2    5    5    0    0 -0.98799923351E+02 -0.74326934182E+02  0.35549872272E+02  0.15229900279E+03  0.81518555145E+02 0.  0.
          5    1    5    5  501    0  0.28288849276E+02 -0.25850104421E+02 -0.45700331629E+02  0.59825556436E+02  0.47000000000E+01 0. -1.
        -11    1    6    6    0    0 -0.55437912462E+02  0.44146298956E+00  0.35564573451E+02  0.65866500685E+02  0.00000000000E+00 0.  1.
         12    1    6    6    0    0 -0.43362010889E+02 -0.74768397171E+02 -0.14701178567E-01  0.86432502104E+02  0.00000000000E+00 0. -1.
         -5    1    3    3    0  503  0.23681104560E+02 -0.32397661883E+02 -0.40890428650E+03  0.41089561780E+03  0.47000000000E+01 0.  1.
         11    1    4    4    0    0  0.56592085229E+01  0.78379467859E+02 -0.24494825935E+03  0.25724505317E+03  0.00000000000E+00 0. -1.
        -12    1    4    4    0    0  0.41170760992E+02  0.54195232627E+02 -0.54664522657E+03  0.55086582625E+03  0.00000000000E+00 0.  1.
</event>
<event>
12    1  0.1594900E-001  0.1974534E+03  0.7818608E-02  0.1152711E+00
         21   -1    0    0  501  502  0.00000000000E+00  0.00000000000E+00  0.38953054480E+03  0.38953054480E+03  0.00000000000E+00 0. -1.
         21   -1    0    0  502  503 -0.00000000000E+00 -0.00000000000E+00 -0.15616914469E+03  0.15616914469E+03  0.00000000000E+00 0. -1.
         -6    2    1    2    0  503 -0.85625537698E+02  0.29495947767E+02 -0.48833016435E+02  0.20340236154E+03  0.17545972057E+03 0.  0.
        -24    2    3    3    0    0 -0.18176167879E+02  0.70631440382E+02  0.63785708034E+01  0.10690388690E+03  0.77901100247E+02 0.  0.
          6    2    1    2  501    0  0.85625537698E+02 -0.29495947767E+02  0.28219441655E+03  0.34229732795E+03  0.17126595795E+03 0.  0.
         24    2    5    5    0    0  0.49881615542E+01  0.21747545264E+02  0.70624797398E+02  0.11010758710E+03  0.81473807134E+02 0.  0.
          5    1    5    5  501    0  0.80637376144E+02 -0.51243493031E+02  0.21156961915E+03  0.23218974085E+03  0.47000000000E+01 0. -1.
        -11    1    6    6    0    0 -0.35971268001E+02 -0.34669926366E+01  0.26242825858E+02  0.44661371100E+02  0.00000000000E+00 0.  1.
         12    1    6    6    0    0  0.40959429555E+02  0.25214537901E+02  0.44381971540E+02  0.65446216000E+02  0.00000000000E+00 0. -1.
         -5    1    3    3    0  503 -0.67449369818E+02 -0.41135492616E+02 -0.55211587239E+02  0.96498474636E+02  0.47000000000E+01 0.  1.
         13    1    4    4    0    0 -0.44133903056E+02  0.66373309877E+02  0.10073017346E+02  0.80341043940E+02  0.00000000000E+00 0. -1.
        -14    1    4    4    0    0  0.25957735176E+02  0.42581305055E+01 -0.36944465425E+01  0.26562842961E+02  0.00000000000E+00 0.  1.
</event>
<event>
12    1  0.1594900E-001  0.2014355E+03  0.7818608E-02  0.1148607E+00
         21   -1    0    0  503  502  0.00000000000E+00  0.00000000000E+00  0.19210474568E+03  0.19210474568E+03  0.00000000000E+00 0. -1.
         21   -1    0    0  501  503 -0.00000000000E+00 -0.00000000000E+00 -0.21776620077E+03  0.21776620077E+03  0.00000000000E+00 0. -1.
          6    2    1    2  501    0 -0.49524996882E+02 -0.91988507658E+02  0.23674425697E+02  0.20282192082E+03  0.17222555640E+03 0.  0.
         24    2    3    3    0    0 -0.14896510460E+02 -0.11459727386E+03 -0.19455731609E+02  0.14288371222E+03  0.81748324295E+02 0.  0.
         -6    2    1    2    0  502  0.49524996882E+02  0.91988507658E+02 -0.49335880779E+02  0.20704902563E+03  0.17181577059E+03 0.  0.
        -24    2    5    5    0    0 -0.49332444485E+01  0.99477690775E+02 -0.73798621777E+02  0.14669752515E+03  0.78446028874E+02 0.  0.
          5    1    3    3  501    0 -0.34628486422E+02  0.22608766204E+02  0.43130157306E+02  0.59938208601E+02  0.47000000000E+01 0. -1.
        -11    1    4    4    0    0  0.28788435278E+02 -0.81062218170E+02 -0.62442172316E+01  0.86248753436E+02  0.00000000000E+00 0.  1.
         12    1    4    4    0    0 -0.43684945738E+02 -0.33535055692E+02 -0.13211514377E+02  0.56634958785E+02  0.00000000000E+00 0. -1.
         -5    1    5    5    0  502  0.54458241331E+02 -0.74891831171E+01  0.24462740998E+02  0.60351500476E+02  0.47000000000E+01 0.  1.
         13    1    6    6    0    0  0.11426152946E+02  0.81429755658E+02 -0.15718873244E+02  0.83716456289E+02  0.00000000000E+00 0. -1.
        -14    1    6    6    0    0 -0.16359397394E+02  0.18047935117E+02 -0.58079748533E+02  0.62981068860E+02  0.00000000000E+00 0.  1.
</event>
<event>
12    1  0.1594900E-001  0.1746015E+03  0.7818608E-02  0.1173485E+00
         21   -1    0    0  503  502  0.00000000000E+00  0.00000000000E+00  0.23699214425E+03  0.23699214425E+03  0.00000000000E+00 0. -1.
         21   -1    0    0  501  503 -0.00000000000E+00 -0.00000000000E+00 -0.13031082340E+03  0.13031082340E+03  0.00000000000E+00 0. -1.
          6    2    1    2  501    0 -0.24628715916E+02 -0.81785792818E+01  0.27117471785E+02  0.17669473138E+03  0.17266212096E+03 0.  0.
         24    2    3    3    0    0 -0.26660484548E+00  0.54977898166E+02 -0.21400742116E+02  0.93277945426E+02  0.72250556917E+02 0.  0.
         -6    2    1    2    0  502  0.24628715916E+02  0.81785792818E+01  0.79563849067E+02  0.19060823627E+03  0.17125311924E+03 0.  0.
        -24    2    5    5    0    0  0.72016043182E+02  0.42757329279E+02  0.60917447745E+02  0.12887472010E+03  0.76702401259E+02 0.  0.
          5    1    3    3  501    0 -0.24362111071E+02 -0.63156477448E+02  0.48518213901E+02  0.83416785958E+02  0.47000000000E+01 0. -1.
        -13    1    4    4    0    0  0.30052008231E+02  0.22407863477E+02  0.10023109813E+02  0.38803328139E+02  0.00000000000E+00 0.  1.
         14    1    4    4    0    0 -0.30318613077E+02  0.32570034689E+02 -0.31423851929E+02  0.54474617287E+02  0.00000000000E+00 0. -1.
         -5    1    5    5    0  502 -0.47387327266E+02 -0.34578749997E+02  0.18646401322E+02  0.61733516172E+02  0.47000000000E+01 0.  1.
         11    1    6    6    0    0  0.25707844809E+02  0.38936833597E+02  0.67384595029E+02  0.81961295393E+02  0.00000000000E+00 0. -1.
        -12    1    6    6    0    0  0.46308198373E+02  0.38204956817E+01 -0.64671472844E+01  0.46913424708E+02  0.00000000000E+00 0.  1.
</event>
<event>
12    1  0.1594900E-001  0.2499784E+03  0.7818608E-02  0.1113844E+00
         21   -1    0    0  503  502  0.00000000000E+00  0.00000000000E+00  0.10381544187E+04  0.10381544187E+04  0.00000000000E+00 0.  1.
         21   -1    0    0  501  503 -0.00000000000E+00 -0.00000000000E+00 -0.60610538903E+02  0.60610538903E+02  0.00000000000E+00 0.  1.
          6    2    1    2  501    0  0.17051422464E+03  0.66052424207E+02  0.41433178943E+03  0.48390082623E+03  0.17044399180E+03 0.  0.
         24    2    3    3    0    0  0.22148002678E+02 -0.80747290231E+01  0.18137081607E+03  0.19789335119E+03  0.75568976795E+02 0.  0.
         -6    2    1    2    0  502 -0.17051422464E+03 -0.66052424207E+02  0.56321209041E+03  0.61486413142E+03  0.16556575060E+03 0.  0.
        -24    2    5    5    0    0 -0.14382265251E+03 -0.21304015033E+02  0.26955781236E+03  0.31658609810E+03  0.80165621496E+02 0.  0.
          5    1    3    3  501    0  0.14836622196E+03  0.74127153230E+02  0.23296097337E+03  0.28600747504E+03  0.47000000000E+01 0. -1.
        -11    1    4    4    0    0  0.18021746261E+02 -0.62517721451E+01  0.28165846141E+01  0.19282145683E+02  0.00000000000E+00 0.  1.
         12    1    4    4    0    0  0.41262564176E+01 -0.18229568780E+01  0.17855423145E+03  0.17861120551E+03  0.00000000000E+00 0. -1.
         -5    1    5    5    0  502 -0.26691572128E+02 -0.44748409174E+02  0.29365427805E+03  0.29827803333E+03  0.47000000000E+01 0.  1.
         11    1    6    6    0    0 -0.48416733152E+02 -0.43560513322E+02  0.79558127134E+02  0.10281631176E+03  0.00000000000E+00 0. -1.
        -12    1    6    6    0    0 -0.95405919363E+02  0.22256498289E+02  0.18999968523E+03  0.21376978634E+03  0.00000000000E+00 0.  1.
</event>
<event>
12    1  0.1594900E-001  0.2037519E+03  0.7818608E-02  0.1146667E+00
         21   -1    0    0  501  502  0.00000000000E+00  0.00000000000E+00  0.92402035028E+02  0.92402035028E+02  0.00000000000E+00 0.  1.
         21   -1    0    0  502  503 -0.00000000000E+00 -0.00000000000E+00 -0.51606372708E+03  0.51606372708E+03  0.00000000000E+00 0.  1.
         -6    2    1    2    0  503  0.10640096965E+03  0.24980010882E+02 -0.10202548360E+03  0.22786847519E+03  0.17195835366E+03 0.  0.
        -24    2    3    3    0    0  0.10463194430E+03 -0.40728239331E+02 -0.75162957190E+02  0.15670395508E+03  0.79372704112E+02 0.  0.
          6    2    1    2  501    0 -0.10640096965E+03 -0.24980010882E+02 -0.32163620845E+03  0.38059728692E+03  0.17163705001E+03 0.  0.
         24    2    5    5    0    0 -0.54138227833E+01  0.29937420593E+02 -0.16606085480E+03  0.18710281988E+03  0.80657913932E+02 0.  0.
          5    1    5    5  501    0 -0.10098714687E+03 -0.54917431475E+02 -0.15557535365E+03  0.19349446704E+03  0.47000000000E+01 0. -1.
        -11    1    6    6    0    0  0.31290259642E+01 -0.27221199138E+02 -0.67466746521E+02  0.72818585348E+02  0.00000000000E+00 0.  1.
         12    1    6    6    0    0 -0.85428487476E+01  0.57158619731E+02 -0.98594108283E+02  0.11428423453E+03  0.00000000000E+00 0. -1.
         -5    1    3    3    0  503  0.17690253479E+01  0.65708250213E+02 -0.26862526412E+02  0.71164520106E+02  0.47000000000E+01 0.  1.
         13    1    4    4    0    0  0.21153804808E+01 -0.61083056849E+01 -0.43477985703E+02  0.43955903742E+02  0.00000000000E+00 0. -1.
        -14    1    4    4    0    0  0.10251656382E+03 -0.34619933646E+02 -0.31684971487E+02  0.11274805134E+03  0.00000000000E+00 0.  1.
</event>
<event>
12    1  0.1594900E-001  0.2692912E+03  0.7818608E-02  0.1101925E+00
         21   -1    0    0  501  502  0.00000000000E+00  0.00000000000E+00  0.40640238391E+03  0.40640238391E+03  0.00000000000E+00 0.  1.
         21   -1    0    0  502  503 -0.00000000000E+00 -0.00000000000E+00 -0.19655788274E+03  0.19655788274E+03  0.00000000000E+00 0.  1.
         -6    2    1    2    0  503  0.16508037770E+03 -0.12461162997E+03  0.10364336927E+02  0.26783330268E+03  0.16984601591E+03 0.  0.
        -24    2    3    3    0    0  0.96637970498E+02 -0.64202298341E+01  0.32406220209E+02  0.12940821540E+03  0.79474564564E+02 0.  0.
          6    2    1    2  501    0 -0.16508037770E+03  0.12461162997E+03  0.19948016425E+03  0.33512696398E+03  0.17244754748E+03 0.  0.
         24    2    5    5    0    0 -0.13772485940E+03  0.22423232303E+02  0.95575176361E+02  0.18677222187E+03  0.79235789149E+02 0.  0.
          5    1    5    5  501    0 -0.27355518298E+02  0.10218839766E+03  0.10390498789E+03  0.14835474211E+03  0.47000000000E+01 0. -1.
        -11    1    6    6    0    0 -0.10331825250E+03  0.24799804879E+02  0.10665366103E+03  0.15054798249E+03  0.00000000000E+00 0.  1.
         12    1    6    6    0    0 -0.34406606902E+02 -0.23765725763E+01 -0.11078484672E+02  0.36224239375E+02  0.00000000000E+00 0. -1.
         -5    1    3    3    0  503  0.68442407199E+02 -0.11819140013E+03 -0.22041883282E+02  0.13842508727E+03  0.47000000000E+01 0.  1.
         11    1    4    4    0    0  0.38042539836E+02 -0.12240481765E+02  0.53572124840E+02  0.66835894480E+02  0.00000000000E+00 0. -1.
        -12    1    4    4    0    0  0.58595430661E+02  0.58202519306E+01 -0.21165904631E+02  0.62572320924E+02  0.00000000000E+00 0.  1.
</event>
<event>
12    1  0.1594900E-001  0.2552530E+03  0.7818608E-02  0.1110141E+00
         21   -1    0    0  501  502  0.00000000000E+00  0.00000000000E+00  0.81284372423E+03  0.81284372423E+03  0.00000000000E+00 0. -1.
         21   -1    0    0  502  503 -0.00000000000E+00 -0.00000000000E+00 -0.20995609652E+03  0.20995609652E+03  0.00000000000E+00 0.  1.
         -6    2    1    2    0  503 -0.54299352148E+02 -0.18043926313E+03 -0.10117104303E+03  0.27389883826E+03  0.17110887273E+03 0.  0.
        -24    2    3    3    0    0 -0.63829769401E+02 -0.36026956294E+02 -0.65068115116E+02  0.12466327070E+03  0.77038239956E+02 0.  0.
          6    2    1    2  501    0  0.54299352148E+02  0.18043926313E+03  0.70405867074E+03  0.74890098249E+03  0.17218397837E+03 0.  0.
         24    2    5    5    0    0  0.53658791025E+02  0.17557010303E+03  0.45778809054E+03  0.50253660253E+03  0.96275511497E+02 0.  0.
          5    1    5    5  501    0  0.64056112255E+00  0.48691600998E+01  0.24627058020E+03  0.24636437996E+03  0.47000000000E+01 0. -1.
        -11    1    6    6    0    0  0.88716589721E+01  0.14259337417E+03  0.38688913596E+03  0.41242548444E+03  0.00000000000E+00 0.  1.
         12    1    6    6    0    0  0.44787132053E+02  0.32976728869E+02  0.70898954576E+02  0.90111118095E+02  0.00000000000E+00 0. -1.
         -5    1    3    3    0  503  0.95304172534E+01 -0.14441230684E+03 -0.36102927913E+02  0.14923556756E+03  0.47000000000E+01 0.  1.
         13    1    4    4    0    0  0.92157193651E+01  0.11249395656E+02 -0.24885666407E+02  0.28823163923E+02  0.00000000000E+00 0. -1.
        -14    1    4    4    0    0 -0.73045488766E+02 -0.47276351950E+02 -0.40182448709E+02  0.95840106777E+02  0.00000000000E+00 0.  1.
</event>
<event>
12    1  0.1594900E-001  0.2186325E+03  0.7818608E-02  0.1135484E+00
         21   -1    0    0  503  502  0.00000000000E+00  0.00000000000E+00  0.61324682848E+03  0.61324682848E+03  0.00000000000E+00 0. -1.
         21   -1    0    0  501  503 -0.00000000000E+00 -0.00000000000E+00 -0.95815364656E+02  0.95815364656E+02  0.00000000000E+00 0. -1.
          6    2    1    2  501    0  0.11011923903E+02 -0.13002355295E+03  0.41784640585E+03  0.47158856364E+03  0.17542168533E+03 0.  0.
         24    2    3    3    0    0  0.57495924690E+02 -0.10237333072E+03  0.18933778355E+03  0.23671928599E+03  0.80007148937E+02 0.  0.
         -6    2    1    2    0  502 -0.11011923903E+02  0.13002355295E+03  0.99585057974E+02  0.23747362949E+03  0.17160755853E+03 0.  0.
        -24    2    5    5    0    0  0.60601721497E+02  0.82234963925E+02  0.53938881566E+02  0.13991376649E+03  0.78938591126E+02 0.  0.
          5    1    3    3  501    0 -0.46484000787E+02 -0.27650222233E+02  0.22850862230E+03  0.23486927765E+03  0.47000000000E+01 0. -1.
        -13    1    4    4    0    0  0.23929854901E+02  0.63752175991E+01  0.16438228204E+02  0.29723672409E+02  0.00000000000E+00 0.  1.
         14    1    4    4    0    0  0.33566069789E+02 -0.10874854832E+03  0.17289955535E+03  0.20699561358E+03  0.00000000000E+00 0. -1.
         -5    1    5    5    0  502 -0.71613645400E+02  0.47788589029E+02  0.45646176408E+02  0.97559863004E+02  0.47000000000E+01 0.  1.
         11    1    6    6    0    0  0.15556935212E+02  0.77555361690E+02  0.51847895265E+02  0.94578309371E+02  0.00000000000E+00 0. -1.
        -12    1    6    6    0    0  0.45044786285E+02  0.46796022347E+01  0.20909863010E+01  0.45335457120E+02  0.00000000000E+00 0.  1.
</event>
<event>
12    1  0.1594900E-001  0.1830617E+03  0.7818608E-02  0.1164917E+00
         21   -1    0    0  501  502  0.00000000000E+00  0.00000000000E+00  0.51157147062E+02  0.51157147062E+02  0.00000000000E+00 0. -1.
         21   -1    0    0  502  503 -0.00000000000E+00 -0.00000000000E+00 -0.78142420115E+03  0.78142420115E+03  0.00000000000E+00 0. -1.
         -6    2    1    2    0  503 -0.59579279800E+02  0.14322795057E+02 -0.53281652012E+03  0.56332624596E+03  0.17230258918E+03 0.  0.
        -24    2    3    3    0    0 -0.98699869662E+02  0.39267934166E+02 -0.32742786645E+03  0.35270984211E+03  0.76886865377E+02 0.  0.
          6    2    1    2  501    0  0.59579279800E+02 -0.14322795057E+02 -0.19745053397E+03  0.26925510225E+03  0.17250148893E+03 0.  0.
         24    2    5    5    0    0 -0.24283393427E+02 -0.12957494453E+02 -0.15227050342E+03  0.17387094651E+03  0.79291991831E+02 0.  0.
          5    1    5    5  501    0  0.83862673226E+02 -0.13653006045E+01 -0.45180030551E+02  0.95384155744E+02  0.47000000000E+01 0. -1.
        -11    1    6    6    0    0  0.45307286614E+01  0.22108776101E+02 -0.10848278342E+03  0.11080541404E+03  0.00000000000E+00 0.  1.
         12    1    6    6    0    0 -0.28814122088E+02 -0.35066270554E+02 -0.43787720008E+02  0.63065532470E+02  0.00000000000E+00 0. -1.
         -5    1    3    3    0  503  0.39120589862E+02 -0.24945139109E+02 -0.20538865366E+03  0.21061640385E+03  0.47000000000E+01 0.  1.
         13    1    4    4    0    0 -0.52745665218E+02  0.57036360537E+02 -0.24115481602E+03  0.25335922504E+03  0.00000000000E+00 0. -1.
        -14    1    4    4    0    0 -0.45954204444E+02 -0.17768426371E+02 -0.86273050435E+02  0.99350617075E+02  0.00000000000E+00 0.  1.
</event>
<event>
12    1  0.1594900E-001  0.1843502E+03  0.7818608E-02  0.1163866E+00
         21   -1    0    0  503  502  0.00000000000E+00  0.00000000000E+00  0.21967531463E+02  0.21967531463E+02  0.00000000000E+00 0.  1.
         21   -1    0    0  501  503 -0.00000000000E+00 -0.00000000000E+00 -0.18249689723E+04  0.18249689723E+04  0.00000000000E+00 0.  1.
          6    2    1    2  501    0 -0.47776985184E+02  0.44753459898E+02 -0.12648101841E+04  0.12780473824E+04  0.17139077427E+03 0.  0.
         24    2    3    3    0    0  0.36516757441E+02  0.22059289065E+02 -0.49135810228E+03  0.49967043437E+03  0.80110376975E+02 0.  0.
         -6    2    1    2    0  502  0.47776985184E+02 -0.44753459898E+02 -0.53819125671E+03  0.56888912128E+03  0.17233540271E+03 0.  0.
        -24    2    5    5    0    0  0.20875867764E+02  0.19473056126E+02 -0.13153591578E+03  0.15628837990E+03  0.79431472245E+02 0.  0.
          5    1    3    3  501    0 -0.84293742625E+02  0.22694170833E+02 -0.77345208181E+03  0.77837694807E+03  0.47000000000E+01 0. -1.
        -11    1    4    4    0    0 -0.20614667180E+02  0.25364053238E+02 -0.21271710802E+03  0.21521353988E+03  0.00000000000E+00 0.  1.
         12    1    4    4    0    0  0.57131424621E+02 -0.33047641730E+01 -0.27864099426E+03  0.28445689449E+03  0.00000000000E+00 0. -1.
         -5    1    5    5    0  502  0.26901117420E+02 -0.64226516024E+02 -0.40665534093E+03  0.41260074138E+03  0.47000000000E+01 0.  1.
         13    1    6    6    0    0  0.65247644193E+01  0.50097836984E+02 -0.75778904033E+02  0.91075837178E+02  0.00000000000E+00 0. -1.
        -14    1    6    6    0    0  0.14351103345E+02 -0.30624780858E+02 -0.55757011742E+02  0.65212542722E+02  0.00000000000E+00 0.  1.
</event>
<event>
12    1  0.1594900E-001  0.2160598E+03  0.7818608E-02  0.1136903E+00
         21   -1    0    0  503  502  0.00000000000E+00  0.00000000000E+00  0.14577328547E+03  0.14577328547E+03  0.00000000000E+00 0.  1.
         21   -1    0    0  501  503 -0.00000000000E+00 -0.00000000000E+00 -0.78892988899E+03  0.78892988899E+03  0.00000000000E+00 0. -1.
          6    2    1    2  501    0  0.49543527819E+02  0.12069080539E+03 -0.68201835118E+03  0.71542356723E+03  0.17222374271E+03 0.  0.
         24    2    3    3    0    0  0.63321627226E+02  0.49718733092E+02 -0.56622956436E+03  0.57883658315E+03  0.89186823783E+02 0.  0.
         -6    2    1    2    0  502 -0.49543527819E+02 -0.12069080539E+03  0.38861747665E+02  0.21927960723E+03  0.17190834495E+03 0.  0.
        -24    2    5    5    0    0 -0.93372651083E+02 -0.58332506593E+02  0.42969821938E+02  0.14280401800E+03  0.80158896341E+02 0.  0.
          5    1    3    3  501    0 -0.13778099408E+02  0.70972072293E+02 -0.11578878682E+03  0.13658698409E+03  0.47000000000E+01 0. -1.
        -11    1    4    4    0    0 -0.19699130680E+02  0.11479792792E+02 -0.55642298206E+02  0.60132410078E+02  0.00000000000E+00 0.  1.
         12    1    4    4    0    0  0.83020757907E+02  0.38238940300E+02 -0.51058726616E+03  0.51870417307E+03  0.00000000000E+00 0. -1.
         -5    1    5    5    0  502  0.43829123264E+02 -0.62358298792E+02 -0.41080742730E+01  0.76475589234E+02  0.47000000000E+01 0.  1.
         11    1    6    6    0    0 -0.18753221640E+02 -0.58601139468E+02  0.17757866941E+02  0.64039977414E+02  0.00000000000E+00 0. -1.
        -12    1    6    6    0    0 -0.74619429443E+02  0.26863287511E+00  0.25211954997E+02  0.78764040582E+02  0.00000000000E+00 0.  1.
</event>
<event>
12    1  0.1594900E-001  0.1736169E+03  0.7818608E-02  0.1174353E+00
         21   -1    0    0  503  502  0.00000000000E+00  0.00000000000E+00  0.17912783622E+03  0.17912783622E+03  0.00000000000E+00 0. -1.
         21   -1    0    0  501  503 -0.00000000000E+00 -0.00000000000E+00 -0.16870936409E+03  0.16870936409E+03  0.00000000000E+00 0. -1.
          6    2    1    2  501    0 -0.72544408663E+01 -0.25734283780E+02 -0.99918263602E+01  0.17390421665E+03  0.17154579476E+03 0.  0.
         24    2    3    3    0    0  0.10253291885E+02 -0.79548886933E+02  0.12429975777E+02  0.11285211243E+03  0.78408797820E+02 0.  0.
         -6    2    1    2    0  502  0.72544408663E+01  0.25734283780E+02  0.20410298491E+02  0.17393298366E+03  0.17064941326E+03 0.  0.
        -24    2    5    5    0    0  0.36986058705E+02  0.56523648054E+02  0.58304931574E+02  0.11657405002E+03  0.75014350392E+02 0.  0.
          5    1    3    3  501    0 -0.17507732752E+02  0.53814603152E+02 -0.22421802137E+02  0.61052104220E+02  0.47000000000E+01 0. -1.
        -13    1    4    4    0    0 -0.25451119242E+02 -0.71037243844E+02  0.80786774148E+01  0.75890147664E+02  0.00000000000E+00 0.  1.
         14    1    4    4    0    0  0.35704411127E+02 -0.85116430883E+01  0.43512983621E+01  0.36961964767E+02  0.00000000000E+00 0. -1.
         -5    1    5    5    0  502 -0.29731617839E+02 -0.30789364274E+02 -0.37894633083E+02  0.57358933639E+02  0.47000000000E+01 0.  1.
         11    1    6    6    0    0 -0.13945546639E+02  0.72424721318E+01 -0.96065754759E+01  0.18417870833E+02  0.00000000000E+00 0. -1.
        -12    1    6    6    0    0  0.50931605344E+02  0.49281175922E+02  0.67911507050E+02  0.98156179189E+02  0.00000000000E+00 0.  1.
</event>
<event>
12    1  0.1594900E-001  0.2813508E+03  0.7818608E-02  0.1094977E+00
         21   -1    0    0  501  502  0.00000000000E+00  0.00000000000E+00  0.24805027977E+04  0.24805027977E+04  0.00000000000E+00 0.  1.
         21   -1    0    0  502  503 -0.00000000000E+00 -0.00000000000E+00 -0.58300508025E+02  0.58300508025E+02  0.00000000000E+00 0. -1.
         -6    2    1    2    0  503 -0.76442738453E+02  0.20905196661E+03  0.35656759668E+03  0.45409590249E+03  0.17180343607E+03 0.  0.
        -24    2    3    3    0    0 -0.44030663047E+02  0.21867697926E+03  0.34288085549E+03  0.41731818662E+03  0.82636960667E+02 0.  0.
          6    2    1    2  501    0  0.76442738453E+02 -0.20905196661E+03  0.20656346930E+04  0.20847074033E+04  0.17208153652E+03 0.  0.
         24    2    5    5    0    0  0.10694988302E+03 -0.20437030287E+03  0.19393637757E+04  0.19546341992E+04  0.79104362411E+02 0.  0.
          5    1    5    5  501    0 -0.30507144570E+02 -0.46816637409E+01  0.12627091731E+03  0.13007320402E+03  0.47000000000E+01 0. -1.
        -13    1    6    6    0    0  0.62395046573E+02 -0.18347147014E+03  0.14770804472E+04  0.14897387589E+04  0.00000000000E+00 0.  1.
         14    1    6    6    0    0  0.44554836451E+02 -0.20898832738E+02  0.46228332851E+03  0.46489544038E+03  0.00000000000E+00 0. -1.
         -5    1    3    3    0  503 -0.32412075406E+02 -0.96250126469E+01  0.13686741190E+02  0.36777715875E+02  0.47000000000E+01 0.  1.
         11    1    4    4    0    0 -0.15275910599E+02  0.11667489541E+03  0.10835818995E+03  0.15996212675E+03  0.00000000000E+00 0. -1.
        -12    1    4    4    0    0 -0.28754752449E+02  0.10200208385E+03  0.23452266554E+03  0.25735605987E+03  0.00000000000E+00 0.  1.
</event>
<event>
12    1  0.1594900E-001  0.1835687E+03  0.7818608E-02  0.1164582E+00
         21   -1    0    0  501  502  0.00000000000E+00  0.00000000000E+00  0.15547552249E+03  0.15547552249E+03  0.00000000000E+00 0.  1.
         21   -1    0    0  502  503 -0.00000000000E+00 -0.00000000000E+00 -0.22178922962E+03  0.22178922962E+03  0.00000000000E+00 0.  1.
         -6    2    1    2    0  503  0.51759747715E+02  0.40158601401E+02 -0.22211362767E+01  0.18358212745E+03  0.17148084243E+03 0.  0.
        -24    2    3    3    0    0 -0.26583418316E+02  0.42578016932E+01  0.40727608495E+02  0.87180863134E+02  0.72228510981E+02 0.  0.
          6    2    1    2  501    0 -0.51759747715E+02 -0.40158601401E+02 -0.64092570849E+02  0.19368262466E+03  0.17062624859E+03 0.  0.
         24    2    5    5    0    0 -0.18883955600E+02 -0.74033240950E+02 -0.87480797869E+02  0.14079209550E+03  0.79573862642E+02 0.  0.
          5    1    5    5  501    0 -0.32875792114E+02  0.33874639549E+02  0.23388227019E+02  0.52890529160E+02  0.47000000000E+01 0. -1.
        -11    1    6    6    0    0 -0.45526605816E+02 -0.23194372399E+02 -0.28555244541E+02  0.58532493018E+02  0.00000000000E+00 0.  1.
         12    1    6    6    0    0  0.26642650216E+02 -0.50838868551E+02 -0.58925553327E+02  0.82259602485E+02  0.00000000000E+00 0. -1.
         -5    1    3    3    0  503  0.78343166031E+02  0.35900799707E+02 -0.42948744771E+02  0.96401264311E+02  0.47000000000E+01 0.  1.
         13    1    4    4    0    0 -0.29101605866E+02 -0.19514694372E+02  0.50408034613E+02  0.61389711792E+02  0.00000000000E+00 0. -1.
        -14    1    4    4    0    0  0.25181875503E+01  0.23772496065E+02 -0.96804261181E+01  0.25791151342E+02  0.00000000000E+00 0.  1.
</event>
<event>
12    1  0.1594900E-001  0.2119388E+03  0.7818608E-02  0.1140917E+00
         21   -1    0    0  503  502  0.00000000000E+00  0.00000000000E+00  0.32761567172E+02  0.32761567172E+02  0.00000000000E+00 0.  1.
         21   -1    0    0  501  503 -0.00000000000E+00 -0.00000000000E+00 -0.14559314547E+04  0.14559314547E+04  0.00000000000E+00 0.  1.
          6    2    1    2  501    0  0.11120137845E+03  0.26468559126E+02 -0.92623882396E+03  0.95017703647E+03  0.17847047497E+03 0.  0.
         24    2    3    3    0    0  0.14120081240E+03  0.18873052797E+02 -0.57148388350E+03  0.59404389349E+03  0.77462615100E+02 0.  0.
         -6    2    1    2    0  502 -0.11120137845E+03 -0.26468559126E+02 -0.49693106355E+03  0.53851598539E+03  0.17318387166E+03 0.  0.
        -24    2    5    5    0    0 -0.57852780577E+02  0.52595861178E+02 -0.28589926591E+03  0.30688316157E+03  0.79533739847E+02 0.  0.
          5    1    3    3  501    0 -0.29999433956E+02  0.75955063291E+01 -0.35475494045E+03  0.35613314298E+03  0.47000000000E+01 0. -1.
        -13    1    4    4    0    0  0.10568571862E+03 -0.13055154822E+02 -0.46959814372E+03  0.48152084563E+03  0.00000000000E+00 0.  1.
         14    1    4    4    0    0  0.35515093788E+02  0.31928207618E+02 -0.10188573978E+03  0.11252304786E+03  0.00000000000E+00 0. -1.
         -5    1    5    5    0  502 -0.53348597870E+02 -0.79064420304E+02 -0.21103179765E+03  0.23163282382E+03  0.47000000000E+01 0.  1.
         11    1    6    6    0    0 -0.11694521578E+02  0.17613686095E+02 -0.73609142760E+01  0.22387202411E+02  0.00000000000E+00 0. -1.
        -12    1    6    6    0    0 -0.46158258999E+02  0.34982175083E+02 -0.27853835163E+03  0.28449595916E+03  0.00000000000E+00 0.  1.
</event>
<event>
12    1  0.1594900E-001  0.4051202E+03  0.7818608E-02  0.1042048E+00
         21   -1    0    0  503  502  0.00000000000E+00  0.00000000000E+00  0.12018206539E+04  0.12018206539E+04  0.00000000000E+00 0. -1.
         21   -1    0    0  501  503 -0.00000000000E+00 -0.00000000000E+00 -0.14152610199E+03  0.14152610199E+03  0.00000000000E+00 0. -1.
          6    2    1    2  501    0  0.17488468813E+02  0.36605136334E+03  0.40277452335E+03  0.57104179921E+03  0.17193595506E+03 0.  0.
         24    2    3    3    0    0  0.55189082613E+02  0.33248411387E+03  0.30525827114E+03  0.46113453847E+03  0.76621991996E+02 0.  0.
         -6    2    1    2    0  502 -0.17488468813E+02 -0.36605136334E+03  0.65752002853E+03  0.77230495665E+03  0.17269311218E+03 0.  0.
        -24    2    5    5    0    0 -0.69960082120E+02 -0.20496226365E+03  0.44102463309E+03  0.49735893560E+03  0.77196121784E+02 0.  0.
          5    1    3    3  501    0 -0.37700613800E+02  0.33567249470E+02  0.97516252214E+02  0.10990726074E+03  0.47000000000E+01 0. -1.
        -13    1    4    4    0    0  0.50129370913E+02  0.16861134402E+03  0.19977421270E+03  0.26618128263E+03  0.00000000000E+00 0.  1.
         14    1    4    4    0    0  0.50597116997E+01  0.16387276985E+03  0.10548405844E+03  0.19495325585E+03  0.00000000000E+00 0. -1.
         -5    1    5    5    0  502  0.52471613306E+02 -0.16108909969E+03  0.21649539544E+03  0.27494602104E+03  0.47000000000E+01 0.  1.
         13    1    6    6    0    0 -0.19901649081E+02 -0.15097903009E+03  0.25116794300E+03  0.29372789917E+03  0.00000000000E+00 0. -1.
        -14    1    6    6    0    0 -0.50058433038E+02 -0.53983233566E+02  0.18985669010E+03  0.20363103643E+03  0.00000000000E+00 0.  1.
</event>
<event>
12    1  0.1594900E-001  0.2081244E+03  0.7818608E-02  0.1143177E+00
         21   -1    0    0  503  502  0.00000000000E+00  0.00000000000E+00  0.76810356632E+03  0.76810356632E+03  0.00000000000E+00 0. -1.
         21   -1    0    0  501  503 -0.00000000000E+00 -0.00000000000E+00 -0.57255553826E+02  0.57255553826E+02  0.00000000000E+00 0. -1.
          6    2    1    2  501    0  0.43435203903E+02  0.10825590783E+03  0.30081435867E+03  0.36579371944E+03  0.17236533377E+03 0.  0.
         24    2    3    3    0    0  0.13955639574E+02  0.73768683111E+02  0.30111316712E+03  0.32018020534E+03  0.78801307055E+02 0.  0.
         -6    2    1    2    0  502 -0.43435203903E+02 -0.10825590783E+03  0.41003365383E+03  0.45956540070E+03  0.17165896928E+03 0.  0.
        -24    2    5    5    0    0 -0.47961834978E+02 -0.69157026221E+02  0.40419854327E+03  0.41949856345E+03  0.74293677176E+02 0.  0.
          5    1    3    3  501    0  0.29479564328E+02  0.34487224722E+02 -0.29880845813E+00  0.45613514100E+02  0.47000000000E+01 0. -1.
        -13    1    4    4    0    0 -0.23988079915E+02  0.43093433558E+00  0.43768502131E+02  0.49912878711E+02  0.00000000000E+00 0.  1.
         14    1    4    4    0    0  0.37943719489E+02  0.73337748775E+02  0.25734466499E+03  0.27026732663E+03  0.00000000000E+00 0. -1.
         -5    1    5    5    0  502  0.45266310748E+01 -0.39098881612E+02  0.58351105618E+01  0.40066837253E+02  0.47000000000E+01 0.  1.
         13    1    6    6    0    0  0.67608894017E+01 -0.54860920298E+02  0.21805130773E+03  0.22494844522E+03  0.00000000000E+00 0. -1.
        -14    1    6    6    0    0 -0.54722724379E+02 -0.14296105923E+02  0.18614723553E+03  0.19455011823E+03  0.00000000000E+00 0.  1.
</event>
<event>
12    1  0.1594900E-001  0.1917784E+03  0.7818608E-02  0.1157035E+00
         21   -1    0    0  501  502  0.00000000000E+00  0.00000000000E+00  0.19351139685E+04  0.19351139685E+04  0.00000000000E+00 0. -1.
         21   -1    0    0  502  503 -0.00000000000E+00 -0.00000000000E+00 -0.83236948849E+02  0.83236948849E+02  0.00000000000E+00 0. -1.
         -6    2    1    2    0  503 -0.53072024285E+02  0.61842194764E+02  0.39335542009E+02  0.19577087339E+03  0.17360257253E+03 0.  0.
        -24    2    3    3    0    0 -0.89436585086E+02  0.30807683509E+02 -0.13561547807E+02  0.12431659233E+03  0.79515303145E+02 0.  0.
          6    2    1    2  501    0  0.53072024285E+02 -0.61842194764E+02  0.18125414776E+04  0.18225800439E+04  0.17277242733E+03 0.  0.
         24    2    5    5    0    0  0.56075375456E+02 -0.84951479911E+02  0.86281740558E+03  0.87255848513E+03  0.80890252406E+02 0.  0.
          5    1    5    5  501    0 -0.30033511708E+01  0.23109285147E+02  0.94972407205E+03  0.95002155881E+03  0.47000000000E+01 0. -1.
        -11    1    6    6    0    0  0.66182804372E+02 -0.39182213861E+02  0.65615951632E+03  0.66065173907E+03  0.00000000000E+00 0.  1.
         12    1    6    6    0    0 -0.10107428916E+02 -0.45769266050E+02  0.20665788926E+03  0.21190674606E+03  0.00000000000E+00 0. -1.
         -5    1    3    3    0  503  0.36364560800E+02  0.31034511255E+02  0.52897089817E+02  0.71454281062E+02  0.47000000000E+01 0.  1.
         13    1    4    4    0    0 -0.45253199590E+01  0.29677021734E+02 -0.24430972819E+02  0.38704994156E+02  0.00000000000E+00 0. -1.
        -14    1    4    4    0    0 -0.84911265127E+02  0.11306617743E+01  0.10869425012E+02  0.85611598172E+02  0.00000000000E+00 0.  1.
</event>
<event>
12    1  0.1594900E-001  0.2051789E+03  0.7818608E-02  0.1146159E+00
         21   -1    0    0  503  502  0.00000000000E+00  0.00000000000E+00  0.58121787640E+03  0.58121787640E+03  0.00000000000E+00 0.  1.
         21   -1    0    0  501  503 -0.00000000000E+00 -0.00000000000E+00 -0.71626343429E+02  0.71626343429E+02  0.00000000000E+00 0.  1.
          6    2    1    2  501    0 -0.36650684756E+02 -0.90815019514E+02  0.23199770505E+03  0.30971167567E+03  0.18029904724E+03 0.  0.
         24    2    3    3    0    0 -0.46345718803E+02 -0.13056914929E+03  0.20616880276E+03  0.26109473713E+03  0.80427968559E+02 0.  0.
         -6    2    1    2    0  502  0.36650684756E+02  0.90815019514E+02  0.27759382793E+03  0.34313254416E+03  0.17632631425E+03 0.  0.
        -24    2    5    5    0    0 -0.34654408944E+02  0.60981842507E+02  0.22643997942E+03  0.25032499568E+03  0.80422795329E+02 0.  0.
          5    1    3    3  501    0  0.96950340469E+01  0.39754129779E+02  0.25828902290E+02  0.48616938541E+02  0.47000000000E+01 0. -1.
        -13    1    4    4    0    0 -0.67389394138E+02 -0.11594073321E+03  0.16531608621E+03  0.21286848620E+03  0.00000000000E+00 0.  1.
         14    1    4    4    0    0  0.21043675336E+02 -0.14628416087E+02  0.40852716548E+02  0.48226250924E+02  0.00000000000E+00 0. -1.
         -5    1    5    5    0  502  0.71305093700E+02  0.29833177007E+02  0.51153848506E+02  0.92807548480E+02  0.47000000000E+01 0.  1.
         13    1    6    6    0    0 -0.30140740647E+02  0.30502455151E+01  0.21091803186E+02  0.36913851141E+02  0.00000000000E+00 0. -1.
        -14    1    6    6    0    0 -0.45136682978E+01  0.57931596992E+02  0.20534817623E+03  0.21341114454E+03  0.00000000000E+00 0.  1.
</event>
<event>
12    1  0.1594900E-001  0.1782245E+03  0.7818608E-02  0.1170520E+00
         21   -1    0    0  503  502  0.00000000000E+00  0.00000000000E+00  0.57609137213E+03  0.57609137213E+03  0.00000000000E+00 0. -1.
         21   -1    0    0  501  503 -0.00000000000E+00 -0.00000000000E+00 -0.57061969016E+02  0.57061969016E+02  0.00000000000E+00 0. -1.
          6    2    1    2  501    0  0.43699293026E+02 -0.15117929933E+02  0.18237462674E+03  0.25223288275E+03  0.16799625783E+03 0.  0.
         24    2    3    3    0    0  0.41208332637E+02  0.45848933894E+02  0.66413828034E+02  0.12111400461E+03  0.80358908278E+02 0.  0.
         -6    2    1    2    0  502 -0.43699293026E+02  0.15117929933E+02  0.33665477638E+03  0.38092045840E+03  0.17212140237E+03 0.  0.
        -24    2    5    5    0    0 -0.76503835109E+02 -0.17481223676E+01  0.12976126711E+03  0.17071195268E+03  0.80303746034E+02 0.  0.
          5    1    3    3  501    0  0.24909603894E+01 -0.60966863827E+02  0.11596079870E+03  0.13111887814E+03  0.47000000000E+01 0. -1.
        -13    1    4    4    0    0 -0.91762205156E+01  0.26804252719E+02  0.60652226178E+02  0.66942987139E+02  0.00000000000E+00 0.  1.
         14    1    4    4    0    0  0.50384553152E+02  0.19044681175E+02  0.57616018557E+01  0.54171017467E+02  0.00000000000E+00 0. -1.
         -5    1    5    5    0  502  0.32804542083E+02  0.16866052301E+02  0.20689350927E+03  0.21020850572E+03  0.47000000000E+01 0.  1.
         13    1    6    6    0    0 -0.12997385079E+02 -0.98495726023E+01  0.97810897853E+02  0.99161070175E+02  0.00000000000E+00 0. -1.
        -14    1    6    6    0    0 -0.63506450030E+02  0.81014502347E+01  0.31950369255E+02  0.71550882502E+02  0.00000000000E+00 0.  1.
</event>
<event>
12    1  0.1594900E-001  0.2425067E+03  0.7818608E-02  0.1118169E+00
         21   -1    0    0  503  502  0.00000000000E+00  0.00000000000E+00  0.36053489550E+03  0.36053489550E+03  0.00000000000E+00 0.  1.
         21   -1    0    0  501  503 -0.00000000000E+00 -0.00000000000E+00 -0.17845184482E+03  0.17845184482E+03  0.00000000000E+00 0. -1.
          6    2    1    2  501    0  0.24106828459E+02  0.17003006757E+03  0.11638047484E+02  0.24257317780E+03  0.17092378237E+03 0.  0.
         24    2    3    3    0    0  0.74657248618E+02  0.15290492759E+03  0.19377837104E+02  0.18843807143E+03  0.78611605651E+02 0.  0.
         -6    2    1    2    0  502 -0.24106828459E+02 -0.17003006757E+03  0.17044500320E+03  0.29641356252E+03  0.17122540078E+03 0.  0.
        -24    2    5    5    0    0 -0.72130975456E+01 -0.31157476864E+02  0.12236940234E+03  0.14841238688E+03  0.77647593709E+02 0.  0.
          5    1    3    3  501    0 -0.50550420159E+02  0.17125139984E+02 -0.77397896203E+01  0.54135106364E+02  0.47000000000E+01 0. -1.
        -11    1    4    4    0    0  0.74271713130E+01  0.77172359640E+02  0.36569245605E+02  0.85720742474E+02  0.00000000000E+00 0.  1.
         12    1    4    4    0    0  0.67230077305E+02  0.75732567946E+02 -0.17191408501E+02  0.10271732896E+03  0.00000000000E+00 0. -1.
         -5    1    5    5    0  502 -0.16893730914E+02 -0.13887259071E+03  0.48075600865E+02  0.14800117564E+03  0.47000000000E+01 0.  1.
         11    1    6    6    0    0 -0.76999197647E+01 -0.41192609538E+02  0.21603601267E+02  0.47146955709E+02  0.00000000000E+00 0. -1.
        -12    1    6    6    0    0  0.48682221907E+00  0.10035132675E+02  0.10076580107E+03  0.10126543117E+03  0.00000000000E+00 0.  1.
</event>
<event>
12    1  0.1594900E-001  0.2013108E+03  0.7818608E-02  0.1149074E+00
         21   -1    0    0  503  502  0.00000000000E+00  0.00000000000E+00  0.23496369433E+03  0.23496369433E+03  0.00000000000E+00 0. -1.
         21   -1    0    0  501  503 -0.00000000000E+00 -0.00000000000E+00 -0.37049800577E+03  0.37049800577E+03  0.00000000000E+00 0. -1.
          6    2    1    2  501    0 -0.99890282959E+02 -0.70879264576E+01 -0.28991087073E+03  0.35177262278E+03  0.17224214883E+03 0.  0.
         24    2    3    3    0    0 -0.39319481506E+02  0.73128703472E+01 -0.47517619834E+02  0.10146724325E+03  0.80238254964E+02 0.  0.
         -6    2    1    2    0  502  0.99890282959E+02  0.70879264576E+01  0.15437655929E+03  0.25368907732E+03  0.17463596012E+03 0.  0.
        -24    2    5    5    0    0  0.82860732024E+02 -0.17074498973E+02  0.18122161749E+03  0.21348241671E+03  0.74672807451E+02 0.  0.
          5    1    3    3  501    0 -0.60570801453E+02 -0.14400796805E+02 -0.24239325090E+03  0.25030537952E+03  0.47000000000E+01 0. -1.
        -13    1    4    4    0    0  0.12384091101E+01 -0.30894325514E+02 -0.48724330301E+01  0.31300696633E+02  0.00000000000E+00 0.  1.
         14    1    4    4    0    0 -0.40557890616E+02  0.38207195861E+02 -0.42645186804E+02  0.70166546618E+02  0.00000000000E+00 0. -1.
         -5    1    5    5    0  502  0.17029550935E+02  0.24162425430E+02 -0.26845058204E+02  0.40206660614E+02  0.47000000000E+01 0.  1.
         13    1    6    6    0    0  0.70248286916E+02 -0.16909457575E+02  0.66909693658E+02  0.98476691027E+02  0.00000000000E+00 0. -1.
        -14    1    6    6    0    0  0.12612445108E+02 -0.16504139710E+00  0.11431192383E+03  0.11500572568E+03  0.00000000000E+00 0.  1.
</event>
<event>
12    1  0.1594900E-001  0.2129834E+03  0.7818608E-02  0.1139296E+00
         21   -1    0    0  501  502  0.00000000000E+00  0.00000000000E+00  0.18906769002E+03  0.18906769002E+03  0.00000000000E+00 0.  1.
         21   -1    0    0  502  503 -0.00000000000E+00 -0.00000000000E+00 -0.27208192859E+03  0.27208192859E+03  0.00000000000E+00 0.  1.
         -6    2    1    2    0  503  0.10702247133E+03 -0.66776450182E+02 -0.12125289079E+03  0.24476083667E+03  0.17115110275E+03 0.  0.
        -24    2    3    3    0    0  0.20325793053E+02 -0.88282690850E+02 -0.52279396921E+02  0.13180834547E+03  0.80208062098E+02 0.  0.
          6    2    1    2  501    0 -0.10702247133E+03  0.66776450182E+02  0.38238652229E+02  0.21638878193E+03  0.17160712909E+03 0.  0.
         24    2    5    5    0    0 -0.78765946732E+02  0.10786084441E+03  0.52903074871E+02  0.16420167699E+03  0.79532504507E+02 0.  0.
          5    1    5    5  501    0 -0.28256524601E+02 -0.41084394227E+02 -0.14664422641E+02  0.52187104949E+02  0.47000000000E+01 0. -1.
        -11    1    6    6    0    0 -0.28950188672E+02  0.63266463947E+01 -0.14025956910E+02  0.32785169604E+02  0.00000000000E+00 0.  1.
         12    1    6    6    0    0 -0.49815758060E+02  0.10153419801E+03  0.66929031781E+02  0.13141650738E+03  0.00000000000E+00 0. -1.
         -5    1    3    3    0  503  0.86696678280E+02  0.21506240668E+02 -0.68973493874E+02  0.11295249121E+03  0.47000000000E+01 0.  1.
         13    1    4    4    0    0 -0.99558199802E+01 -0.23364310295E+02  0.18255256718E+02  0.31277208073E+02  0.00000000000E+00 0. -1.
        -14    1    4    4    0    0  0.30281613033E+02 -0.64918380555E+02 -0.70534653639E+02  0.10053113739E+03  0.00000000000E+00 0.  1.
</event>
<event>
12    1  0.1594900E-001  0.2023529E+03  0.7818608E-02  0.1147994E+00
         21   -1    0    0  503  502  0.00000000000E+00  0.00000000000E+00  0.17270355115E+03  0.17270355115E+03  0.00000000000E+00 0.  1.
         21   -1    0    0  501  503 -0.00000000000E+00 -0.00000000000E+00 -0.28453194160E+03  0.28453194160E+03  0.00000000000E+00 0.  1.
          6    2    1    2  501    0  0.89110985869E+02 -0.57313322037E+02 -0.15062487539E+03  0.25225893282E+03  0.17239817695E+03 0.  0.
         24    2    3    3    0    0  0.65282910304E+02 -0.80360250379E+02 -0.16887725506E+03  0.21412525407E+03  0.81304790352E+02 0.  0.
         -6    2    1    2    0  502 -0.89110985869E+02  0.57313322037E+02  0.38796484934E+02  0.20497655994E+03  0.17112754949E+03 0.  0.
        -24    2    5    5    0    0  0.72255212796E+01 -0.13093141808E+02  0.14342365084E+02  0.83083628483E+02  0.80458357960E+02 0.  0.
          5    1    3    3  501    0  0.23828075566E+02  0.23046928342E+02  0.18252379672E+02  0.38133678748E+02  0.47000000000E+01 0. -1.
        -13    1    4    4    0    0  0.76503513265E+02 -0.42363662948E+02 -0.14012033395E+03  0.16517014096E+03  0.00000000000E+00 0.  1.
         14    1    4    4    0    0 -0.11220602961E+02 -0.37996587431E+02 -0.28756921114E+02  0.48955113106E+02  0.00000000000E+00 0. -1.
         -5    1    5    5    0  502 -0.96336507149E+02  0.70406463844E+02  0.24454119850E+02  0.12189293145E+03  0.47000000000E+01 0.  1.
         13    1    6    6    0    0 -0.54537901572E+01  0.23327204426E+02 -0.20181143356E+02  0.31323806292E+02  0.00000000000E+00 0. -1.
        -14    1    6    6    0    0  0.12679311437E+02 -0.36420346234E+02  0.34523508440E+02  0.51759822192E+02  0.00000000000E+00 0.  1.
</event>
<event>
12    1  0.1594900E-001  0.1792137E+03  0.7818608E-02  0.1169504E+00
         21   -1    0    0  501  502  0.00000000000E+00  0.00000000000E+00  0.47501812330E+02  0.47501812330E+02  0.00000000000E+00 0.  1.
         21   -1    0    0  502  503 -0.00000000000E+00 -0.00000000000E+00 -0.75103368066E+03  0.75103368066E+03  0.00000000000E+00 0.  1.
         -6    2    1    2    0  503  0.13044730411E+01 -0.35002888825E+02 -0.49268120886E+03  0.52426359819E+03  0.17575734110E+03 0.  0.
        -24    2    3    3    0    0  0.19976159431E+02  0.46934200994E+02 -0.22749706170E+03  0.24604239040E+03  0.78613476088E+02 0.  0.
          6    2    1    2  501    0 -0.13044730411E+01  0.35002888825E+02 -0.21085065946E+03  0.27427189479E+03  0.17187253358E+03 0.  0.
         24    2    5    5    0    0 -0.88318991657E+01 -0.46879980708E+02 -0.13125829815E+03  0.15973587231E+03  0.77531110109E+02 0.  0.
          5    1    5    5  501    0  0.75274261246E+01  0.81882869533E+02 -0.79592361317E+02  0.11453602249E+03  0.47000000000E+01 0. -1.
        -13    1    6    6    0    0  0.26165979129E+02  0.62939072862E+01 -0.31920849413E+02  0.41751794691E+02  0.00000000000E+00 0.  1.
         14    1    6    6    0    0 -0.34997878294E+02 -0.53173887994E+02 -0.99337448734E+02  0.11798407761E+03  0.00000000000E+00 0. -1.
         -5    1    3    3    0  503 -0.18671686390E+02 -0.81937089819E+02 -0.26518414716E+03  0.27822120779E+03  0.47000000000E+01 0.  1.
         13    1    4    4    0    0  0.14001767145E+02 -0.17775554036E+02 -0.26738644532E+02  0.35028201722E+02  0.00000000000E+00 0. -1.
        -14    1    4    4    0    0  0.59743922863E+01  0.64709755030E+02 -0.20075841717E+03  0.21101418868E+03  0.00000000000E+00 0.  1.
</event>
<event>
12    1  0.1594900E-001  0.1800089E+03  0.7818608E-02  0.1168083E+00
         21   -1    0    0  503  502  0.00000000000E+00  0.00000000000E+00  0.51744856624E+02  0.51744856624E+02  0.00000000000E+00 0.  1.
         21   -1    0    0  501  503 -0.00000000000E+00 -0.00000000000E+00 -0.75708380542E+03  0.75708380542E+03  0.00000000000E+00 0.  1.
          6    2    1    2  501    0  0.31784038758E+00  0.53602576067E+02 -0.52440501873E+03  0.55444008684E+03  0.17184251235E+03 0.  0.
         24    2    3    3    0    0 -0.28932373828E+02 -0.30968670745E+02 -0.31509030083E+03  0.32675035948E+03  0.75417232252E+02 0.  0.
         -6    2    1    2    0  502 -0.31784038758E+00 -0.53602576067E+02 -0.18093393007E+03  0.25438857519E+03  0.17059637440E+03 0.  0.
        -24    2    5    5    0    0  0.37043497391E+02  0.24133514116E+02 -0.90164468256E+02  0.12908911600E+03  0.81115481452E+02 0.  0.
          5    1    3    3  501    0  0.29250214215E+02  0.84571246812E+02 -0.20931471789E+03  0.22768972736E+03  0.47000000000E+01 0. -1.
        -11    1    4    4    0    0  0.22202663338E+02  0.47197025161E+01 -0.11303736903E+03  0.11529388817E+03  0.00000000000E+00 0.  1.
         12    1    4    4    0    0 -0.51135037166E+02 -0.35688373261E+02 -0.20205293180E+03  0.21145647131E+03  0.00000000000E+00 0. -1.
         -5    1    5    5    0  502 -0.37361337778E+02 -0.77736090183E+02 -0.90769461809E+02  0.12529945920E+03  0.47000000000E+01 0.  1.
         13    1    6    6    0    0  0.59934204418E+02  0.68169480108E+01 -0.43747620033E+02  0.74514655592E+02  0.00000000000E+00 0. -1.
        -14    1    6    6    0    0 -0.22890707027E+02  0.17316566105E+02 -0.46416848223E+02  0.54574460408E+02  0.00000000000E+00 0.  1.
</event>
<event>
12    1  0.1594900E-001  0.1911440E+03  0.7818608E-02  0.1159447E+00
         21   -1    0    0  501  502  0.00000000000E+00  0.00000000000E+00  0.16316569134E+03  0.16316569134E+03  0.00000000000E+00 0. -1.
         21   -1    0    0  502  503 -0.00000000000E+00 -0.00000000000E+00 -0.26644970745E+03  0.26644970745E+03  0.00000000000E+00 0. -1.
         -6    2    1    2    0  503 -0.40968783751E+02 -0.42208252620E+02 -0.14811783415E+03  0.24181587692E+03  0.18186821522E+03 0.  0.
        -24    2    3    3    0    0  0.33571518135E+02  0.23394794232E+02 -0.81337158100E+02  0.12205876834E+03  0.81291121378E+02 0.  0.
          6    2    1    2  501    0  0.40968783751E+02  0.42208252620E+02  0.44833818040E+02  0.18779952186E+03  0.17262274282E+03 0.  0.
         24    2    5    5    0    0 -0.35401539905E+02 -0.15137957840E+02  0.16025462958E+02  0.87934485373E+02  0.77415963854E+02 0.  0.
          5    1    5    5  501    0  0.76370323656E+02  0.57346210461E+02  0.28808355082E+02  0.99865036484E+02  0.47000000000E+01 0. -1.
        -11    1    6    6    0    0 -0.41742138586E+02  0.57349141216E+01 -0.19356776027E+02  0.46367878449E+02  0.00000000000E+00 0.  1.
         12    1    6    6    0    0  0.63405986804E+01 -0.20872871962E+02  0.35382238985E+02  0.41566606924E+02  0.00000000000E+00 0. -1.
         -5    1    3    3    0  503 -0.74540301886E+02 -0.65603046852E+02 -0.66780676052E+02  0.11975710858E+03  0.47000000000E+01 0.  1.
         11    1    4    4    0    0  0.12065233904E+02 -0.22394070068E+02 -0.63521382059E+02  0.68425362418E+02  0.00000000000E+00 0. -1.
        -12    1    4    4    0    0  0.21506284232E+02  0.45788864300E+02 -0.17815776040E+02  0.53633405926E+02  0.00000000000E+00 0.  1.
</event>
<event>
12    1  0.1594900E-001  0.3542518E+03  0.7818608E-02  0.1061144E+00
         21   -1    0    0  501  502  0.00000000000E+00  0.00000000000E+00  0.41799322849E+03  0.41799322849E+03  0.00000000000E+00 0. -1.
         21   -1    0    0  502  503 -0.00000000000E+00 -0.00000000000E+00 -0.73753619452E+03  0.73753619452E+03  0.00000000000E+00 0.  1.
         -6    2    1    2    0  503  0.29061058644E+03  0.10029211979E+03 -0.60599711603E+03  0.70194502552E+03  0.17601503335E+03 0.  0.
        -24    2    3    3    0    0  0.41439390627E+02  0.37569391205E+02 -0.17974550496E+03  0.20421723702E+03  0.79167866524E+02 0.  0.
          6    2    1    2  501    0 -0.29061058644E+03 -0.10029211979E+03  0.28645415001E+03  0.45358439749E+03  0.17079169579E+03 0.  0.
         24    2    5    5    0    0 -0.22351703990E+03 -0.12093582752E+03  0.16547893860E+03  0.31363869934E+03  0.80003831806E+02 0.  0.
          5    1    5    5  501    0 -0.67093546542E+02  0.20643707730E+02  0.12097521140E+03  0.13994569815E+03  0.47000000000E+01 0. -1.
        -11    1    6    6    0    0  0.27134208575E+01 -0.11389927402E+02  0.20115560859E+02  0.23275070089E+02  0.00000000000E+00 0.  1.
         12    1    6    6    0    0 -0.22623046075E+03 -0.10954590012E+03  0.14536337774E+03  0.29036362925E+03  0.00000000000E+00 0. -1.
         -5    1    3    3    0  503  0.24917119581E+03  0.62722728582E+02 -0.42625161107E+03  0.49772778850E+03  0.47000000000E+01 0.  1.
         11    1    4    4    0    0  0.93802088824E+01  0.56981402176E+02 -0.89675440671E+02  0.10666092617E+03  0.00000000000E+00 0. -1.
        -12    1    4    4    0    0  0.32059181745E+02 -0.19412010971E+02 -0.90070064294E+02  0.97556310846E+02  0.00000000000E+00 0.  1.
</event>
<event>
12    1  0.1594900E-001  0.1857641E+03  0.7818608E-02  0.1162693E+00
         21   -1    0    0  501  502  0.00000000000E+00  0.00000000000E+00  0.27099380497E+03  0.27099380497E+03  0.00000000000E+00 0.  1.
         21   -1    0    0  502  503 -0.00000000000E+00 -0.00000000000E+00 -0.17798707756E+03  0.17798707756E+03  0.00000000000E+00 0.  1.
         -6    2    1    2    0  503  0.22733520949E+02  0.63586616243E+02 -0.74607536585E+02  0.19877527859E+03  0.17142128258E+03 0.  0.
        -24    2    3    3    0    0 -0.52034528721E+02  0.38874406504E+02 -0.25359697011E+02  0.10577853529E+03  0.79543526670E+02 0.  0.
          6    2    1    2  501    0 -0.22733520949E+02 -0.63586616243E+02  0.16761426400E+03  0.25020560394E+03  0.17305557491E+03 0.  0.
         24    2    5    5    0    0 -0.65732973576E+02 -0.71715467162E+02  0.16296554192E+03  0.20594804232E+03  0.79955589162E+02 0.  0.
          5    1    5    5  501    0  0.42999452627E+02  0.81288509191E+01  0.46487220862E+01  0.44257561619E+02  0.47000000000E+01 0. -1.
        -11    1    6    6    0    0 -0.97369636634E+01 -0.39242365543E+02  0.12775550998E+02  0.42402669941E+02  0.00000000000E+00 0.  1.
         12    1    6    6    0    0 -0.55996009912E+02 -0.32473101619E+02  0.15018999092E+03  0.16354537238E+03  0.00000000000E+00 0. -1.
         -5    1    3    3    0  503  0.74768049670E+02  0.24712209739E+02 -0.49247839575E+02  0.92996743300E+02  0.47000000000E+01 0.  1.
         11    1    4    4    0    0 -0.58812381486E+02 -0.22236880499E+01 -0.40573134813E+01  0.58994091207E+02  0.00000000000E+00 0. -1.
        -12    1    4    4    0    0  0.67778527648E+01  0.41098094554E+02 -0.21302383530E+02  0.46784444082E+02  0.00000000000E+00 0.  1.
</event>
<event>
12    1  0.1594900E-001  0.2362384E+03  0.7818608E-02  0.1122358E+00
         21   -1    0    0  501  502  0.00000000000E+00  0.00000000000E+00  0.94927351974E+03  0.94927351974E+03  0.00000000000E+00 0. -1.
         21   -1    0    0  502  503 -0.00000000000E+00 -0.00000000000E+00 -0.93792438974E+02  0.93792438974E+02  0.00000000000E+00 0.  1.
         -6    2    1    2    0  503  0.16197870589E+03 -0.62006925319E+01  0.10880995291E+03  0.25991440351E+03  0.17158188002E+03 0.  0.
        -24    2    3    3    0    0  0.77451932910E+02 -0.41521648096E+02  0.11711824143E+01  0.11849113751E+03  0.79472818171E+02 0.  0.
          6    2    1    2  501    0 -0.16197870589E+03  0.62006925319E+01  0.74667112786E+03  0.78315155520E+03  0.17185178351E+03 0.  0.
         24    2    5    5    0    0 -0.32272050168E+02 -0.40898624482E+02  0.24869181020E+03  0.26638501892E+03  0.79994869474E+02 0.  0.
          5    1    5    5  501    0 -0.12970665572E+03  0.47099317014E+02  0.49797931766E+03  0.51676653628E+03  0.47000000000E+01 0. -1.
        -11    1    6    6    0    0 -0.37527261935E+02 -0.20887524197E+02  0.47128672092E+02  0.63762808819E+02  0.00000000000E+00 0.  1.
         12    1    6    6    0    0  0.52552117665E+01 -0.20011100285E+02  0.20156313810E+03  0.20262221011E+03  0.00000000000E+00 0. -1.
         -5    1    3    3    0  503  0.84526772981E+02  0.35320955564E+02  0.10763877050E+03  0.14142326600E+03  0.47000000000E+01 0.  1.
         11    1    4    4    0    0 -0.35114889339E+01 -0.15290006815E+02  0.25531836389E+02  0.29966473472E+02  0.00000000000E+00 0. -1.
        -12    1    4    4    0    0  0.80963421844E+02 -0.26231641281E+02 -0.24360653975E+02  0.88524664038E+02  0.00000000000E+00 0.  1.
</event>
<event>
12    1  0.1594900E-001  0.1782673E+03  0.7818608E-02  0.1169747E+00
         21   -1    0    0  501  502  0.00000000000E+00  0.00000000000E+00  0.46796779852E+02  0.46796779852E+02  0.00000000000E+00 0. -1.
         21   -1    0    0  502  503 -0.00000000000E+00 -0.00000000000E+00 -0.10962237956E+04  0.10962237956E+04  0.00000000000E+00 0. -1.
         -6    2    1    2    0  503 -0.36538239055E+02  0.52236059685E+01 -0.87797924492E+03  0.89568767717E+03  0.17333935373E+03 0.  0.
        -24    2    3    3    0    0 -0.34585350682E+02  0.29897193873E+02 -0.85834767376E+03  0.86374885598E+03  0.84919776643E+02 0.  0.
          6    2    1    2  501    0  0.36538239055E+02 -0.52236059685E+01 -0.17144777080E+03  0.24733289826E+03  0.17440440211E+03 0.  0.
         24    2    5    5    0    0 -0.34659315815E+02 -0.33781147678E+02 -0.54735640331E+02  0.10758871624E+03  0.78974093401E+02 0.  0.
          5    1    5    5  501    0  0.71197554870E+02  0.28557541709E+02 -0.11671213047E+03  0.13974418202E+03  0.47000000000E+01 0. -1.
        -11    1    6    6    0    0 -0.40027652323E+00  0.22424987342E+02 -0.29579842152E+02  0.37121521255E+02  0.00000000000E+00 0.  1.
         12    1    6    6    0    0 -0.34259039292E+02 -0.56206135019E+02 -0.25155798178E+02  0.70467194984E+02  0.00000000000E+00 0. -1.
         -5    1    3    3    0  503 -0.19528883729E+01 -0.24673587904E+02 -0.19631571156E+02  0.31938821192E+02  0.47000000000E+01 0.  1.
         13    1    4    4    0    0  0.90471563904E+01  0.21314149158E+01 -0.61011785436E+03  0.61018865130E+03  0.00000000000E+00 0. -1.
        -14    1    4    4    0    0 -0.43632507072E+02  0.27765778957E+02 -0.24822981940E+03  0.25356020467E+03  0.00000000000E+00 0.  1.
</event>
<event>
12    1  0.1594900E-001  0.2154687E+03  0.7818608E-02  0.1137341E+00
         21   -1    0    0  501  502  0.00000000000E+00  0.00000000000E+00  0.24882790434E+03  0.24882790434E+03  0.00000000000E+00 0. -1.
         21   -1    0    0  502  503 -0.00000000000E+00 -0.00000000000E+00 -0.21620308240E+03  0.21620308240E+03  0.00000000000E+00 0. -1.
         -6    2    1    2    0  503  0.12602512943E+03 -0.30674496359E+02 -0.69976978289E+02  0.22638086673E+03  0.17183789266E+03 0.  0.
        -24    2    3    3    0    0  0.67189104959E+02 -0.89656152076E+01  0.25846664790E+02  0.11176318105E+03  0.85018824248E+02 0.  0.
          6    2    1    2  501    0 -0.12602512943E+03  0.30674496359E+02  0.10260180023E+03  0.23865012001E+03  0.17205665461E+03 0.  0.
         24    2    5    5    0    0  0.57134105918E+01  0.61475993418E+01  0.51124239256E+02  0.95023378462E+02  0.79657507974E+02 0.  0.
          5    1    5    5  501    0 -0.13173854002E+03  0.24526897018E+02  0.51477560975E+02  0.14362674155E+03  0.47000000000E+01 0. -1.
        -13    1    6    6    0    0  0.24132936833E+02 -0.23159463911E+02  0.19990445538E+00  0.33448458419E+02  0.00000000000E+00 0.  1.
         14    1    6    6    0    0 -0.18419526241E+02  0.29307063253E+02  0.50924334801E+02  0.61574920043E+02  0.00000000000E+00 0. -1.
         -5    1    3    3    0  503  0.58836024470E+02 -0.21708881152E+02 -0.95823643080E+02  0.11461768567E+03  0.47000000000E+01 0.  1.
         11    1    4    4    0    0  0.50810599896E+01 -0.39009974609E+02  0.48007373782E+01  0.39631330649E+02  0.00000000000E+00 0. -1.
        -12    1    4    4    0    0  0.62108044970E+02  0.30044359401E+02  0.21045927412E+02  0.72131850402E+02  0.00000000000E+00 0.  1.
</event>
<event>
12    1  0.1594900E-001  0.2209931E+03  0.7818608E-02  0.1133367E+00
         21   -1    0    0  501  502  0.00000000000E+00  0.00000000000E+00  0.51623774576E+03  0.51623774576E+03  0.00000000000E+00 0.  1.
         21   -1    0    0  502  503 -0.00000000000E+00 -0.00000000000E+00 -0.10249411199E+03  0.10249411199E+03  0.00000000000E+00 0.  1.
         -6    2    1    2    0  503 -0.19763501036E+02 -0.13617676943E+03  0.11881060494E+03  0.25090614282E+03  0.17292548729E+03 0.  0.
        -24    2    3    3    0    0 -0.12123326944E+01 -0.90082667963E+02  0.15091207310E+03  0.19156470456E+03  0.76198591917E+02 0.  0.
          6    2    1    2  501    0  0.19763501036E+02  0.13617676943E+03  0.29493302883E+03  0.36782571494E+03  0.17139298867E+03 0.  0.
         24    2    5    5    0    0  0.16480918004E+02  0.45473923471E+02  0.46142202090E+02  0.10295452532E+03  0.78300913766E+02 0.  0.
          5    1    5    5  501    0  0.32825830312E+01  0.90702845962E+02  0.24879082674E+03  0.26487118961E+03  0.47000000000E+01 0. -1.
        -11    1    6    6    0    0  0.29450175434E+02  0.11813155735E+01  0.48487330973E+02  0.56742661239E+02  0.00000000000E+00 0.  1.
         12    1    6    6    0    0 -0.12969257430E+02  0.44292607897E+02 -0.23451288828E+01  0.46211864084E+02  0.00000000000E+00 0. -1.
         -5    1    3    3    0  503 -0.18551168341E+02 -0.46094101469E+02 -0.32101468154E+02  0.59341438260E+02  0.47000000000E+01 0.  1.
         13    1    4    4    0    0  0.73810863056E-01 -0.26163336640E+01  0.76998462577E+02  0.77042935361E+02  0.00000000000E+00 0. -1.
        -14    1    4    4    0    0 -0.12861435574E+01 -0.87466334299E+02  0.73913610519E+02  0.11452176920E+03  0.00000000000E+00 0.  1.
</event>
<event>
12    1  0.1594900E-001  0.1820350E+03  0.7818608E-02  0.1166235E+00
         21   -1    0    0  501  502  0.00000000000E+00  0.00000000000E+00  0.50954079988E+03  0.50954079988E+03  0.00000000000E+00 0.  1.
         21   -1    0    0  502  503 -0.00000000000E+00 -0.00000000000E+00 -0.65513250899E+02  0.65513250899E+02  0.00000000000E+00 0.  1.
         -6    2    1    2    0  503 -0.11867852672E+02 -0.58975659806E+02  0.18451934726E+03  0.25806630359E+03  0.17009365995E+03 0.  0.
        -24    2    3    3    0    0 -0.67397195908E+02 -0.66090191315E+02  0.13998844725E+03  0.18637798115E+03  0.78928392149E+02 0.  0.
          6    2    1    2  501    0  0.11867852672E+02  0.58975659806E+02  0.25950820172E+03  0.31698774719E+03  0.17180730699E+03 0.  0.
         24    2    5    5    0    0  0.52993043203E+02 -0.14113803436E+02  0.13512547205E+03  0.16689942528E+03  0.81173042866E+02 0.  0.
          5    1    5    5  501    0 -0.41125190531E+02  0.73089463242E+02  0.12438272967E+03  0.15008832191E+03  0.47000000000E+01 0. -1.
        -11    1    6    6    0    0  0.45788030845E+02 -0.10351533960E+02  0.14597806864E+03  0.15334045307E+03  0.00000000000E+00 0.  1.
         12    1    6    6    0    0  0.72050123581E+01 -0.37622694765E+01 -0.10852596591E+02  0.13558972213E+02  0.00000000000E+00 0. -1.
         -5    1    3    3    0  503  0.55529343236E+02  0.71145315087E+01  0.44530900008E+02  0.71688322440E+02  0.47000000000E+01 0.  1.
         13    1    4    4    0    0 -0.36868037413E+02 -0.80894015558E+02  0.96268809183E+02  0.13103731361E+03  0.00000000000E+00 0. -1.
        -14    1    4    4    0    0 -0.30529158495E+02  0.14803824243E+02  0.43719638071E+02  0.55340667539E+02  0.00000000000E+00 0.  1.
</event>
<event>
12    1  0.1594900E-001  0.1815759E+03  0.7818608E-02  0.1166328E+00
         21   -1    0    0  503  502  0.00000000000E+00  0.00000000000E+00  0.46509175385E+03  0.46509175385E+03  0.00000000000E+00 0. -1.
         21   -1    0    0  501  503 -0.00000000000E+00 -0.00000000000E+00 -0.11297092468E+03  0.11297092468E+03  0.00000000000E+00 0. -1.
          6    2    1    2  501    0 -0.50376117062E+02  0.28388799433E+02 -0.54090604930E+00  0.18140149228E+03  0.17193758088E+03 0.  0.
         24    2    3    3    0    0 -0.59395453293E+02  0.80548643179E+02  0.85080752436E+01  0.12749442606E+03  0.78527304440E+02 0.  0.
         -6    2    1    2    0  502  0.50376117062E+02 -0.28388799433E+02  0.35266173522E+03  0.39666118625E+03  0.17212239855E+03 0.  0.
        -24    2    5    5    0    0 -0.25498986631E+02  0.24429483453E+02  0.18641532691E+03  0.20638044460E+03  0.81210934134E+02 0.  0.
          5    1    3    3  501    0  0.90193362305E+01 -0.52159843745E+02 -0.90489812929E+01  0.53907066216E+02  0.47000000000E+01 0. -1.
        -11    1    4    4    0    0 -0.89698631149E+01  0.87900475294E+01  0.33930336899E+02  0.36179982614E+02  0.00000000000E+00 0.  1.
         12    1    4    4    0    0 -0.50425590178E+02  0.71758595649E+02 -0.25422261656E+02  0.91314443447E+02  0.00000000000E+00 0. -1.
         -5    1    5    5    0  502  0.75875103693E+02 -0.52818282886E+02  0.16624640831E+03  0.19028074165E+03  0.47000000000E+01 0.  1.
         11    1    6    6    0    0  0.42308188284E+01  0.54001156724E+01  0.16489815817E+03  0.16504079388E+03  0.00000000000E+00 0. -1.
        -12    1    6    6    0    0 -0.29729805459E+02  0.19029367781E+02  0.21517168749E+02  0.41339650721E+02  0.00000000000E+00 0.  1.
</event>
<event>
12    1  0.1594900E-001  0.2571093E+03  0.7818608E-02  0.1109203E+00
         21   -1    0    0  501  502  0.00000000000E+00  0.00000000000E+00  0.41358053638E+03  0.41358053638E+03  0.00000000000E+00 0.  1.
         21   -1    0    0  502  503 -0.00000000000E+00 -0.00000000000E+00 -0.17905415322E+03  0.17905415322E+03  0.00000000000E+00 0.  1.
         -6    2    1    2    0  503 -0.19031016488E+03  0.46388091640E+01  0.17467793680E+02  0.25770199370E+03  0.17281700244E+03 0.  0.
        -24    2    3    3    0    0 -0.37883952933E+02 -0.42628937340E+02  0.76529830481E+01  0.97744466664E+02  0.79012609280E+02 0.  0.
          6    2    1    2  501    0  0.19031016488E+03 -0.46388091640E+01  0.21705858948E+03  0.33493269591E+03  0.16978221967E+03 0.  0.
         24    2    5    5    0    0  0.15344169385E+03  0.25426960733E+02  0.11073384822E+03  0.21835535987E+03  0.10595373659E+03 0.  0.
          5    1    5    5  501    0  0.36868471024E+02 -0.30065769897E+02  0.10632474125E+03  0.11657733604E+03  0.47000000000E+01 0. -1.
        -11    1    6    6    0    0  0.15177015984E+03  0.43993826798E+02  0.11914676737E+03  0.19790298226E+03  0.00000000000E+00 0.  1.
         12    1    6    6    0    0  0.16715340154E+01 -0.18566866065E+02 -0.84129191418E+01  0.20452377610E+02  0.00000000000E+00 0. -1.
         -5    1    3    3    0  503 -0.15242621194E+03  0.47267746504E+02  0.98148106323E+01  0.15995752703E+03  0.47000000000E+01 0.  1.
         13    1    4    4    0    0  0.18651760618E+02 -0.16229759188E+02  0.22695186886E+02  0.33561358215E+02  0.00000000000E+00 0. -1.
        -14    1    4    4    0    0 -0.56535713551E+02 -0.26399178152E+02 -0.15042203837E+02  0.64183108449E+02  0.00000000000E+00 0.  1.
</event>
<event>
12    1  0.1594900E-001  0.1788988E+03  0.7818608E-02  0.1169213E+00
         21   -1    0    0  501  502  0.00000000000E+00  0.00000000000E+00  0.80119722619E+02  0.80119722619E+02  0.00000000000E+00 0. -1.
         21   -1    0    0  502  503 -0.00000000000E+00 -0.00000000000E+00 -0.80052162585E+03  0.80052162585E+03  0.00000000000E+00 0. -1.
         -6    2    1    2    0  503  0.24236230266E+02 -0.36159080538E+02 -0.67375556425E+03  0.69710211131E+03  0.17352210024E+03 0.  0.
        -24    2    3    3    0    0  0.64801276621E+02 -0.37808491603E+02 -0.62101549055E+03  0.63037993421E+03  0.78038032184E+02 0.  0.
          6    2    1    2  501    0 -0.24236230266E+02  0.36159080538E+02 -0.46646338974E+02  0.18353923715E+03  0.17209269791E+03 0.  0.
         24    2    5    5    0    0  0.40133260435E+01  0.60258080547E+02 -0.83340022517E+02  0.13112439531E+03  0.81245951506E+02 0.  0.
          5    1    5    5  501    0 -0.28249556309E+02 -0.24099000009E+02  0.36693683543E+02  0.52414841839E+02  0.47000000000E+01 0. -1.
        -11    1    6    6    0    0  0.32056809708E+02  0.27451040511E+02 -0.76578712292E+02  0.87438537557E+02  0.00000000000E+00 0.  1.
         12    1    6    6    0    0 -0.28043483665E+02  0.32807040037E+02 -0.67613102253E+01  0.43685857757E+02  0.00000000000E+00 0. -1.
         -5    1    3    3    0  503 -0.40565046355E+02  0.16494110647E+01 -0.52740073708E+02  0.66722177103E+02  0.47000000000E+01 0.  1.
         11    1    4    4    0    0  0.31468263197E+02 -0.58646849328E+02 -0.45062610989E+03  0.45551464899E+03  0.00000000000E+00 0. -1.
        -12    1    4    4    0    0  0.33333013423E+02  0.20838357725E+02 -0.17038938065E+03  0.17486528522E+03  0.00000000000E+00 0.  1.
</event>
<event>
12    1  0.1594900E-001  0.2303711E+03  0.7818608E-02  0.1127028E+00
         21   -1    0    0  501  502  0.00000000000E+00  0.00000000000E+00  0.13575472148E+03  0.13575472148E+03  0.00000000000E+00 0. -1.
         21   -1    0    0  502  503 -0.00000000000E+00 -0.00000000000E+00 -0.43612657881E+03  0.43612657881E+03  0.00000000000E+00 0.  1.
         -6    2    1    2    0  503  0.96748414922E+02 -0.11475332495E+03 -0.24940449601E+03  0.33951940136E+03  0.17476338259E+03 0.  0.
        -24    2    3    3    0    0 -0.19541105821E+02 -0.57473786465E+02 -0.10608655516E+03  0.14621570162E+03  0.80247014076E+02 0.  0.
          6    2    1    2  501    0 -0.96748414922E+02  0.11475332495E+03 -0.50967361321E+02  0.23236189893E+03  0.16989937839E+03 0.  0.
         24    2    5    5    0    0 -0.31190766332E+02  0.46654234555E+02  0.35332225075E+02  0.10427989390E+03  0.80476385582E+02 0.  0.
          5    1    5    5  501    0 -0.65557648590E+02  0.68099090391E+02 -0.86299586395E+02  0.12808200503E+03  0.47000000000E+01 0. -1.
        -13    1    6    6    0    0 -0.23853955821E+02  0.44405031635E+02 -0.15605841216E+02  0.52767038223E+02  0.00000000000E+00 0.  1.
         14    1    6    6    0    0 -0.73368105110E+01  0.22492029200E+01  0.50938066291E+02  0.51512855674E+02  0.00000000000E+00 0. -1.
         -5    1    3    3    0  503  0.11628952074E+03 -0.57279538481E+02 -0.14331794085E+03  0.19330369974E+03  0.47000000000E+01 0.  1.
         13    1    4    4    0    0 -0.19713512813E+02 -0.11989230615E+02  0.71744527615E+01  0.24162719437E+02  0.00000000000E+00 0. -1.
        -14    1    4    4    0    0  0.17240699219E+00 -0.45484555850E+02 -0.11326100792E+03  0.12205298218E+03  0.00000000000E+00 0.  1.
</event>
<event>
12    1  0.1594900E-001  0.2633598E+03  0.7818608E-02  0.1105668E+00
         21   -1    0    0  503  502  0.00000000000E+00  0.00000000000E+00  0.72785519338E+03  0.72785519338E+03  0.00000000000E+00 0.  1.
         21   -1    0    0  501  503 -0.00000000000E+00 -0.00000000000E+00 -0.97307848324E+02  0.97307848324E+02  0.00000000000E+00 0. -1.
          6    2    1    2  501    0  0.75968737696E+02 -0.17938860496E+03  0.23730425195E+03  0.35187821769E+03  0.17191117297E+03 0.  0.
         24    2    3    3    0    0  0.91946497951E+02 -0.15786967415E+03  0.11557100740E+03  0.22714078932E+03  0.69708592868E+02 0.  0.
         -6    2    1    2    0  502 -0.75968737696E+02  0.17938860496E+03  0.39324309311E+03  0.47328482402E+03  0.17721984560E+03 0.  0.
        -24    2    5    5    0    0 -0.12944432854E+02  0.12386749235E+03  0.10230224245E+03  0.17042623404E+03  0.55395292538E+02 0.  0.
          5    1    3    3  501    0 -0.15977760256E+02 -0.21518930812E+02  0.12173324455E+03  0.12473742837E+03  0.47000000000E+01 0. -1.
        -11    1    4    4    0    0  0.66548534539E+02 -0.83030589599E+02  0.10113307273E+03  0.14680151449E+03  0.00000000000E+00 0.  1.
         12    1    4    4    0    0  0.25397963412E+02 -0.74839084552E+02  0.14437934673E+02  0.80339274827E+02  0.00000000000E+00 0. -1.
         -5    1    5    5    0  502 -0.63024304841E+02  0.55521112617E+02  0.29094085065E+03  0.30285858998E+03  0.47000000000E+01 0.  1.
         13    1    6    6    0    0  0.75003133986E+01  0.30741797010E+02  0.15036950095E+01  0.31679234258E+02  0.00000000000E+00 0. -1.
        -14    1    6    6    0    0 -0.20444746253E+02  0.93125695337E+02  0.10079854745E+03  0.13874699978E+03  0.00000000000E+00 0.  1.
</event>
<event>
12    1  0.1594900E-001  0.2359046E+03  0.7818608E-02  0.1122721E+00
         21   -1    0    0  503  502  0.00000000000E+00  0.00000000000E+00  0.89155630228E+03  0.89155630228E+03  0.00000000000E+00 0.  1.
         21   -1    0    0  501  503 -0.00000000000E+00 -0.00000000000E+00 -0.65230839943E+02  0.65230839943E+02  0.00000000000E+00 0. -1.
          6    2    1    2  501    0 -0.14800463888E+03 -0.61360101057E+02  0.51783244555E+03  0.56903553409E+03  0.17314895972E+03 0.  0.
         24    2    3    3    0    0 -0.45612178079E+02  0.21864323113E+02  0.21577508483E+03  0.23938229206E+03  0.90479141833E+02 0.  0.
         -6    2    1    2    0  502  0.14800463888E+03  0.61360101057E+02  0.30849301678E+03  0.38775160814E+03  0.17179328589E+03 0.  0.
        -24    2    5    5    0    0  0.11877050489E+03  0.12653337576E+02  0.10680176566E+03  0.17816049626E+03  0.77897403654E+02 0.  0.
          5    1    3    3  501    0 -0.10239246080E+03 -0.83224424171E+02  0.30205736073E+03  0.32965324202E+03  0.47000000000E+01 0. -1.
        -13    1    4    4    0    0 -0.68420286380E+02  0.34974336691E+02  0.14987457638E+03  0.16842484514E+03  0.00000000000E+00 0.  1.
         14    1    4    4    0    0  0.22808108301E+02 -0.13110013578E+02  0.65900508448E+02  0.70957446924E+02  0.00000000000E+00 0. -1.
         -5    1    5    5    0  502  0.29234133993E+02  0.48706763482E+02  0.20169125113E+03  0.20959111188E+03  0.47000000000E+01 0.  1.
         13    1    6    6    0    0  0.78107603839E+02  0.45440941998E+02  0.67770477394E+02  0.11295359487E+03  0.00000000000E+00 0. -1.
        -14    1    6    6    0    0  0.40662901048E+02 -0.32787604422E+02  0.39031288266E+02  0.65206901391E+02  0.00000000000E+00 0.  1.
</event>
<event>
12    1  0.1594900E-001  0.2038324E+03  0.7818608E-02  0.1149492E+00
         21   -1    0    0  501  502  0.00000000000E+00  0.00000000000E+00  0.69552814655E+02  0.69552814655E+02  0.00000000000E+00 0.  1.
         21   -1    0    0  502  503 -0.00000000000E+00 -0.00000000000E+00 -0.85392465875E+03  0.85392465875E+03  0.00000000000E+00 0. -1.
         -6    2    1    2    0  503  0.38866280485E+02  0.72022367887E+02 -0.12926952913E+03  0.24136751676E+03  0.18668116603E+03 0.  0.
        -24    2    3    3    0    0  0.22535876568E+01 -0.37970489806E+02 -0.48114532856E+02  0.99779588462E+02  0.78702739776E+02 0.  0.
          6    2    1    2  501    0 -0.38866280485E+02 -0.72022367887E+02 -0.65510231497E+03  0.68210995665E+03  0.17151425785E+03 0.  0.
         24    2    5    5    0    0  0.44136778497E+02 -0.38826932531E+02 -0.28939172121E+03  0.30560262190E+03  0.78675334781E+02 0.  0.
          5    1    5    5  501    0 -0.83003058982E+02 -0.33195435356E+02 -0.36571059376E+03  0.37650733475E+03  0.47000000000E+01 0. -1.
        -11    1    6    6    0    0 -0.20168535798E+02  0.63826326250E+00 -0.36630649116E+02  0.41820828195E+02  0.00000000000E+00 0.  1.
         12    1    6    6    0    0  0.64305314295E+02 -0.39465195794E+02 -0.25276107209E+03  0.26378179371E+03  0.00000000000E+00 0. -1.
         -5    1    3    3    0  503  0.36612692828E+02  0.10999285769E+03 -0.81154996270E+02  0.14158792830E+03  0.47000000000E+01 0.  1.
         11    1    4    4    0    0 -0.34925326584E+02 -0.33535974430E+02 -0.36306221288E+02  0.60519267363E+02  0.00000000000E+00 0. -1.
        -12    1    4    4    0    0  0.37178914240E+02 -0.44345153754E+01 -0.11808311568E+02  0.39260321099E+02  0.00000000000E+00 0.  1.
</event>
<event>
12    1  0.1594900E-001  0.3153839E+03  0.7818608E-02  0.1077874E+00
         21   -1    0    0  501  502  0.00000000000E+00  0.00000000000E+00  0.12999617069E+04  0.12999617069E+04  0.00000000000E+00 0.  1.
         21   -1    0    0  502  503 -0.00000000000E+00 -0.00000000000E+00 -0.98076456072E+02  0.98076456072E+02  0.00000000000E+00 0.  1.
         -6    2    1    2    0  503  0.34551112716E+02 -0.26217752187E+03  0.27143113404E+03  0.41558619090E+03  0.17060536092E+03 0.  0.
        -24    2    3    3    0    0  0.39760836289E+02 -0.50073015720E+02  0.49599891879E+02  0.10859001381E+03  0.72411399786E+02 0.  0.
          6    2    1    2  501    0 -0.34551112716E+02  0.26217752187E+03  0.93045411680E+03  0.98245197209E+03  0.17186093687E+03 0.  0.
         24    2    5    5    0    0 -0.70453427910E+02  0.25059425073E+03  0.73610478633E+03  0.78441939734E+03  0.75514041495E+02 0.  0.
          5    1    5    5  501    0  0.35902315195E+02  0.11583271145E+02  0.19434933047E+03  0.19803257475E+03  0.47000000000E+01 0. -1.
        -13    1    6    6    0    0 -0.26700972566E+02  0.17139171956E+03  0.56266831860E+03  0.58879852261E+03  0.00000000000E+00 0.  1.
         14    1    6    6    0    0 -0.43752455344E+02  0.79202531166E+02  0.17343646773E+03  0.19562087473E+03  0.00000000000E+00 0. -1.
         -5    1    3    3    0  503 -0.52097235733E+01 -0.21210450615E+03  0.22183124216E+03  0.30699617709E+03  0.47000000000E+01 0.  1.
         13    1    4    4    0    0  0.15582216448E+02 -0.12759529150E+01  0.51778774457E+02  0.54087660419E+02  0.00000000000E+00 0. -1.
        -14    1    4    4    0    0  0.24178619841E+02 -0.48797062805E+02 -0.21788825780E+01  0.54502353391E+02  0.00000000000E+00 0.  1.
</event>
<event>
12    1  0.1594900E-001  0.1836534E+03  0.7818608E-02  0.1165858E+00
         21   -1    0    0  503  502  0.00000000000E+00  0.00000000000E+00  0.16130059345E+02  0.16130059345E+02  0.00000000000E+00 0. -1.
         21   -1    0    0  501  503 -0.00000000000E+00 -0.00000000000E+00 -0.24156285173E+04  0.24156285173E+04  0.00000000000E+00 0. -1.
          6    2    1    2  501    0  0.52642544377E+02  0.11962599335E+02 -0.17105353550E+04  0.17203661732E+04  0.17553981866E+03 0.  0.
         24    2    3    3    0    0  0.49291217569E+02 -0.57341294510E+02 -0.84590786666E+03  0.85294641052E+03  0.78992481683E+02 0.  0.
         -6    2    1    2    0  502 -0.52642544377E+02 -0.11962599335E+02 -0.68896310296E+03  0.71139240345E+03  0.16880359350E+03 0.  0.
        -24    2    5    5    0    0 -0.40390877211E+02  0.49444082463E+02 -0.28820356415E+03  0.30574331635E+03  0.79633792133E+02 0.  0.
          5    1    3    3  501    0  0.33513268077E+01  0.69303893845E+02 -0.86462748830E+03  0.86741976263E+03  0.47000000000E+01 0. -1.
        -13    1    4    4    0    0  0.14170186401E+02  0.42387795061E+01 -0.25481894861E+02  0.29463339934E+02  0.00000000000E+00 0.  1.
         14    1    4    4    0    0  0.35121031168E+02 -0.61580074016E+02 -0.82042597179E+03  0.82348307059E+03  0.00000000000E+00 0. -1.
         -5    1    5    5    0  502 -0.12251667166E+02 -0.61406681798E+02 -0.40075953881E+03  0.40564908710E+03  0.47000000000E+01 0.  1.
         13    1    6    6    0    0  0.12849817076E+01  0.58087429677E+02 -0.19070129685E+03  0.19935592613E+03  0.00000000000E+00 0. -1.
        -14    1    6    6    0    0 -0.41675858918E+02 -0.86433472140E+01 -0.97502267307E+02  0.10638739022E+03  0.00000000000E+00 0.  1.
</event>
<event>
12    1  0.1594900E-001  0.1779204E+03  0.7818608E-02  0.1170069E+00
         21   -1    0    0  501  502  0.00000000000E+00  0.00000000000E+00  0.36581983730E+03  0.36581983730E+03  0.00000000000E+00 0. -1.
         21   -1    0    0  502  503 -0.00000000000E+00 -0.00000000000E+00 -0.16536146552E+03  0.16536146552E+03  0.00000000000E+00 0. -1.
         -6    2    1    2    0  503  0.30600152922E+02  0.24850903637E+02 -0.83547124572E+02  0.19655985601E+03  0.17349846743E+03 0.  0.
        -24    2    3    3    0    0  0.76235175621E+01 -0.33638752673E+02 -0.99359322468E+02  0.13159000708E+03  0.79082054228E+02 0.  0.
          6    2    1    2  501    0 -0.30600152922E+02 -0.24850903637E+02  0.28400549634E+03  0.33462144681E+03  0.17250638811E+03 0.  0.
         24    2    5    5    0    0 -0.80372178107E+00 -0.15713795448E+02  0.29118157441E+03  0.30229653148E+03  0.79680074848E+02 0.  0.
          5    1    5    5  501    0 -0.29796431141E+02 -0.91371081890E+01 -0.71760780691E+01  0.32324915333E+02  0.47000000000E+01 0. -1.
        -11    1    6    6    0    0 -0.23051901087E+02 -0.86137316966E+01  0.24955148468E+02  0.35047766727E+02  0.00000000000E+00 0.  1.
         12    1    6    6    0    0  0.22248179306E+02 -0.71000637513E+01  0.26622642595E+03  0.26724876475E+03  0.00000000000E+00 0. -1.
         -5    1    3    3    0  503  0.22976635360E+02  0.58489656310E+02  0.15812197896E+02  0.64969848930E+02  0.47000000000E+01 0.  1.
         13    1    4    4    0    0 -0.25808996645E+02 -0.43606009890E+02 -0.50362035761E+02  0.71441745866E+02  0.00000000000E+00 0. -1.
        -14    1    4    4    0    0  0.33432514207E+02  0.99672572167E+01 -0.48997286707E+02  0.60148261216E+02  0.00000000000E+00 0.  1.
</event>
<event>
12    1  0.1594900E-001  0.5019517E+03  0.7818608E-02  0.1013492E+00
         21   -1    0    0  503  502  0.00000000000E+00  0.00000000000E+00  0.25015323929E+03  0.25015323929E+03  0.00000000000E+00 0. -1.
         21   -1    0    0  501  503 -0.00000000000E+00 -0.00000000000E+00 -0.13631256417E+04  0.13631256417E+04  0.00000000000E+00 0.  1.
          6    2    1    2  501    0  0.10563806289E+03  0.45873440467E+03 -0.97119465219E+03  0.10916886141E+04  0.16422034989E+03 0.  0.
         24    2    3    3    0    0  0.99984748783E+02  0.39477183015E+03 -0.70521229520E+03  0.81802481463E+03  0.77449778476E+02 0.  0.
         -6    2    1    2    0  502 -0.10563806289E+03 -0.45873440467E+03 -0.14177775023E+03  0.52159026692E+03  0.17423783094E+03 0.  0.
        -24    2    5    5    0    0 -0.91799179337E+02 -0.21716515427E+03 -0.13274123530E+03  0.27941065169E+03  0.69730073642E+02 0.  0.
          5    1    3    3  501    0  0.56533141103E+01  0.63962574518E+02 -0.26598235699E+03  0.27366379945E+03  0.47000000000E+01 0. -1.
        -11    1    4    4    0    0  0.66665604569E+02  0.12290752811E+03 -0.26303309322E+03  0.29788751472E+03  0.00000000000E+00 0.  1.
         12    1    4    4    0    0  0.33319144215E+02  0.27186430204E+03 -0.44217920198E+03  0.52013729991E+03  0.00000000000E+00 0. -1.
         -5    1    5    5    0  502 -0.13838883557E+02 -0.24156925039E+03 -0.90365149291E+01  0.24217961524E+03  0.47000000000E+01 0.  1.
         11    1    6    6    0    0 -0.45141723908E+01 -0.96913859739E+02 -0.58705740542E+02  0.11339769810E+03  0.00000000000E+00 0. -1.
        -12    1    6    6    0    0 -0.87285006946E+02 -0.12025129453E+03 -0.74035494755E+02  0.16601295359E+03  0.00000000000E+00 0.  1.
</event>
<event>
12    1  0.1594900E-001  0.2861866E+03  0.7818608E-02  0.1092381E+00
         21   -1    0    0  503  502  0.00000000000E+00  0.00000000000E+00  0.36434487590E+03  0.36434487590E+03  0.00000000000E+00 0. -1.
         21   -1    0    0  501  503 -0.00000000000E+00 -0.00000000000E+00 -0.25262511159E+03  0.25262511159E+03  0.00000000000E+00 0.  1.
          6    2    1    2  501    0 -0.13926836430E+02 -0.22788411398E+03 -0.46777016762E+02  0.28998420283E+03  0.17256193792E+03 0.  0.
         24    2    3    3    0    0  0.40449642122E+02 -0.14943411350E+03 -0.76627267325E+02  0.18986261948E+03  0.78799418469E+02 0.  0.
         -6    2    1    2    0  502  0.13926836430E+02  0.22788411398E+03  0.15849678107E+03  0.32698578466E+03  0.17225953553E+03 0.  0.
        -24    2    5    5    0    0 -0.48229114682E+02  0.95403884018E+02  0.42162990845E+02  0.13998307255E+03  0.79934937379E+02 0.  0.
          5    1    3    3  501    0 -0.54376478552E+02 -0.78450000484E+02  0.29850250563E+02  0.10012158336E+03  0.47000000000E+01 0. -1.
        -13    1    4    4    0    0  0.24026225152E+02 -0.11478845821E+02  0.72239004026E+01  0.27590000606E+02  0.00000000000E+00 0.  1.
         14    1    4    4    0    0  0.16423416970E+02 -0.13795526768E+03 -0.83851167727E+02  0.16227261887E+03  0.00000000000E+00 0. -1.
         -5    1    5    5    0  502  0.62155951113E+02  0.13248022997E+03  0.11633379022E+03  0.18700271212E+03  0.47000000000E+01 0.  1.
         11    1    6    6    0    0 -0.39945031703E+02  0.49629494269E+02  0.62470303343E+02  0.89225730924E+02  0.00000000000E+00 0. -1.
        -12    1    6    6    0    0 -0.82840829793E+01  0.45774389749E+02 -0.20307312498E+02  0.50757341622E+02  0.00000000000E+00 0.  1.
</event>
<event>
12    1  0.1594900E-001  0.1870214E+03  0.7818608E-02  0.1162281E+00
         21   -1    0    0  501  502  0.00000000000E+00  0.00000000000E+00  0.26245838923E+03  0.26245838923E+03  0.00000000000E+00 0.  1.
         21   -1    0    0  502  503 -0.00000000000E+00 -0.00000000000E+00 -0.16297842688E+03  0.16297842688E+03  0.00000000000E+00 0.  1.
         -6    2    1    2    0  503  0.62078235185E+02 -0.10940941489E+02 -0.45559119049E+02  0.19249060738E+03  0.17607836073E+03 0.  0.
        -24    2    3    3    0    0  0.10840444492E+03 -0.20211760577E+02 -0.46505620788E+02  0.14500322315E+03  0.81872602344E+02 0.  0.
          6    2    1    2  501    0 -0.62078235185E+02  0.10940941489E+02  0.14503908140E+03  0.23294620873E+03  0.17103856157E+03 0.  0.
         24    2    5    5    0    0  0.22106088417E+02 -0.26859139985E+01  0.26436568705E+02  0.86791025625E+02  0.79610908079E+02 0.  0.
          5    1    5    5  501    0 -0.84184323602E+02  0.13626855487E+02  0.11860251269E+03  0.14615518310E+03  0.47000000000E+01 0. -1.
        -13    1    6    6    0    0  0.22177285462E+02  0.34166629758E+01  0.54043943934E+02  0.58517121018E+02  0.00000000000E+00 0.  1.
         14    1    6    6    0    0 -0.71197045024E-01 -0.61025769743E+01 -0.27607375228E+02  0.28273904607E+02  0.00000000000E+00 0. -1.
         -5    1    3    3    0  503 -0.46326209739E+02  0.92708190883E+01  0.94650173851E+00  0.47487384229E+02  0.47000000000E+01 0.  1.
         13    1    4    4    0    0  0.45312886296E+02  0.58732471616E+01  0.19832239680E+02  0.49810344582E+02  0.00000000000E+00 0. -1.
        -14    1    4    4    0    0  0.63091558628E+02 -0.26085007739E+02 -0.66337860468E+02  0.95192878569E+02  0.00000000000E+00 0.  1.
</event>
<event>
12    1  0.1594900E-001  0.1731254E+03  0.7818608E-02  0.1174646E+00
         21   -1    0    0  501  502  0.00000000000E+00  0.00000000000E+00  0.24891589721E+03  0.24891589721E+03  0.00000000000E+00 0.  1.
         21   -1    0    0  502  503 -0.00000000000E+00 -0.00000000000E+00 -0.13579510272E+03  0.13579510272E+03  0.00000000000E+00 0.  1.
         -6    2    1    2    0  503 -0.16601590101E+02 -0.16308970824E+02 -0.82977023516E+01  0.17325212840E+03  0.17148134828E+03 0.  0.
        -24    2    3    3    0    0  0.22333418945E+02 -0.63303828423E+02  0.19048013743E+02  0.10621236588E+03  0.80075486527E+02 0.  0.
          6    2    1    2  501    0  0.16601590101E+02  0.16308970824E+02  0.12141849684E+03  0.21145887153E+03  0.17155409540E+03 0.  0.
         24    2    5    5    0    0  0.35733666555E+02 -0.34415959033E+02  0.12693497303E+03  0.15676356672E+03  0.77465962276E+02 0.  0.
          5    1    5    5  501    0 -0.19132076453E+02  0.50724929857E+02 -0.55164761879E+01  0.54695304807E+02  0.47000000000E+01 0. -1.
        -11    1    6    6    0    0  0.12775673564E+02 -0.29154150160E+02  0.45753760594E+01  0.32157679839E+02  0.00000000000E+00 0.  1.
         12    1    6    6    0    0  0.22957992991E+02 -0.52618088730E+01  0.12235959697E+03  0.12460588688E+03  0.00000000000E+00 0. -1.
         -5    1    3    3    0  503 -0.38935009046E+02  0.46994857599E+02 -0.27345716095E+02  0.67039762521E+02  0.47000000000E+01 0.  1.
         13    1    4    4    0    0  0.27368924353E+02 -0.23841756443E+02  0.45675334114E+02  0.58341439106E+02  0.00000000000E+00 0. -1.
        -14    1    4    4    0    0 -0.50355054075E+01 -0.39462071980E+02 -0.26627320371E+02  0.47870926770E+02  0.00000000000E+00 0.  1.
</event>
<event>
12    1  0.1594900E-001  0.1927306E+03  0.7818608E-02  0.1156233E+00
         21   -1    0    0  501  502  0.00000000000E+00  0.00000000000E+00  0.52324637226E+02  0.52324637226E+02  0.00000000000E+00 0.  1.
         21   -1    0    0  502  503 -0.00000000000E+00 -0.00000000000E+00 -0.86100376077E+03  0.86100376077E+03  0.00000000000E+00 0. -1.
         -6    2    1    2    0  503 -0.65784262681E+01 -0.87030298926E+02 -0.59868015527E+03  0.62893801612E+03  0.17183582624E+03 0.  0.
        -24    2    3    3    0    0  0.18687836343E+02 -0.24493183784E+02 -0.51185714392E+03  0.51889438797E+03  0.79400874073E+02 0.  0.
          6    2    1    2  501    0  0.65784262681E+01  0.87030298926E+02 -0.20999896827E+03  0.28439038188E+03  0.17076525995E+03 0.  0.
         24    2    5    5    0    0  0.49016292401E+02  0.95224086898E+02 -0.10224004471E+03  0.16819147375E+03  0.79781711269E+02 0.  0.
          5    1    5    5  501    0 -0.42437866133E+02 -0.81937879723E+01 -0.10775892356E+03  0.11619890813E+03  0.47000000000E+01 0. -1.
        -11    1    6    6    0    0  0.47393937513E+02  0.17871060906E+02 -0.17855989759E+02  0.53706577821E+02  0.00000000000E+00 0.  1.
         12    1    6    6    0    0  0.16223548874E+01  0.77353025992E+02 -0.84384054955E+02  0.11448489593E+03  0.00000000000E+00 0. -1.
         -5    1    3    3    0  503 -0.25266262611E+02 -0.62537115141E+02 -0.86823011354E+02  0.11004362815E+03  0.47000000000E+01 0.  1.
         11    1    4    4    0    0 -0.30415242559E+02 -0.55580099963E+01 -0.24066548013E+03  0.24264346639E+03  0.00000000000E+00 0. -1.
        -12    1    4    4    0    0  0.49103078902E+02 -0.18935173788E+02 -0.27119166379E+03  0.27625092158E+03  0.00000000000E+00 0.  1.
</event>
<event>
12    1  0.1594900E-001  0.2090397E+03  0.7818608E-02  0.1142463E+00
         21   -1    0    0  501  502  0.00000000000E+00  0.00000000000E+00  0.15305231558E+03  0.15305231558E+03  0.00000000000E+00 0.  1.
         21   -1    0    0  502  503 -0.00000000000E+00 -0.00000000000E+00 -0.28762042060E+03  0.28762042060E+03  0.00000000000E+00 0.  1.
         -6    2    1    2    0  503  0.94623165112E+02 -0.69882259507E+02 -0.89800430485E+02  0.22689310715E+03  0.17198631104E+03 0.  0.
        -24    2    3    3    0    0  0.11777020921E+03 -0.96582122156E+02 -0.64783661982E+02  0.18334317004E+03  0.78866131145E+02 0.  0.
          6    2    1    2  501    0 -0.94623165112E+02  0.69882259507E+02 -0.44767674531E+02  0.21377962904E+03  0.17280194310E+03 0.  0.
         24    2    5    5    0    0 -0.11358470901E+03  0.31383879321E+02 -0.75413621066E+02  0.16083692923E+03  0.79340214010E+02 0.  0.
          5    1    5    5  501    0  0.18961543898E+02  0.38498380185E+02  0.30645946534E+02  0.52942699807E+02  0.47000000000E+01 0. -1.
        -13    1    6    6    0    0 -0.56842186134E+02  0.46824778794E+02 -0.70295194659E+02  0.10180868541E+03  0.00000000000E+00 0.  1.
         14    1    6    6    0    0 -0.56742522876E+02 -0.15440899473E+02 -0.51184264065E+01  0.59028243814E+02  0.00000000000E+00 0. -1.
         -5    1    3    3    0  503 -0.23147044099E+02  0.26699862650E+02 -0.25016768503E+02  0.43549937111E+02  0.47000000000E+01 0.  1.
         13    1    4    4    0    0  0.19325987586E+02 -0.65378808271E+02 -0.23208104720E+02  0.72017348548E+02  0.00000000000E+00 0. -1.
        -14    1    4    4    0    0  0.98444221625E+02 -0.31203313885E+02 -0.41575557262E+02  0.11132582149E+03  0.00000000000E+00 0.  1.
</event>
<event>
12    1  0.1594900E-001  0.2034995E+03  0.7818608E-02  0.1147251E+00
         21   -1    0    0  501  502  0.00000000000E+00  0.00000000000E+00  0.16096285124E+03  0.16096285124E+03  0.00000000000E+00 0. -1.
         21   -1    0    0  502  503 -0.00000000000E+00 -0.00000000000E+00 -0.25764681928E+03  0.25764681928E+03  0.00000000000E+00 0. -1.
         -6    2    1    2    0  503  0.10837710788E+03  0.21226338694E+02 -0.71157584090E+02  0.21558162873E+03  0.17092653950E+03 0.  0.
        -24    2    3    3    0    0  0.80488582114E+02  0.46246741084E+02  0.12595673476E+02  0.12370949716E+03  0.80797374874E+02 0.  0.
          6    2    1    2  501    0 -0.10837710788E+03 -0.21226338694E+02 -0.25526383958E+02  0.20302804179E+03  0.16844178374E+03 0.  0.
         24    2    5    5    0    0 -0.17344229882E+02  0.29501090976E+02 -0.36207355119E+02  0.98164176986E+02  0.84581891677E+02 0.  0.
          5    1    5    5  501    0 -0.91032877997E+02 -0.50727429669E+02  0.10680971161E+02  0.10486386481E+03  0.47000000000E+01 0. -1.
        -11    1    6    6    0    0 -0.25105398415E+02 -0.14659410349E+02  0.12778448887E+02  0.31756386717E+02  0.00000000000E+00 0.  1.
         12    1    6    6    0    0  0.77611685334E+01  0.44160501325E+02 -0.48985804006E+02  0.66407790269E+02  0.00000000000E+00 0. -1.
         -5    1    3    3    0  503  0.27888525765E+02 -0.25020402391E+02 -0.83753257566E+02  0.91872131564E+02  0.47000000000E+01 0.  1.
         13    1    4    4    0    0  0.47804715462E+02  0.57038181937E+02  0.35408901823E+02  0.82416232305E+02  0.00000000000E+00 0. -1.
        -14    1    4    4    0    0  0.32683866652E+02 -0.10791440853E+02 -0.22813228348E+02  0.41293264858E+02  0.00000000000E+00 0.  1.
</event>
<event>
12    1  0.1594900E-001  0.2843251E+03  0.7818608E-02  0.1093520E+00
         21   -1    0    0  503  502  0.00000000000E+00  0.00000000000E+00  0.11610473238E+03  0.11610473238E+03  0.00000000000E+00 0. -1.
         21   -1    0    0  501  503 -0.00000000000E+00 -0.00000000000E+00 -0.83486202774E+03  0.83486202774E+03  0.00000000000E+00 0.  1.
          6    2    1    2  501    0 -0.34637981776E+02 -0.22250001972E+03 -0.55459285902E+03  0.62265176351E+03  0.17151073078E+03 0.  0.
         24    2    3    3    0    0 -0.98198892844E+01 -0.12367028915E+03 -0.17263726469E+03  0.22730960867E+03  0.80469015073E+02 0.  0.
         -6    2    1    2    0  502  0.34637981776E+02  0.22250001972E+03 -0.16416443635E+03  0.32831499661E+03  0.17359356637E+03 0.  0.
        -24    2    5    5    0    0 -0.44855552795E+02  0.89453573209E+02 -0.66061135182E+02  0.14482950218E+03  0.81225296212E+02 0.  0.
          5    1    3    3  501    0 -0.24818092492E+02 -0.98829730561E+02 -0.38195559432E+03  0.39534215484E+03  0.47000000000E+01 0. -1.
        -11    1    4    4    0    0 -0.36870063458E+02 -0.30357805097E+02 -0.36742949890E+02  0.60258130376E+02  0.00000000000E+00 0.  1.
         12    1    4    4    0    0  0.27050174174E+02 -0.93312484057E+02 -0.13589431480E+03  0.16705147829E+03  0.00000000000E+00 0. -1.
         -5    1    5    5    0  502  0.79493534571E+02  0.13304644651E+03 -0.98103301164E+02  0.18348549443E+03  0.47000000000E+01 0.  1.
         13    1    6    6    0    0 -0.50211014967E+00  0.79662888458E+02 -0.24720528346E+02  0.83411824305E+02  0.00000000000E+00 0. -1.
        -14    1    6    6    0    0 -0.44353442646E+02  0.97906847502E+01 -0.41340606836E+02  0.61417677878E+02  0.00000000000E+00 0.  1.
</event>
<event>
12    1  0.1594900E-001  0.3187502E+03  0.7818608E-02  0.1076266E+00
         21   -1    0    0  503  502  0.00000000000E+00  0.00000000000E+00  0.33378947189E+03  0.33378947189E+03  0.00000000000E+00 0.  1.
         21   -1    0    0  501  503 -0.00000000000E+00 -0.00000000000E+00 -0.30772670609E+03  0.30772670609E+03  0.00000000000E+00 0.  1.
          6    2    1    2  501    0 -0.74190904589E+00 -0.26782632298E+03  0.48060048520E+02  0.32235297380E+03  0.17282992144E+03 0.  0.
         24    2    3    3    0    0 -0.73455246182E+01 -0.28474767529E+03  0.57285671467E+02  0.30144503222E+03  0.80325985735E+02 0.  0.
         -6    2    1    2    0  502  0.74190904589E+00  0.26782632298E+03 -0.21997282716E+02  0.31916320418E+03  0.17219111691E+03 0.  0.
        -24    2    5    5    0    0 -0.67016668219E+02  0.14653419418E+03 -0.12825156941E+02  0.17984621600E+03  0.78845880531E+02 0.  0.
          5    1    3    3  501    0  0.66036155723E+01  0.16921352302E+02 -0.92256229470E+01  0.20907941580E+02  0.47000000000E+01 0. -1.
        -13    1    4    4    0    0  0.29797947934E+02 -0.52501585310E+02  0.17953136936E+02  0.62981340784E+02  0.00000000000E+00 0.  1.
         14    1    4    4    0    0 -0.37143472552E+02 -0.23224608998E+03  0.39332534531E+02  0.23846369144E+03  0.00000000000E+00 0. -1.
         -5    1    5    5    0  502  0.67758577265E+02  0.12129212881E+03 -0.91721257747E+01  0.13931698818E+03  0.47000000000E+01 0.  1.
         11    1    6    6    0    0  0.24136447201E+01  0.36486373761E+02  0.25053294591E+02  0.44325486133E+02  0.00000000000E+00 0. -1.
        -12    1    6    6    0    0 -0.69430312939E+02  0.11004782041E+03 -0.37878451533E+02  0.13552072987E+03  0.00000000000E+00 0.  1.
</event>
<event>
12    1  0.1594900E-001  0.1772650E+03  0.7818608E-02  0.1172195E+00
         21   -1    0    0  501  502  0.00000000000E+00  0.00000000000E+00  0.12326840954E+03  0.12326840954E+03  0.00000000000E+00 0. -1.
         21   -1    0    0  502  503 -0.00000000000E+00 -0.00000000000E+00 -0.58552702923E+03  0.58552702923E+03  0.00000000000E+00 0. -1.
         -6    2    1    2    0  503  0.41099652557E+01  0.13962402634E+02 -0.49939502944E+03  0.52768220918E+03  0.16982720028E+03 0.  0.
        -24    2    3    3    0    0  0.70273238686E+01  0.26847635094E+02 -0.50548308493E+03  0.51239513568E+03  0.79154577415E+02 0.  0.
          6    2    1    2  501    0 -0.41099652557E+01 -0.13962402634E+02  0.37136409753E+02  0.18111322959E+03  0.17666648946E+03 0.  0.
         24    2    5    5    0    0  0.11399597755E+02 -0.11560814765E+02 -0.47603249293E+02  0.94804400464E+02  0.80362937583E+02 0.  0.
          5    1    5    5  501    0 -0.15509563011E+02 -0.24015878689E+01  0.84739659046E+02  0.86308829122E+02  0.47000000000E+01 0. -1.
        -11    1    6    6    0    0  0.20051319449E+02  0.52380253646E+01  0.17431337429E+02  0.27080322116E+02  0.00000000000E+00 0.  1.
         12    1    6    6    0    0 -0.86517216933E+01 -0.16798840130E+02 -0.65034586722E+02  0.67724078348E+02  0.00000000000E+00 0. -1.
         -5    1    3    3    0  503 -0.29173586130E+01 -0.12885232460E+02  0.60880554863E+01  0.15287073507E+02  0.47000000000E+01 0.  1.
         13    1    4    4    0    0  0.32745573551E+01 -0.23120975589E+02 -0.64931086188E+02  0.69002523082E+02  0.00000000000E+00 0. -1.
        -14    1    4    4    0    0  0.37527665135E+01  0.49968610683E+02 -0.44055199874E+03  0.44339261259E+03  0.00000000000E+00 0.  1.
</event>
<event>
12    1  0.1594900E-001  0.2148581E+03  0.7818608E-02  0.1138168E+00
         21   -1    0    0  503  502  0.00000000000E+00  0.00000000000E+00  0.21879141849E+03  0.21879141849E+03  0.00000000000E+00 0. -1.
         21   -1    0    0  501  503 -0.00000000000E+00 -0.00000000000E+00 -0.35649412331E+03  0.35649412331E+03  0.00000000000E+00 0. -1.
          6    2    1    2  501    0  0.78479145274E+02  0.10239312485E+03 -0.25367266075E+03  0.33112770511E+03  0.16927022779E+03 0.  0.
         24    2    3    3    0    0  0.39721368989E+02  0.11405684174E+03 -0.25165232127E+03  0.29033090026E+03  0.79852304579E+02 0.  0.
         -6    2    1    2    0  502 -0.78479145274E+02 -0.10239312485E+03  0.11596995593E+03  0.24415783670E+03  0.17181586155E+03 0.  0.
        -24    2    5    5    0    0 -0.64685185421E+02 -0.12454495892E+03  0.13596950154E+03  0.21094565662E+03  0.79465367883E+02 0.  0.
          5    1    3    3  501    0  0.38757776285E+02 -0.11663716881E+02 -0.20203394848E+01  0.40796804846E+02  0.47000000000E+01 0. -1.
        -13    1    4    4    0    0 -0.10901420529E+02  0.77851444319E+02 -0.10625748170E+03  0.13217541666E+03  0.00000000000E+00 0.  1.
         14    1    4    4    0    0  0.50622789517E+02  0.36205397417E+02 -0.14539483956E+03  0.15815548360E+03  0.00000000000E+00 0. -1.
         -5    1    5    5    0  502 -0.13793959853E+02  0.22151834063E+02 -0.19999545609E+02  0.33212180075E+02  0.47000000000E+01 0.  1.
         13    1    6    6    0    0 -0.59379336777E+02 -0.35742241390E+02  0.39724667829E+02  0.79884057795E+02  0.00000000000E+00 0. -1.
        -14    1    6    6    0    0 -0.53058486432E+01 -0.88802717528E+02  0.96244833713E+02  0.13106159883E+03  0.00000000000E+00 0.  1.
</event>
<event>
12    1  0.1594900E-001  0.2809216E+03  0.7818608E-02  0.1095230E+00
         21   -1    0    0  503  502  0.00000000000E+00  0.00000000000E+00  0.18292078610E+03  0.18292078610E+03  0.00000000000E+00 0. -1.
         21   -1    0    0  501  503 -0.00000000000E+00 -0.00000000000E+00 -0.11023686294E+04  0.11023686294E+04  0.00000000000E+00 0.  1.
          6    2    1    2  501    0 -0.40899125949E+02  0.21816325982E+03 -0.96116513107E+03  0.10012871598E+04  0.17166718034E+03 0.  0.
         24    2    3    3    0    0  0.84033170834E+01  0.34992882278E+02 -0.24244689195E+03  0.25794328560E+03  0.80368685590E+02 0.  0.
         -6    2    1    2    0  502  0.40899125949E+02 -0.21816325982E+03  0.41717287720E+02  0.28400225572E+03  0.17218885771E+03 0.  0.
        -24    2    5    5    0    0  0.20089198638E+02 -0.47038337299E+02  0.58031699832E+02  0.11078261993E+03  0.79302771795E+02 0.  0.
          5    1    3    3  501    0 -0.49302443032E+02  0.18317037754E+03 -0.71871823912E+03  0.74334387422E+03  0.47000000000E+01 0. -1.
        -11    1    4    4    0    0 -0.23070952520E+01  0.50012078159E+02 -0.23070852739E+03  0.23607828206E+03  0.00000000000E+00 0.  1.
         12    1    4    4    0    0  0.10710412335E+02 -0.15019195881E+02 -0.11738364557E+02  0.21865003540E+02  0.00000000000E+00 0. -1.
         -5    1    5    5    0  502  0.20809927311E+02 -0.17112492252E+03 -0.16314412113E+02  0.17321963579E+03  0.47000000000E+01 0.  1.
         11    1    6    6    0    0  0.34914346272E+01 -0.42625703792E+02 -0.71626358089E+01  0.43364087575E+02  0.00000000000E+00 0. -1.
        -12    1    6    6    0    0  0.16597764011E+02 -0.44126335074E+01  0.65194335641E+02  0.67418532351E+02  0.00000000000E+00 0.  1.
</event>
<event>
12    1  0.1594900E-001  0.1847059E+03  0.7818608E-02  0.1163334E+00
         21   -1    0    0  501  502  0.00000000000E+00  0.00000000000E+00  0.35449830844E+02  0.35449830844E+02  0.00000000000E+00 0. -1.
         21   -1    0    0  502  503 -0.00000000000E+00 -0.00000000000E+00 -0.10367278230E+04  0.10367278230E+04  0.00000000000E+00 0. -1.
         -6    2    1    2    0  503  0.23233451292E+02  0.63061503869E+02 -0.64434443769E+03  0.67028486510E+03  0.17200435888E+03 0.  0.
        -24    2    3    3    0    0 -0.24052587146E+02  0.16670572657E+02 -0.65006302262E+02  0.87152930552E+02  0.50133611768E+02 0.  0.
          6    2    1    2  501    0 -0.23233451292E+02 -0.63061503869E+02 -0.35693355448E+03  0.40189278876E+03  0.17204564747E+03 0.  0.
         24    2    5    5    0    0 -0.12040975326E+02  0.23541604159E+02 -0.11076503985E+03  0.14065267424E+03  0.82553549315E+02 0.  0.
          5    1    5    5  501    0 -0.11192475966E+02 -0.86603108028E+02 -0.24616851463E+03  0.26124011452E+03  0.47000000000E+01 0. -1.
        -13    1    6    6    0    0 -0.10104228772E+00  0.92864363569E+00  0.13627220983E+02  0.13659199840E+02  0.00000000000E+00 0.  1.
         14    1    6    6    0    0 -0.11939933039E+02  0.22612960524E+02 -0.12439226084E+03  0.12699347440E+03  0.00000000000E+00 0. -1.
         -5    1    3    3    0  503  0.47286038438E+02  0.46390931212E+02 -0.57933813543E+03  0.58313193455E+03  0.47000000000E+01 0.  1.
         13    1    4    4    0    0  0.87126435950E+01 -0.11635019221E+02 -0.13196618195E+02  0.19632487424E+02  0.00000000000E+00 0. -1.
        -14    1    4    4    0    0 -0.32765230741E+02  0.28305591878E+02 -0.51809684066E+02  0.67520443127E+02  0.00000000000E+00 0.  1.
</event>
<event>
12    1  0.1594900E-001  0.2078836E+03  0.7818608E-02  0.1143310E+00
         21   -1    0    0  503  502  0.00000000000E+00  0.00000000000E+00  0.66890496503E+03  0.66890496503E+03  0.00000000000E+00 0. -1.
         21   -1    0    0  501  503 -0.00000000000E+00 -0.00000000000E+00 -0.11468021083E+03  0.11468021083E+03  0.00000000000E+00 0.  1.
          6    2    1    2  501    0 -0.38849473769E+02 -0.10998142304E+03  0.18099438826E+02  0.20867005380E+03  0.17207674637E+03 0.  0.
         24    2    3    3    0    0  0.23543733119E+02 -0.11169063874E+03 -0.10686595268E+02  0.13977477498E+03  0.79960479312E+02 0.  0.
         -6    2    1    2    0  502  0.38849473769E+02  0.10998142304E+03  0.53612531537E+03  0.57491512206E+03  0.17173190957E+03 0.  0.
        -24    2    5    5    0    0  0.25599332261E+02  0.56982219582E+02  0.49786945584E+03  0.50805644569E+03  0.79655871031E+02 0.  0.
          5    1    3    3  501    0 -0.62393206888E+02  0.17092156983E+01  0.28786034094E+02  0.68895278814E+02  0.47000000000E+01 0. -1.
        -13    1    4    4    0    0  0.20130739150E+02 -0.12027248904E+03 -0.23290038100E+02  0.12414968447E+03  0.00000000000E+00 0.  1.
         14    1    4    4    0    0  0.34129939682E+01  0.85818503000E+01  0.12603442832E+02  0.15625090515E+02  0.00000000000E+00 0. -1.
         -5    1    5    5    0  502  0.13250141508E+02  0.52999203462E+02  0.38255859534E+02  0.66858676373E+02  0.47000000000E+01 0.  1.
         11    1    6    6    0    0  0.21661360151E+02  0.77176719483E+02  0.37445026555E+03  0.38293401772E+03  0.00000000000E+00 0. -1.
        -12    1    6    6    0    0  0.39379721102E+01 -0.20194499902E+02  0.12341919029E+03  0.12512242797E+03  0.00000000000E+00 0.  1.
</event>
<event>
12    1  0.1594900E-001  0.1913479E+03  0.7818608E-02  0.1159731E+00
         21   -1    0    0  501  502  0.00000000000E+00  0.00000000000E+00  0.79111031748E+02  0.79111031748E+02  0.00000000000E+00 0.  1.
         21   -1    0    0  502  503 -0.00000000000E+00 -0.00000000000E+00 -0.48792942718E+03  0.48792942718E+03  0.00000000000E+00 0. -1.
         -6    2    1    2    0  503 -0.34276434062E+02  0.43729155341E+02 -0.30112714107E+03  0.35677946303E+03  0.18310356958E+03 0.  0.
        -24    2    3    3    0    0  0.98355277009E+01 -0.17220337285E+02 -0.51581518625E+02  0.96096104329E+02  0.78616350604E+02 0.  0.
          6    2    1    2  501    0  0.34276434062E+02 -0.43729155341E+02 -0.10769125436E+03  0.21026099590E+03  0.17182888922E+03 0.  0.
         24    2    5    5    0    0  0.49038829520E+02 -0.74647500129E+02 -0.12317638135E+03  0.17236968394E+03  0.81005129123E+02 0.  0.
          5    1    5    5  501    0 -0.14762395458E+02  0.30918344789E+02  0.15485126985E+02  0.37891311957E+02  0.47000000000E+01 0. -1.
        -13    1    6    6    0    0 -0.31014201831E+01 -0.52520459936E+02 -0.23279012843E+02  0.57531990736E+02  0.00000000000E+00 0.  1.
         14    1    6    6    0    0  0.52140249703E+02 -0.22127040193E+02 -0.99897368506E+02  0.11483769321E+03  0.00000000000E+00 0. -1.
         -5    1    3    3    0  503 -0.44111961763E+02  0.60949492626E+02 -0.24954562244E+03  0.26068335870E+03  0.47000000000E+01 0.  1.
         13    1    4    4    0    0  0.19308155463E+02 -0.46441927157E+02 -0.33875925373E+02  0.60640215908E+02  0.00000000000E+00 0. -1.
        -14    1    4    4    0    0 -0.94726277625E+01  0.29221589872E+02 -0.17705593252E+02  0.35455888422E+02  0.00000000000E+00 0.  1.
</event>
<event>
12    1  0.1594900E-001  0.1767718E+03  0.7818608E-02  0.1172282E+00
         21   -1    0    0  501  502  0.00000000000E+00  0.00000000000E+00  0.36019882306E+02  0.36019882306E+02  0.00000000000E+00 0.  1.
         21   -1    0    0  502  503 -0.00000000000E+00 -0.00000000000E+00 -0.10260135708E+04  0.10260135708E+04  0.00000000000E+00 0.  1.
         -6    2    1    2    0  503  0.71437127652E+01 -0.10051154556E+02 -0.72594282281E+03  0.74715544306E+03  0.17634119136E+03 0.  0.
        -24    2    3    3    0    0  0.50104778130E+02  0.40402696829E+02 -0.32502657364E+03  0.34077240564E+03  0.79628463324E+02 0.  0.
          6    2    1    2  501    0 -0.71437127652E+01  0.10051154556E+02 -0.26405086570E+03  0.31487801006E+03  0.17109425239E+03 0.  0.
         24    2    5    5    0    0 -0.38917498472E+02  0.60440705682E+02 -0.20168647692E+03  0.22850621311E+03  0.79812303972E+02 0.  0.
          5    1    5    5  501    0  0.31773785707E+02 -0.50389551126E+02 -0.62364388781E+02  0.86371796953E+02  0.47000000000E+01 0. -1.
        -11    1    6    6    0    0 -0.73622293582E+01 -0.19821590881E+02 -0.37732395004E+02  0.43253109933E+02  0.00000000000E+00 0.  1.
         12    1    6    6    0    0 -0.31555269114E+02  0.80262296563E+02 -0.16395408192E+03  0.18525310317E+03  0.00000000000E+00 0. -1.
         -5    1    3    3    0  503 -0.42961065365E+02 -0.50453851385E+02 -0.40091624917E+03  0.40638303743E+03  0.47000000000E+01 0.  1.
         11    1    4    4    0    0 -0.37764204151E+01 -0.91792568768E+01 -0.27745985706E+01  0.10306236228E+02  0.00000000000E+00 0. -1.
        -12    1    4    4    0    0  0.53881198545E+02  0.49581953706E+02 -0.32225197507E+03  0.33046616941E+03  0.00000000000E+00 0.  1.
</event>
<event>
12    1  0.1594900E-001  0.2017881E+03  0.7818608E-02  0.1149158E+00
         21   -1    0    0  501  502  0.00000000000E+00  0.00000000000E+00  0.39876225807E+03  0.39876225807E+03  0.00000000000E+00 0.  1.
         21   -1    0    0  502  503 -0.00000000000E+00 -0.00000000000E+00 -0.15771947172E+03  0.15771947172E+03  0.00000000000E+00 0.  1.
         -6    2    1    2    0  503 -0.55770726279E+02 -0.89831341062E+02 -0.48742070500E+02  0.20336176727E+03  0.16673384541E+03 0.  0.
        -24    2    3    3    0    0 -0.47668792126E+02 -0.82301748957E+01  0.23707022286E+02  0.93838469738E+02  0.76834796645E+02 0.  0.
          6    2    1    2  501    0  0.55770726279E+02  0.89831341062E+02  0.28978485686E+03  0.35311996252E+03  0.17186739341E+03 0.  0.
         24    2    5    5    0    0  0.31537689756E+02  0.26320772451E+02  0.26639108555E+03  0.28107698285E+03  0.79703518651E+02 0.  0.
          5    1    5    5  501    0  0.24233036523E+02  0.63510568611E+02  0.23393771303E+02  0.72042979673E+02  0.47000000000E+01 0. -1.
        -13    1    6    6    0    0  0.29129365226E+02 -0.22929927132E+02  0.15302331081E+03  0.15744978606E+03  0.00000000000E+00 0.  1.
         14    1    6    6    0    0  0.24083245296E+01  0.49250699583E+02  0.11336777474E+03  0.12362719679E+03  0.00000000000E+00 0. -1.
         -5    1    3    3    0  503 -0.81019341526E+01 -0.81601166166E+02 -0.72449092787E+02  0.10952329753E+03  0.47000000000E+01 0.  1.
         11    1    4    4    0    0 -0.23086932021E+02  0.34452549691E+02  0.90495425813E+01  0.42448543336E+02  0.00000000000E+00 0. -1.
        -12    1    4    4    0    0 -0.24581860105E+02 -0.42682724587E+02  0.14657479705E+02  0.51389926402E+02  0.00000000000E+00 0.  1.
</event>
<event>
12    1  0.1594900E-001  0.1969371E+03  0.7818608E-02  0.1152956E+00
         21   -1    0    0  503  502  0.00000000000E+00  0.00000000000E+00  0.12024060069E+04  0.12024060069E+04  0.00000000000E+00 0. -1.
         21   -1    0    0  501  503 -0.00000000000E+00 -0.00000000000E+00 -0.32948031646E+02  0.32948031646E+02  0.00000000000E+00 0.  1.
          6    2    1    2  501    0  0.29102010824E+02  0.86460093142E+02  0.69603019289E+03  0.72259864873E+03  0.17137241023E+03 0.  0.
         24    2    3    3    0    0 -0.37208809018E+02  0.66296616137E+02  0.55009801982E+03  0.56097569315E+03  0.79411334926E+02 0.  0.
         -6    2    1    2    0  502 -0.29102010824E+02 -0.86460093142E+02  0.47342778237E+03  0.51275538982E+03  0.17453352094E+03 0.  0.
        -24    2    5    5    0    0 -0.10291424004E+02 -0.52837302580E-01  0.36291462410E+03  0.37113865285E+03  0.77012720117E+02 0.  0.
          5    1    3    3  501    0  0.66310819842E+02  0.20163477005E+02  0.14593217307E+03  0.16162295557E+03  0.47000000000E+01 0. -1.
        -13    1    4    4    0    0 -0.12486577789E+00  0.62749595855E+02  0.44640787546E+03  0.45079653797E+03  0.00000000000E+00 0.  1.
         14    1    4    4    0    0 -0.37083943240E+02  0.35470202823E+01  0.10369014437E+03  0.11017915519E+03  0.00000000000E+00 0. -1.
         -5    1    5    5    0  502 -0.18810586820E+02 -0.86407255840E+02  0.11051315828E+03  0.14161673697E+03  0.47000000000E+01 0.  1.
         13    1    6    6    0    0 -0.31173664436E+02  0.36639265629E+01  0.33295293826E+03  0.33442918654E+03  0.00000000000E+00 0. -1.
        -14    1    6    6    0    0  0.20882240432E+02 -0.37167638655E+01  0.29961685834E+02  0.36709466315E+02  0.00000000000E+00 0.  1.
</event>
<event>
12    1  0.1594900E-001  0.1812352E+03  0.7818608E-02  0.1167268E+00
         21   -1    0    0  501  502  0.00000000000E+00  0.00000000000E+00  0.19204363881E+03  0.19204363881E+03  0.00000000000E+00 0. -1.
         21   -1    0    0  502  503 -0.00000000000E+00 -0.00000000000E+00 -0.74803736494E+03  0.74803736494E+03  0.00000000000E+00 0. -1.
         -6    2    1    2    0  503  0.59594845327E+02 -0.17919872952E+01 -0.69219840276E+03  0.71553114363E+03  0.17114739820E+03 0.  0.
        -24    2    3    3    0    0  0.13358814214E+02 -0.42150707972E+01 -0.64468698838E+03  0.64902500554E+03  0.73592935093E+02 0.  0.
          6    2    1    2  501    0 -0.59594845327E+02  0.17919872952E+01  0.13620467664E+03  0.22454986012E+03  0.16827408872E+03 0.  0.
         24    2    5    5    0    0 -0.41906276730E+02 -0.33122205846E+02  0.14428034590E+02  0.96551708220E+02  0.79125518188E+02 0.  0.
          5    1    5    5  501    0 -0.17688568597E+02  0.34914193141E+02  0.12177664205E+03  0.12799815190E+03  0.47000000000E+01 0. -1.
        -13    1    6    6    0    0 -0.54846440309E+02  0.48756104970E+01  0.11882822991E+02  0.56330321093E+02  0.00000000000E+00 0.  1.
         14    1    6    6    0    0  0.12940163579E+02 -0.37997816343E+02  0.25452115992E+01  0.40221387126E+02  0.00000000000E+00 0. -1.
         -5    1    3    3    0  503  0.46236031113E+02  0.24230835020E+01 -0.47511414384E+02  0.66506138089E+02  0.47000000000E+01 0.  1.
         11    1    4    4    0    0  0.18972491756E+02  0.26251790441E+02 -0.50052357911E+03  0.50157049872E+03  0.00000000000E+00 0. -1.
        -12    1    4    4    0    0 -0.56136775419E+01 -0.30466861238E+02 -0.14416340927E+03  0.14745450682E+03  0.00000000000E+00 0.  1.
</event>
<event>
12    1  0.1594900E-001  0.1758895E+03  0.7818608E-02  0.1173330E+00
         21   -1    0    0  503  502  0.00000000000E+00  0.00000000000E+00  0.38331148363E+03  0.38331148363E+03  0.00000000000E+00 0. -1.
         21   -1    0    0  501  503 -0.00000000000E+00 -0.00000000000E+00 -0.13465492351E+03  0.13465492351E+03  0.00000000000E+00 0. -1.
          6    2    1    2  501    0 -0.36562444348E+02  0.10021358808E+02 -0.42362400452E+02  0.18091897605E+03  0.17175524142E+03 0.  0.
         24    2    3    3    0    0  0.43594903171E+02  0.70590825955E+01 -0.49840010982E+02  0.10022213534E+03  0.74900624081E+02 0.  0.
         -6    2    1    2    0  502  0.36562444348E+02 -0.10021358808E+02  0.29101896057E+03  0.33704743109E+03  0.16574587604E+03 0.  0.
        -24    2    5    5    0    0 -0.10296906512E+02 -0.17462897879E+02  0.27282917925E+03  0.28601672062E+03  0.83419568071E+02 0.  0.
          5    1    3    3  501    0 -0.80157347519E+02  0.29622762121E+01  0.74776105297E+01  0.80696840712E+02  0.47000000000E+01 0. -1.
        -13    1    4    4    0    0  0.72581060685E+01  0.10999144208E+02  0.18505007014E+02  0.22717758727E+02  0.00000000000E+00 0.  1.
         14    1    4    4    0    0  0.36336797102E+02 -0.39400616122E+01 -0.68345017996E+02  0.77504376612E+02  0.00000000000E+00 0. -1.
         -5    1    5    5    0  502  0.46859350861E+02  0.74415390713E+01  0.18189781323E+02  0.51030710473E+02  0.47000000000E+01 0.  1.
         11    1    6    6    0    0  0.16000184556E+02  0.27728953308E+02  0.78516989542E+02  0.84792796889E+02  0.00000000000E+00 0. -1.
        -12    1    6    6    0    0 -0.26297091068E+02 -0.45191851187E+02  0.19431218971E+03  0.20122392373E+03  0.00000000000E+00 0.  1.
</event>
<event>
12    1  0.1594900E-001  0.2065757E+03  0.7818608E-02  0.1144648E+00
         21   -1    0    0  503  502  0.00000000000E+00  0.00000000000E+00  0.22947103408E+03  0.22947103408E+03  0.00000000000E+00 0.  1.
         21   -1    0    0  501  503 -0.00000000000E+00 -0.00000000000E+00 -0.19242202462E+03  0.19242202462E+03  0.00000000000E+00 0. -1.
          6    2    1    2  501    0  0.95498898892E+02  0.60517352445E+02 -0.24472546789E+02  0.20635087268E+03  0.17087828263E+03 0.  0.
         24    2    3    3    0    0 -0.21508676236E+01  0.16944811443E+02 -0.58098515644E+02  0.94159790098E+02  0.72103229365E+02 0.  0.
         -6    2    1    2    0  502 -0.95498898892E+02 -0.60517352445E+02  0.61521556259E+02  0.21554218602E+03  0.17289055044E+03 0.  0.
        -24    2    5    5    0    0 -0.51276800484E+01  0.11257533632E+01  0.70436323917E+02  0.10568594918E+03  0.78617324457E+02 0.  0.
          5    1    3    3  501    0  0.97649766516E+02  0.43572541002E+02  0.33625968855E+02  0.11219108258E+03  0.47000000000E+01 0. -1.
        -13    1    4    4    0    0 -0.13314840537E+02 -0.12330617550E+02  0.88886360517E+01  0.20207349122E+02  0.00000000000E+00 0.  1.
         14    1    4    4    0    0  0.11163972914E+02  0.29275428992E+02 -0.66987151696E+02  0.73952440975E+02  0.00000000000E+00 0. -1.
         -5    1    5    5    0  502 -0.90371218844E+02 -0.61643105808E+02 -0.89147676577E+01  0.10985623683E+03  0.47000000000E+01 0.  1.
         11    1    6    6    0    0 -0.35193208202E+02  0.77699679889E+01  0.92809545002E+01  0.37216534263E+02  0.00000000000E+00 0. -1.
        -12    1    6    6    0    0  0.30065528154E+02 -0.66442146257E+01  0.61155369417E+02  0.68469414921E+02  0.00000000000E+00 0.  1.
</event>
<event>
12    1  0.1594900E-001  0.2018011E+03  0.7818608E-02  0.1148554E+00
         21   -1    0    0  503  502  0.00000000000E+00  0.00000000000E+00  0.91284343222E+03  0.91284343222E+03  0.00000000000E+00 0.  1.
         21   -1    0    0  501  503 -0.00000000000E+00 -0.00000000000E+00 -0.60278483810E+02  0.60278483810E+02  0.00000000000E+00 0.  1.
          6    2    1    2  501    0 -0.10237744090E+02 -0.10361194783E+03  0.17431572733E+03  0.26548806015E+03  0.17104879465E+03 0.  0.
         24    2    3    3    0    0 -0.46673931514E+02 -0.80371919702E+02  0.18287318893E+03  0.22118213718E+03  0.82709329673E+02 0.  0.
         -6    2    1    2    0  502  0.10237744090E+02  0.10361194783E+03  0.67824922108E+03  0.70763385588E+03  0.17286821846E+03 0.  0.
        -24    2    5    5    0    0 -0.58979396123E+02  0.64122403345E+02  0.47200168733E+03  0.48647650963E+03  0.79268845078E+02 0.  0.
          5    1    3    3  501    0  0.36436187425E+02 -0.23240028128E+02 -0.85574616054E+01  0.44305922974E+02  0.47000000000E+01 0. -1.
        -13    1    4    4    0    0 -0.52287486157E+02 -0.95090848669E+02  0.16306567918E+03  0.19587410864E+03  0.00000000000E+00 0.  1.
         14    1    4    4    0    0  0.56135546429E+01  0.14718928967E+02  0.19807509751E+02  0.25308028532E+02  0.00000000000E+00 0. -1.
         -5    1    5    5    0  502  0.69217140212E+02  0.39489544485E+02  0.20624753375E+03  0.22115734625E+03  0.47000000000E+01 0.  1.
         11    1    6    6    0    0 -0.20853333729E+02 -0.17755766548E+02  0.11752534486E+03  0.12067450210E+03  0.00000000000E+00 0. -1.
        -12    1    6    6    0    0 -0.38126062393E+02  0.81878169893E+02  0.35447634248E+03  0.36580200753E+03  0.00000000000E+00 0.  1.
</event>
<event>
12    1  0.1594900E-001  0.3094862E+03  0.7818608E-02  0.1080832E+00
         21   -1    0    0  503  502  0.00000000000E+00  0.00000000000E+00  0.13786822044E+04  0.13786822044E+04  0.00000000000E+00 0.  1.
         21   -1    0    0  501  503 -0.00000000000E+00 -0.00000000000E+00 -0.76688458190E+02  0.76688458190E+02  0.00000000000E+00 0. -1.
          6    2    1    2  501    0 -0.13714963398E+03 -0.21710124661E+03  0.42289782453E+03  0.52404604941E+03  0.17273887382E+03 0.  0.
         24    2    3    3    0    0 -0.51865473041E+02 -0.17394996741E+03  0.35377877990E+03  0.40599964610E+03  0.82022369341E+02 0.  0.
         -6    2    1    2    0  502  0.13714963398E+03  0.21710124661E+03  0.87909592165E+03  0.93132461315E+03  0.16915354627E+03 0.  0.
        -24    2    5    5    0    0  0.85517270291E+02  0.81102888239E+02  0.25268126030E+03  0.28822363164E+03  0.73035337556E+02 0.  0.
          5    1    3    3  501    0 -0.85284160936E+02 -0.43151279202E+02  0.69119044630E+02  0.11804640331E+03  0.47000000000E+01 0. -1.
        -11    1    4    4    0    0 -0.72689834057E+02 -0.15120764603E+03  0.28689328934E+03  0.33234819641E+03  0.00000000000E+00 0.  1.
         12    1    4    4    0    0  0.20824361015E+02 -0.22742321382E+02  0.66885490559E+02  0.73651449686E+02  0.00000000000E+00 0. -1.
         -5    1    5    5    0  502  0.51632363686E+02  0.13599835837E+03  0.62641466135E+03  0.64310098150E+03  0.47000000000E+01 0.  1.
         13    1    6    6    0    0  0.41881080913E+02  0.76382544275E+02  0.11868649506E+03  0.14722364660E+03  0.00000000000E+00 0. -1.
        -14    1    6    6    0    0  0.43636189379E+02  0.47203439636E+01  0.13399476524E+03  0.14099998504E+03  0.00000000000E+00 0.  1.
</event>
<event>
12    1  0.1594900E-001  0.1818254E+03  0.7818608E-02  0.1166048E+00
         21   -1    0    0  503  502  0.00000000000E+00  0.00000000000E+00  0.55855897100E+02  0.55855897100E+02  0.00000000000E+00 0.  1.
         21   -1    0    0  501  503 -0.00000000000E+00 -0.00000000000E+00 -0.74662698262E+03  0.74662698262E+03  0.00000000000E+00 0.  1.
          6    2    1    2  501    0 -0.36989914032E+02  0.46075343951E+02 -0.52805113464E+03  0.55847822193E+03  0.17195561207E+03 0.  0.
         24    2    3    3    0    0 -0.18897107528E+02 -0.36894902948E+02 -0.34623539536E+03  0.35775337402E+03  0.79938683329E+02 0.  0.
         -6    2    1    2    0  502  0.36989914032E+02 -0.46075343951E+02 -0.16271995088E+03  0.24400465778E+03  0.17195726081E+03 0.  0.
        -24    2    5    5    0    0  0.36078056092E+02  0.71249282183E+01 -0.16859443365E+03  0.19026733378E+03  0.80157248660E+02 0.  0.
          5    1    3    3  501    0 -0.18092806504E+02  0.82970246899E+02 -0.18181573928E+03  0.20072484791E+03  0.47000000000E+01 0. -1.
        -11    1    4    4    0    0  0.75270724312E+01  0.15384364440E+02 -0.19210449257E+03  0.19286646042E+03  0.00000000000E+00 0.  1.
         12    1    4    4    0    0 -0.26424179959E+02 -0.52279267387E+02 -0.15413090278E+03  0.16488691360E+03  0.00000000000E+00 0. -1.
         -5    1    5    5    0  502  0.91185794007E+00 -0.53200272169E+02  0.58744827645E+01  0.53737324008E+02  0.47000000000E+01 0.  1.
         13    1    6    6    0    0 -0.28798560171E+01  0.31158028326E+02 -0.11782479330E+03  0.12190897513E+03  0.00000000000E+00 0. -1.
        -14    1    6    6    0    0  0.38957912109E+02 -0.24033100107E+02 -0.50769640342E+02  0.68358358649E+02  0.00000000000E+00 0.  1.
</event>
<event>
12    1  0.1594900E-001  0.2630951E+03  0.7818608E-02  0.1105509E+00
         21   -1    0    0  501  502  0.00000000000E+00  0.00000000000E+00  0.39150791001E+03  0.39150791001E+03  0.00000000000E+00 0. -1.
         21   -1    0    0  502  503 -0.00000000000E+00 -0.00000000000E+00 -0.20778133938E+03  0.20778133938E+03  0.00000000000E+00 0.  1.
         -6    2    1    2    0  503  0.16848426683E+03 -0.10496998640E+03 -0.25395874030E+02  0.26431792363E+03  0.17266548040E+03 0.  0.
        -24    2    3    3    0    0  0.11087882781E+03 -0.11823800045E+03  0.29979658958E+02  0.18318244153E+03  0.79891725038E+02 0.  0.
          6    2    1    2  501    0 -0.16848426683E+03  0.10496998640E+03  0.20912244466E+03  0.33497132576E+03  0.17049324329E+03 0.  0.
         24    2    5    5    0    0 -0.11361851829E+03  0.96630981396E+00  0.14761164233E+03  0.20218320916E+03  0.78605035862E+02 0.  0.
          5    1    5    5  501    0 -0.54865748541E+02  0.10400367658E+03  0.61510802329E+02  0.13278811660E+03  0.47000000000E+01 0. -1.
        -11    1    6    6    0    0 -0.48352575179E+02  0.39432760127E+02  0.67933761956E+02  0.92238333198E+02  0.00000000000E+00 0.  1.
         12    1    6    6    0    0 -0.65265943111E+02 -0.38466450313E+02  0.79677880373E+02  0.10994487596E+03  0.00000000000E+00 0. -1.
         -5    1    3    3    0  503  0.57605439023E+02  0.13268014049E+02 -0.55375532988E+02  0.81135482100E+02  0.47000000000E+01 0.  1.
         13    1    4    4    0    0  0.43152708330E+02  0.13828065255E+01  0.49196317189E+01  0.43454242213E+02  0.00000000000E+00 0. -1.
        -14    1    4    4    0    0  0.67726119478E+02 -0.11962080697E+03  0.25060027239E+02  0.13972819932E+03  0.00000000000E+00 0.  1.
</event>
<event>
12    1  0.1594900E-001  0.2239259E+03  0.7818608E-02  0.1131508E+00
         21   -1    0    0  501  502  0.00000000000E+00  0.00000000000E+00  0.52947577222E+03  0.52947577222E+03  0.00000000000E+00 0.  1.
         21   -1    0    0  502  503 -0.00000000000E+00 -0.00000000000E+00 -0.12971827709E+03  0.12971827709E+03  0.00000000000E+00 0.  1.
         -6    2    1    2    0  503 -0.12923584852E+03  0.57343064489E+02  0.26661888352E+02  0.22550761025E+03  0.17364531206E+03 0.  0.
        -24    2    3    3    0    0 -0.10987853603E+03  0.32038956412E+01  0.72334923555E+02  0.15192859629E+03  0.75936813051E+02 0.  0.
          6    2    1    2  501    0  0.12923584852E+03 -0.57343064489E+02  0.37309560678E+03  0.43368643906E+03  0.16998077550E+03 0.  0.
         24    2    5    5    0    0 -0.39557560823E+01 -0.18945111736E+02  0.16380623467E+03  0.18261167412E+03  0.78357997310E+02 0.  0.
          5    1    5    5  501    0  0.13319160461E+03 -0.38397952753E+02  0.20928937210E+03  0.25107476494E+03  0.47000000000E+01 0. -1.
        -11    1    6    6    0    0  0.62058709761E+01 -0.39519311513E+02  0.15125691765E+03  0.15645748290E+03  0.00000000000E+00 0.  1.
         12    1    6    6    0    0 -0.10161627058E+02  0.20574199777E+02  0.12549317025E+02  0.26154191226E+02  0.00000000000E+00 0. -1.
         -5    1    3    3    0  503 -0.19357312489E+02  0.54139168848E+02 -0.45673035203E+02  0.73579013958E+02  0.47000000000E+01 0.  1.
         13    1    4    4    0    0 -0.32223617454E+02 -0.32149036266E+02  0.40282544953E+02  0.60783266468E+02  0.00000000000E+00 0. -1.
        -14    1    4    4    0    0 -0.77654918580E+02  0.35352931907E+02  0.32052378602E+02  0.91145329821E+02  0.00000000000E+00 0.  1.
</event>
<event>
12    1  0.1594900E-001  0.2502709E+03  0.7818608E-02  0.1113305E+00
         21   -1    0    0  501  502  0.00000000000E+00  0.00000000000E+00  0.72618537902E+03  0.72618537902E+03  0.00000000000E+00 0. -1.
         21   -1    0    0  502  503 -0.00000000000E+00 -0.00000000000E+00 -0.17179009738E+03  0.17179009738E+03  0.00000000000E+00 0.  1.
         -6    2    1    2    0  503 -0.62466484065E+02 -0.16994100807E+03 -0.40012433458E+02  0.25344919918E+03  0.17278163641E+03 0.  0.
        -24    2    3    3    0    0 -0.48771869585E+02 -0.10344436391E+02 -0.73421364440E+01  0.89900899090E+02  0.74448385225E+02 0.  0.
          6    2    1    2  501    0  0.62466484065E+02  0.16994100807E+03  0.59440771509E+03  0.64452627721E+03  0.17120625691E+03 0.  0.
         24    2    5    5    0    0 -0.32755127366E+02  0.31940810509E+02  0.22840174524E+03  0.24191769586E+03  0.65297018301E+02 0.  0.
          5    1    5    5  501    0  0.95221611431E+02  0.13800019756E+03  0.36600596985E+03  0.40260858135E+03  0.47000000000E+01 0. -1.
        -11    1    6    6    0    0 -0.22916112292E+02  0.15596791884E+01  0.18204534197E+02  0.29308460674E+02  0.00000000000E+00 0.  1.
         12    1    6    6    0    0 -0.98390150731E+01  0.30381131321E+02  0.21019721104E+03  0.21260923519E+03  0.00000000000E+00 0. -1.
         -5    1    3    3    0  503 -0.13694614480E+02 -0.15959657168E+03 -0.32670297014E+02  0.16354830009E+03  0.47000000000E+01 0.  1.
         11    1    4    4    0    0 -0.59840986115E+02 -0.16871717670E+02  0.15153238788E+02  0.63993899101E+02  0.00000000000E+00 0. -1.
        -12    1    4    4    0    0  0.11069116530E+02  0.65272812786E+01 -0.22495375232E+02  0.25906999990E+02  0.00000000000E+00 0.  1.
</event>
<event>
12    1  0.1594900E-001  0.2320678E+03  0.7818608E-02  0.1125253E+00
         21   -1    0    0  503  502  0.00000000000E+00  0.00000000000E+00  0.49917454312E+03  0.49917454312E+03  0.00000000000E+00 0.  1.
         21   -1    0    0  501  503 -0.00000000000E+00 -0.00000000000E+00 -0.11046347706E+03  0.11046347706E+03  0.00000000000E+00 0.  1.
          6    2    1    2  501    0  0.11679714648E+03  0.10316984449E+03  0.14653383773E+03  0.27445880928E+03  0.17195895486E+03 0.  0.
         24    2    3    3    0    0  0.44829524562E+02 -0.39743966771E+00  0.20082823698E+02  0.95804198646E+02  0.82251324851E+02 0.  0.
         -6    2    1    2    0  502 -0.11679714648E+03 -0.10316984449E+03  0.24217722833E+03  0.33517921089E+03  0.17149257492E+03 0.  0.
        -24    2    5    5    0    0  0.88021107183E+01 -0.21982835128E+02  0.94664080923E+02  0.12506323683E+03  0.78222776709E+02 0.  0.
          5    1    3    3  501    0  0.71967621917E+02  0.10356728416E+03  0.12645101403E+03  0.17865461064E+03  0.47000000000E+01 0. -1.
        -11    1    4    4    0    0  0.65188524700E+02  0.16222224809E+02  0.17351750552E+02  0.69381464222E+02  0.00000000000E+00 0.  1.
         12    1    4    4    0    0 -0.20359000138E+02 -0.16619664477E+02  0.27310731461E+01  0.26422734425E+02  0.00000000000E+00 0. -1.
         -5    1    5    5    0  502 -0.12559925720E+03 -0.81187009361E+02  0.14751314741E+03  0.21011597406E+03  0.47000000000E+01 0.  1.
         13    1    6    6    0    0  0.89654164376E+01  0.97612374987E+00  0.10087589440E+03  0.10127821868E+03  0.00000000000E+00 0. -1.
        -14    1    6    6    0    0 -0.16330571929E+00 -0.22958958878E+02 -0.62118134744E+01  0.23785018145E+02  0.00000000000E+00 0.  1.
</event>
<event>
12    1  0.1594900E-001  0.3157683E+03  0.7818608E-02  0.1077642E+00
         21   -1    0    0  503  502  0.00000000000E+00  0.00000000000E+00  0.79088134342E+02  0.79088134342E+02  0.00000000000E+00 0. -1.
         21   -1    0    0  501  503 -0.00000000000E+00 -0.00000000000E+00 -0.13764473997E+04  0.13764473997E+04  0.00000000000E+00 0. -1.
          6    2    1    2  501    0  0.24251432093E+03  0.10939906174E+03 -0.86078647811E+03  0.91687676201E+03  0.17008317158E+03 0.  0.
         24    2    3    3    0    0  0.12465445494E+03  0.39530590029E+02 -0.27652254178E+03  0.31674428609E+03  0.82224242045E+02 0.  0.
         -6    2    1    2    0  502 -0.24251432093E+03 -0.10939906174E+03 -0.43657278721E+03  0.53865877199E+03  0.16963526621E+03 0.  0.
        -24    2    5    5    0    0 -0.82868176547E+02  0.93644510271E+01 -0.17328492935E+03  0.20860688292E+03  0.80835247473E+02 0.  0.
          5    1    3    3  501    0  0.11785986600E+03  0.69868471715E+02 -0.58426393633E+03  0.60013247592E+03  0.47000000000E+01 0. -1.
        -13    1    4    4    0    0  0.10701861765E+02  0.38696787047E+02 -0.81970027292E+02  0.91274621594E+02  0.00000000000E+00 0.  1.
         14    1    4    4    0    0  0.11395259317E+03  0.83380298247E+00 -0.19455251448E+03  0.22546966450E+03  0.00000000000E+00 0. -1.
         -5    1    5    5    0  502 -0.15964614438E+03 -0.11876351277E+03 -0.26328785786E+03  0.33005188907E+03  0.47000000000E+01 0.  1.
         13    1    6    6    0    0 -0.52146144694E+02  0.27190768044E+02 -0.41138221183E+02  0.71769851020E+02  0.00000000000E+00 0. -1.
        -14    1    6    6    0    0 -0.30722031853E+02 -0.17826317017E+02 -0.13214670817E+03  0.13683703190E+03  0.00000000000E+00 0.  1.
</event>
<event>
12    1  0.1594900E-001  0.1781636E+03  0.7818608E-02  0.1169766E+00
         21   -1    0    0  501  502  0.00000000000E+00  0.00000000000E+00  0.23374667192E+03  0.23374667192E+03  0.00000000000E+00 0. -1.
         21   -1    0    0  502  503 -0.00000000000E+00 -0.00000000000E+00 -0.59305544725E+03  0.59305544725E+03  0.00000000000E+00 0. -1.
         -6    2    1    2    0  503  0.43155880701E+02 -0.20033965807E+02 -0.54278431132E+03  0.57105707057E+03  0.17096075399E+03 0.  0.
        -24    2    3    3    0    0  0.80680647854E+02 -0.14547213786E+02 -0.23510723111E+03  0.26101596315E+03  0.78313054697E+02 0.  0.
          6    2    1    2  501    0 -0.43155880701E+02  0.20033965807E+02  0.18347553599E+03  0.25574504861E+03  0.17169294615E+03 0.  0.
         24    2    5    5    0    0 -0.47046778460E+02 -0.49438950232E+02  0.13131295955E+03  0.16865515523E+03  0.80894121392E+02 0.  0.
          5    1    5    5  501    0  0.38908977599E+01  0.69472916039E+02  0.52162576440E+02  0.87089893382E+02  0.47000000000E+01 0. -1.
        -11    1    6    6    0    0  0.17053945980E+02  0.21556416761E+01  0.49962823186E+01  0.17901025153E+02  0.00000000000E+00 0.  1.
         12    1    6    6    0    0 -0.64100724440E+02 -0.51594591908E+02  0.12631667723E+03  0.15075413007E+03  0.00000000000E+00 0. -1.
         -5    1    3    3    0  503 -0.37524767153E+02 -0.54867520218E+01 -0.30767708021E+03  0.31004110741E+03  0.47000000000E+01 0.  1.
         13    1    4    4    0    0  0.23765399106E+02  0.28104790622E+01 -0.17431250860E+03  0.17594755935E+03  0.00000000000E+00 0. -1.
        -14    1    4    4    0    0  0.56915248747E+02 -0.17357692848E+02 -0.60794722506E+02  0.85068403803E+02  0.00000000000E+00 0.  1.
</event>
<event>
12    1  0.1594900E-001  0.1995233E+03  0.7818608E-02  0.1150152E+00
         21   -1    0    0  501  502  0.00000000000E+00  0.00000000000E+00  0.32748886765E+03  0.32748886765E+03  0.00000000000E+00 0.  1.
         21   -1    0    0  502  503 -0.00000000000E+00 -0.00000000000E+00 -0.12879719034E+03  0.12879719034E+03  0.00000000000E+00 0.  1.
         -6    2    1    2    0  503  0.80134209214E+02  0.61524117969E+02  0.45146879058E+02  0.20452118607E+03  0.17199990199E+03 0.  0.
        -24    2    3    3    0    0  0.11317324031E+03  0.29565465640E+02  0.62877327998E+02  0.15502985497E+03  0.79989989835E+02 0.  0.
          6    2    1    2  501    0 -0.80134209214E+02 -0.61524117969E+02  0.15354479825E+03  0.25176487193E+03  0.17205475026E+03 0.  0.
         24    2    5    5    0    0 -0.71533172223E+01 -0.88477084769E+02  0.73306798528E+02  0.13990379910E+03  0.79497306964E+02 0.  0.
          5    1    5    5  501    0 -0.72980891991E+02  0.26952966800E+02  0.80237999726E+02  0.11186107283E+03  0.47000000000E+01 0. -1.
        -11    1    6    6    0    0 -0.86849244767E+01 -0.60390761557E+02 -0.39878343965E+00  0.61013367575E+02  0.00000000000E+00 0.  1.
         12    1    6    6    0    0  0.15316072544E+01 -0.28086323212E+02  0.73705581968E+02  0.78890431521E+02  0.00000000000E+00 0. -1.
         -5    1    3    3    0  503 -0.33039031096E+02  0.31958652330E+02 -0.17730448940E+02  0.49491331100E+02  0.47000000000E+01 0.  1.
         11    1    4    4    0    0  0.14102961048E+02 -0.16525793251E+02  0.36735553196E+02  0.42678990399E+02  0.00000000000E+00 0. -1.
        -12    1    4    4    0    0  0.99070279261E+02  0.46091258890E+02  0.26141774803E+02  0.11235086457E+03  0.00000000000E+00 0.  1.
</event>
<event>
12    1  0.1594900E-001  0.2152113E+03  0.7818608E-02  0.1137556E+00
         21   -1    0    0  501  502  0.00000000000E+00  0.00000000000E+00  0.11532794000E+03  0.11532794000E+03  0.00000000000E+00 0.  1.
         21   -1    0    0  502  503 -0.00000000000E+00 -0.00000000000E+00 -0.43000739692E+03  0.43000739692E+03  0.00000000000E+00 0.  1.
         -6    2    1    2    0  503  0.84507246790E+02 -0.97938153113E+02 -0.22813127717E+03  0.31362364745E+03  0.17199580233E+03 0.  0.
        -24    2    3    3    0    0  0.38744896587E+02 -0.63817742845E+02 -0.38122343833E+02  0.11516992528E+03  0.78974219061E+02 0.  0.
          6    2    1    2  501    0 -0.84507246790E+02  0.97938153113E+02 -0.86548179745E+02  0.23171168947E+03  0.17165769143E+03 0.  0.
         24    2    5    5    0    0 -0.37322598062E+02  0.98127917964E+02  0.13655651145E+01  0.13182503560E+03  0.79711420975E+02 0.  0.
          5    1    5    5  501    0 -0.47184648728E+02 -0.18976485051E+00 -0.87913744860E+02  0.99886653871E+02  0.47000000000E+01 0. -1.
        -11    1    6    6    0    0 -0.57549889554E+01  0.66647927394E+02 -0.33887442359E+02  0.74989498421E+02  0.00000000000E+00 0.  1.
         12    1    6    6    0    0 -0.31567609106E+02  0.31479990569E+02  0.35253007473E+02  0.56835537183E+02  0.00000000000E+00 0. -1.
         -5    1    3    3    0  503  0.45762350203E+02 -0.34120410268E+02 -0.19000893334E+03  0.19845372217E+03  0.47000000000E+01 0.  1.
         11    1    4    4    0    0  0.17424695999E+02  0.11897373596E+02  0.95844639164E+01  0.23173896472E+02  0.00000000000E+00 0. -1.
        -12    1    4    4    0    0  0.21320200588E+02 -0.75715116441E+02 -0.47706807749E+02  0.91996028808E+02  0.00000000000E+00 0.  1.
</event>
<event>
12    1  0.1594900E-001  0.2015771E+03  0.7818608E-02  0.1148523E+00
         21   -1    0    0  503  502  0.00000000000E+00  0.00000000000E+00  0.29343379217E+02  0.29343379217E+02  0.00000000000E+00 0. -1.
         21   -1    0    0  501  503 -0.00000000000E+00 -0.00000000000E+00 -0.20008965572E+04  0.20008965572E+04  0.00000000000E+00 0.  1.
          6    2    1    2  501    0 -0.61937907177E+02  0.84770901422E+02 -0.15515820582E+04  0.15646214315E+04  0.17207826897E+03 0.  0.
         24    2    3    3    0    0 -0.22456060005E+02 -0.10889398558E+02 -0.99771511966E+03  0.10011497066E+04  0.79008995177E+02 0.  0.
         -6    2    1    2    0  502  0.61937907177E+02 -0.84770901422E+02 -0.41997111984E+03  0.46561850492E+03  0.17147139866E+03 0.  0.
        -24    2    5    5    0    0  0.52621818687E+02 -0.92648430443E+02 -0.16728577898E+03  0.21259515333E+03  0.76546586501E+02 0.  0.
          5    1    3    3  501    0 -0.39481847172E+02  0.95660299980E+02 -0.55386693852E+03  0.56347172497E+03  0.47000000000E+01 0. -1.
        -11    1    4    4    0    0 -0.33377182685E+02  0.19531550079E+02 -0.27427350352E+03  0.27698641213E+03  0.00000000000E+00 0.  1.
         12    1    4    4    0    0  0.10921122680E+02 -0.30420948637E+02 -0.72344161614E+03  0.72416329443E+03  0.00000000000E+00 0. -1.
         -5    1    5    5    0  502  0.93160884902E+01  0.78775290213E+01 -0.25268534085E+03  0.25302335159E+03  0.47000000000E+01 0.  1.
         13    1    6    6    0    0  0.23563984244E+02 -0.95177738103E+02 -0.10412491904E+03  0.14302468999E+03  0.00000000000E+00 0. -1.
        -14    1    6    6    0    0  0.29057834443E+02  0.25293076600E+01 -0.63160859945E+02  0.69570463336E+02  0.00000000000E+00 0.  1.
</event>
<event>
12    1  0.1594900E-001  0.2163247E+03  0.7818608E-02  0.1136887E+00
         21   -1    0    0  503  502  0.00000000000E+00  0.00000000000E+00  0.36713465469E+03  0.36713465469E+03  0.00000000000E+00 0.  1.
         21   -1    0    0  501  503 -0.00000000000E+00 -0.00000000000E+00 -0.18925133278E+03  0.18925133278E+03  0.00000000000E+00 0. -1.
          6    2    1    2  501    0 -0.12112915961E+03 -0.47574319237E+02  0.24899023823E+03  0.32983712339E+03  0.17280277797E+03 0.  0.
         24    2    3    3    0    0 -0.96228706717E+02 -0.98534985947E+02  0.17585209358E+03  0.23716404041E+03  0.79710198820E+02 0.  0.
         -6    2    1    2    0  502  0.12112915961E+03  0.47574319237E+02 -0.71106916327E+02  0.22654886408E+03  0.17126764174E+03 0.  0.
        -24    2    5    5    0    0  0.12469743195E+03  0.83417744673E+02 -0.84713198682E+02  0.18775834160E+03  0.74625057112E+02 0.  0.
          5    1    3    3  501    0 -0.24900452891E+02  0.50960666709E+02  0.73138144654E+02  0.92673082980E+02  0.47000000000E+01 0. -1.
        -11    1    4    4    0    0 -0.84100033719E+02 -0.76919352092E+02  0.17897458265E+03  0.21218224156E+03  0.00000000000E+00 0.  1.
         12    1    4    4    0    0 -0.12128672998E+02 -0.21615633855E+02 -0.31224890772E+01  0.24981798848E+02  0.00000000000E+00 0. -1.
         -5    1    5    5    0  502 -0.35682723420E+01 -0.35843425436E+02  0.13606282355E+02  0.38790522477E+02  0.47000000000E+01 0.  1.
         13    1    6    6    0    0  0.17507617706E+02 -0.61463488482E+01 -0.34777112122E+02  0.39417531753E+02  0.00000000000E+00 0. -1.
        -14    1    6    6    0    0  0.10718981424E+03  0.89564093522E+02 -0.49936086560E+02  0.14834080985E+03  0.00000000000E+00 0.  1.
</event>
<event>
12    1  0.1594900E-001  0.2009074E+03  0.7818608E-02  0.1150447E+00
         21   -1    0    0  503  502  0.00000000000E+00  0.00000000000E+00  0.18054721240E+03  0.18054721240E+03  0.00000000000E+00 0.  1.
         21   -1    0    0  501  503 -0.00000000000E+00 -0.00000000000E+00 -0.36608729277E+03  0.36608729277E+03  0.00000000000E+00 0.  1.
          6    2    1    2  501    0 -0.79867309742E+01 -0.87411303082E+02 -0.26873034297E+03  0.33552911256E+03  0.18071874382E+03 0.  0.
         24    2    3    3    0    0  0.31236802991E+02 -0.55959924974E+02 -0.26556224952E+03  0.28493463048E+03  0.80976442299E+02 0.  0.
         -6    2    1    2    0  502  0.79867309742E+01  0.87411303082E+02  0.83190262597E+02  0.21110539261E+03  0.17303278077E+03 0.  0.
        -24    2    5    5    0    0  0.29370196294E+02  0.11832633627E+03  0.92080094838E+02  0.17219381357E+03  0.79424399781E+02 0.  0.
          5    1    3    3  501    0 -0.39223533965E+02 -0.31451378108E+02 -0.31680934457E+01  0.50594482087E+02  0.47000000000E+01 0. -1.
        -13    1    4    4    0    0  0.40111733145E+01 -0.52450344450E+02 -0.70564067463E+02  0.88013724845E+02  0.00000000000E+00 0.  1.
         14    1    4    4    0    0  0.27225629676E+02 -0.35095805241E+01 -0.19499818206E+03  0.19692090563E+03  0.00000000000E+00 0. -1.
         -5    1    5    5    0  502 -0.21383465320E+02 -0.30915033191E+02 -0.88898322403E+01  0.38911579042E+02  0.47000000000E+01 0.  1.
         13    1    6    6    0    0  0.29519139038E+02  0.89738551942E+02  0.22704900007E+02  0.97159146552E+02  0.00000000000E+00 0. -1.
        -14    1    6    6    0    0 -0.14894274398E+00  0.28587784330E+02  0.69375194831E+02  0.75034667019E+02  0.00000000000E+00 0.  1.
</event>
<event>
12    1  0.1594900E-001  0.1754800E+03  0.7818608E-02  0.1172357E+00
         21   -1    0    0  503  502  0.00000000000E+00  0.00000000000E+00  0.28207937038E+02  0.28207937038E+02  0.00000000000E+00 0.  1.
         21   -1    0    0  501  503 -0.00000000000E+00 -0.00000000000E+00 -0.14175364278E+04  0.14175364278E+04  0.00000000000E+00 0.  1.
          6    2    1    2  501    0  0.32743636695E+02  0.68262232077E+01 -0.10420193092E+04  0.10566211270E+04  0.17182904942E+03 0.  0.
         24    2    3    3    0    0  0.22917581413E+02 -0.62674846606E+02 -0.66026069381E+03  0.66843472785E+03  0.80046546887E+02 0.  0.
         -6    2    1    2    0  502 -0.32743636695E+02 -0.68262232077E+01 -0.34730918159E+03  0.38912323786E+03  0.17226283278E+03 0.  0.
        -24    2    5    5    0    0 -0.32529643866E+02 -0.70662974739E+02 -0.25112328751E+03  0.27358539619E+03  0.75727338168E+02 0.  0.
          5    1    3    3  501    0  0.98260552812E+01  0.69501069813E+02 -0.38175861540E+03  0.38818639917E+03  0.47000000000E+01 0. -1.
        -11    1    4    4    0    0  0.38585789611E+02  0.89409216254E+00 -0.22793416477E+03  0.23117881830E+03  0.00000000000E+00 0.  1.
         12    1    4    4    0    0 -0.15668208198E+02 -0.63568938768E+02 -0.43232652904E+03  0.43725590955E+03  0.00000000000E+00 0. -1.
         -5    1    5    5    0  502 -0.21399282890E+00  0.63836751531E+02 -0.96185894079E+02  0.11553784167E+03  0.47000000000E+01 0.  1.
         13    1    6    6    0    0 -0.32632708539E+02  0.48657664045E+01 -0.72911812124E+02  0.80029380208E+02  0.00000000000E+00 0. -1.
        -14    1    6    6    0    0  0.10306467324E+00 -0.75528741143E+02 -0.17821147539E+03  0.19355601598E+03  0.00000000000E+00 0.  1.
</event>
<event>
12    1  0.1594900E-001  0.1747226E+03  0.7818608E-02  0.1173044E+00
         21   -1    0    0  501  502  0.00000000000E+00  0.00000000000E+00  0.20837331815E+03  0.20837331815E+03  0.00000000000E+00 0.  1.
         21   -1    0    0  502  503 -0.00000000000E+00 -0.00000000000E+00 -0.14725904288E+03  0.14725904288E+03  0.00000000000E+00 0.  1.
         -6    2    1    2    0  503  0.67920816704E+01 -0.28654429567E+02  0.16941400025E+02  0.17554200582E+03  0.17222304162E+03 0.  0.
        -24    2    3    3    0    0 -0.12367136445E+02  0.32960103586E+02 -0.35914173963E+02  0.92000231625E+02  0.77038303690E+02 0.  0.
          6    2    1    2  501    0 -0.67920816704E+01  0.28654429567E+02  0.44172875245E+02  0.18009035521E+03  0.17208743250E+03 0.  0.
         24    2    5    5    0    0 -0.66240303094E+02  0.33912636121E+02  0.51933562774E+02  0.11972432140E+03  0.78095925308E+02 0.  0.
          5    1    5    5  501    0  0.59448221424E+02 -0.52582065541E+01 -0.77606875295E+01  0.60366033807E+02  0.47000000000E+01 0. -1.
        -13    1    6    6    0    0 -0.11100481956E+02  0.35293827749E+02 -0.84397924063E+01  0.37948716351E+02  0.00000000000E+00 0.  1.
         14    1    6    6    0    0 -0.55139821138E+02 -0.13811916282E+01  0.60373355180E+02  0.81775605050E+02  0.00000000000E+00 0. -1.
         -5    1    3    3    0  503  0.19159218115E+02 -0.61614533153E+02  0.52855573987E+02  0.83541774197E+02  0.47000000000E+01 0.  1.
         13    1    4    4    0    0  0.17169039965E+02  0.10872090280E+02 -0.48855794290E+02  0.52913768682E+02  0.00000000000E+00 0. -1.
        -14    1    4    4    0    0 -0.29536176410E+02  0.22088013305E+02  0.12941620328E+02  0.39086462943E+02  0.00000000000E+00 0.  1.
</event>
<event>
12    1  0.1594900E-001  0.1751950E+03  0.7818608E-02  0.1172653E+00
         21   -1    0    0  503  502  0.00000000000E+00  0.00000000000E+00  0.27754861733E+03  0.27754861733E+03  0.00000000000E+00 0. -1.
         21   -1    0    0  501  503 -0.00000000000E+00 -0.00000000000E+00 -0.25972390366E+03  0.25972390366E+03  0.00000000000E+00 0. -1.
          6    2    1    2  501    0  0.46342187574E+01 -0.35745042684E+02 -0.19484749857E+03  0.26202833202E+03  0.17144712019E+03 0.  0.
         24    2    3    3    0    0 -0.13037819731E+02  0.25751182892E+02 -0.31434686469E+02  0.86472290072E+02  0.75207774021E+02 0.  0.
         -6    2    1    2    0  502 -0.46342187574E+01  0.35745042684E+02  0.21267221223E+03  0.27524418897E+03  0.17096990860E+03 0.  0.
        -24    2    5    5    0    0 -0.25514715673E+02 -0.40541832666E+02  0.80815064574E+02  0.12141285312E+03  0.76911412208E+02 0.  0.
          5    1    3    3  501    0  0.17672038488E+02 -0.61496225576E+02 -0.16341281210E+03  0.17555604195E+03  0.47000000000E+01 0. -1.
        -11    1    4    4    0    0 -0.33082283585E+02 -0.13054967841E+02 -0.64223067140E+01  0.36140222690E+02  0.00000000000E+00 0.  1.
         12    1    4    4    0    0  0.20044463854E+02  0.38806150733E+02 -0.25012379755E+02  0.50332067382E+02  0.00000000000E+00 0. -1.
         -5    1    5    5    0  502  0.20880496916E+02  0.76286875350E+02  0.13185714766E+03  0.15383133586E+03  0.47000000000E+01 0.  1.
         11    1    6    6    0    0 -0.38208178055E+02 -0.19644893788E+01  0.69367097750E+02  0.79218169248E+02  0.00000000000E+00 0. -1.
        -12    1    6    6    0    0  0.12693462381E+02 -0.38577343287E+02  0.11447966824E+02  0.42194683868E+02  0.00000000000E+00 0.  1.
</event>
<event>
12    1  0.1594900E-001  0.1911716E+03  0.7818608E-02  0.1157934E+00
         21   -1    0    0  501  502  0.00000000000E+00  0.00000000000E+00  0.48346377436E+03  0.48346377436E+03  0.00000000000E+00 0. -1.
         21   -1    0    0  502  503 -0.00000000000E+00 -0.00000000000E+00 -0.26931927508E+03  0.26931927508E+03  0.00000000000E+00 0. -1.
         -6    2    1    2    0  503 -0.70723806383E+02  0.40804867471E+02 -0.21272834120E+03  0.28600687364E+03  0.17285742860E+03 0.  0.
        -24    2    3    3    0    0 -0.24559004025E+01  0.66125771555E+02 -0.17081378325E+03  0.20186071901E+03  0.84804199328E+02 0.  0.
          6    2    1    2  501    0  0.70723806383E+02 -0.40804867471E+02  0.42687284048E+03  0.46677617579E+03  0.17027237695E+03 0.  0.
         24    2    5    5    0    0 -0.24058380210E+02 -0.16333422662E+02  0.14575631584E+03  0.16906640953E+03  0.80578910817E+02 0.  0.
          5    1    5    5  501    0  0.94782186593E+02 -0.24471444809E+02  0.28111652463E+03  0.29770976626E+03  0.47000000000E+01 0. -1.
        -11    1    6    6    0    0  0.23479482809E+02 -0.27455090703E+02  0.51366279023E+02  0.62797792471E+02  0.00000000000E+00 0.  1.
         12    1    6    6    0    0 -0.47537863019E+02  0.11121668041E+02  0.94390036820E+02  0.10626861706E+03  0.00000000000E+00 0. -1.
         -5    1    3    3    0  503 -0.68267905981E+02 -0.25320904083E+02 -0.41914557952E+02  0.84146154629E+02  0.47000000000E+01 0.  1.
         11    1    4    4    0    0 -0.28227074767E+02  0.33773394904E+02 -0.14845364701E+03  0.15484151660E+03  0.00000000000E+00 0. -1.
        -12    1    4    4    0    0  0.25771174365E+02  0.32352376650E+02 -0.22360136240E+02  0.47019202415E+02  0.00000000000E+00 0.  1.
</event>
<event>
12    1  0.1594900E-001  0.2003529E+03  0.7818608E-02  0.1149453E+00
         21   -1    0    0  501  502  0.00000000000E+00  0.00000000000E+00  0.11427008013E+03  0.11427008013E+03  0.00000000000E+00 0.  1.
         21   -1    0    0  502  503 -0.00000000000E+00 -0.00000000000E+00 -0.38358891283E+03  0.38358891283E+03  0.00000000000E+00 0. -1.
         -6    2    1    2    0  503  0.33886656245E+02 -0.96179948034E+02 -0.62328965545E+02  0.20982421638E+03  0.17245989086E+03 0.  0.
        -24    2    3    3    0    0 -0.45342498444E+02 -0.79635559752E+02 -0.37926215993E+02  0.12515686776E+03  0.76341857100E+02 0.  0.
          6    2    1    2  501    0 -0.33886656245E+02  0.96179948034E+02 -0.20698986716E+03  0.28803477658E+03  0.17239588028E+03 0.  0.
         24    2    5    5    0    0 -0.28664198939E+02 -0.16935887394E+02 -0.79192059113E+02  0.11722249357E+03  0.79757571367E+02 0.  0.
          5    1    5    5  501    0 -0.52224573063E+01  0.11311583543E+03 -0.12779780804E+03  0.17081228300E+03  0.47000000000E+01 0. -1.
        -11    1    6    6    0    0 -0.10321588409E+02 -0.64168008678E+01  0.15784091541E+02  0.19921045817E+02  0.00000000000E+00 0.  1.
         12    1    6    6    0    0 -0.18342610530E+02 -0.10519086526E+02 -0.94976150654E+02  0.97301447757E+02  0.00000000000E+00 0. -1.
         -5    1    3    3    0  503  0.79229154689E+02 -0.16544388282E+02 -0.24402749552E+02  0.84667348618E+02  0.47000000000E+01 0.  1.
         11    1    4    4    0    0  0.27812741551E+01 -0.26875565599E+02 -0.45941284207E+02  0.53297590065E+02  0.00000000000E+00 0. -1.
        -12    1    4    4    0    0 -0.48123772599E+02 -0.52759994153E+02  0.80150682135E+01  0.71859277694E+02  0.00000000000E+00 0.  1.
</event>
<event>
12    1  0.1594900E-001  0.2391293E+03  0.7818608E-02  0.1120791E+00
         21   -1    0    0  503  502  0.00000000000E+00  0.00000000000E+00  0.53898922911E+03  0.53898922911E+03  0.00000000000E+00 0.  1.
         21   -1    0    0  501  503 -0.00000000000E+00 -0.00000000000E+00 -0.32383274845E+03  0.32383274845E+03  0.00000000000E+00 0. -1.
          6    2    1    2  501    0 -0.59372563835E+02 -0.15537454213E+03 -0.24688054871E+03  0.34370459758E+03  0.17180365358E+03 0.  0.
         24    2    3    3    0    0 -0.63882058952E+02 -0.97437196127E+02 -0.69193291796E+02  0.15669678256E+03  0.78684467263E+02 0.  0.
         -6    2    1    2    0  502  0.59372563835E+02  0.15537454213E+03  0.46203702937E+03  0.51911737998E+03  0.16833979925E+03 0.  0.
        -24    2    5    5    0    0  0.36632788629E+02  0.99120560239E+02  0.14942679457E+03  0.20063840617E+03  0.82222602928E+02 0.  0.
          5    1    3    3  501    0  0.45094951175E+01 -0.57937345999E+02 -0.17768725692E+03  0.18700781502E+03  0.47000000000E+01 0. -1.
        -11    1    4    4    0    0 -0.31305314862E+01 -0.32723384067E+02  0.13355641758E+02  0.35482295007E+02  0.00000000000E+00 0.  1.
         12    1    4    4    0    0 -0.60751527466E+02 -0.64713812060E+02 -0.82548933553E+02  0.12121448755E+03  0.00000000000E+00 0. -1.
         -5    1    5    5    0  502  0.22739775206E+02  0.56253981887E+02  0.31261023480E+03  0.31847897381E+03  0.47000000000E+01 0.  1.
         11    1    6    6    0    0 -0.14326624465E+01 -0.14073295409E+02  0.11798718426E+02  0.18420638476E+02  0.00000000000E+00 0. -1.
        -12    1    6    6    0    0  0.38065451075E+02  0.11319385565E+03  0.13762807614E+03  0.18221776770E+03  0.00000000000E+00 0.  1.
</event>
<event>
12    1  0.1594900E-001  0.2069674E+03  0.7818608E-02  0.1144359E+00
         21   -1    0    0  503  502  0.00000000000E+00  0.00000000000E+00  0.13715289105E+04  0.13715289105E+04  0.00000000000E+00 0. -1.
         21   -1    0    0  501  503 -0.00000000000E+00 -0.00000000000E+00 -0.33551360389E+02  0.33551360389E+02  0.00000000000E+00 0. -1.
          6    2    1    2  501    0 -0.77417404890E+02  0.85103286496E+02  0.47093734181E+03  0.51368011657E+03  0.16985069413E+03 0.  0.
         24    2    3    3    0    0 -0.15454244200E+02  0.68927813525E+02  0.42653926536E+03  0.43561374480E+03  0.53232627458E+02 0.  0.
         -6    2    1    2    0  502  0.77417404890E+02 -0.85103286496E+02  0.86704020825E+03  0.89140015427E+03  0.17204501840E+03 0.  0.
        -24    2    5    5    0    0  0.65789329708E+02  0.56697802481E+01  0.60454630706E+03  0.61337119905E+03  0.79922513294E+02 0.  0.
          5    1    3    3  501    0 -0.61963160691E+02  0.16175472970E+02  0.44398076455E+02  0.78066371771E+02  0.47000000000E+01 0. -1.
        -13    1    4    4    0    0 -0.31523728063E+02  0.20980773519E+02  0.18667853336E+03  0.19048047960E+03  0.00000000000E+00 0.  1.
         14    1    4    4    0    0  0.16069483863E+02  0.47947040007E+02  0.23986073199E+03  0.24513326520E+03  0.00000000000E+00 0. -1.
         -5    1    5    5    0  502  0.11628075183E+02 -0.90773066744E+02  0.26249390119E+03  0.27802895522E+03  0.47000000000E+01 0.  1.
         13    1    6    6    0    0  0.44755636935E+01 -0.31569442226E+02  0.19500073909E+03  0.19759035553E+03  0.00000000000E+00 0. -1.
        -14    1    6    6    0    0  0.61313766014E+02  0.37239222474E+02  0.40954556797E+03  0.41578084352E+03  0.00000000000E+00 0.  1.
</event>
<event>
12    1  0.1594900E-001  0.1913946E+03  0.7818608E-02  0.1158003E+00
         21   -1    0    0  501  502  0.00000000000E+00  0.00000000000E+00  0.10820939310E+03  0.10820939310E+03  0.00000000000E+00 0. -1.
         21   -1    0    0  502  503 -0.00000000000E+00 -0.00000000000E+00 -0.33570928019E+03  0.33570928019E+03  0.00000000000E+00 0. -1.
         -6    2    1    2    0  503 -0.67658938483E+02  0.31174775227E+02 -0.13704454250E+03  0.23539988410E+03  0.17630173067E+03 0.  0.
        -24    2    3    3    0    0 -0.21860017499E+02 -0.28139525995E+02 -0.13423460278E+03  0.16026192262E+03  0.79970381834E+02 0.  0.
          6    2    1    2  501    0  0.67658938483E+02 -0.31174775227E+02 -0.90455344587E+02  0.20851878919E+03  0.17247700576E+03 0.  0.
         24    2    5    5    0    0  0.62907876468E+02 -0.20694612769E+02  0.14041166727E+02  0.10328563248E+03  0.78007048359E+02 0.  0.
          5    1    5    5  501    0  0.47510620155E+01 -0.10480162458E+02 -0.10449651131E+03  0.10523315671E+03  0.47000000000E+01 0. -1.
        -13    1    6    6    0    0 -0.60921047858E-01  0.26610340137E+01 -0.25307352198E+02  0.25446942619E+02  0.00000000000E+00 0.  1.
         14    1    6    6    0    0  0.62968797516E+02 -0.23355646782E+02  0.39348518924E+02  0.77838689858E+02  0.00000000000E+00 0. -1.
         -5    1    3    3    0  503 -0.45798920984E+02  0.59314301222E+02 -0.28099397153E+01  0.75137961470E+02  0.47000000000E+01 0.  1.
         13    1    4    4    0    0 -0.19718022098E+02  0.14356161418E+02 -0.10699532970E+03  0.10974014919E+03  0.00000000000E+00 0. -1.
        -14    1    4    4    0    0 -0.21419954017E+01 -0.42495687413E+02 -0.27239273080E+02  0.50521773434E+02  0.00000000000E+00 0.  1.
</event>
<event>
12    1  0.1594900E-001  0.2134162E+03  0.7818608E-02  0.1139112E+00
         21   -1    0    0  503  502  0.00000000000E+00  0.00000000000E+00  0.16277373070E+03  0.16277373070E+03  0.00000000000E+00 0. -1.
         21   -1    0    0  501  503 -0.00000000000E+00 -0.00000000000E+00 -0.33108687259E+03  0.33108687259E+03  0.00000000000E+00 0. -1.
          6    2    1    2  501    0  0.66540801386E+02 -0.10676432763E+03 -0.18255042213E+03  0.27997003532E+03  0.17097445468E+03 0.  0.
         24    2    3    3    0    0 -0.25068635111E+02 -0.56446094300E+02 -0.53393262440E+02  0.11375368426E+03  0.79211502828E+02 0.  0.
         -6    2    1    2    0  502 -0.66540801386E+02  0.10676432763E+03  0.14237280250E+02  0.21389056797E+03  0.17239540311E+03 0.  0.
        -24    2    5    5    0    0 -0.10692102050E+03  0.43471735591E+02  0.11284870562E+02  0.13860895650E+03  0.75915730241E+02 0.  0.
          5    1    3    3  501    0  0.91609436497E+02 -0.50318233333E+02 -0.12915715969E+03  0.16621635106E+03  0.47000000000E+01 0. -1.
        -13    1    4    4    0    0 -0.30376929658E+02 -0.44070837957E+02 -0.72660586207E+02  0.90247201627E+02  0.00000000000E+00 0.  1.
         14    1    4    4    0    0  0.53082945470E+01 -0.12375256343E+02  0.19267323767E+02  0.23506482631E+02  0.00000000000E+00 0. -1.
         -5    1    5    5    0  502  0.40380219113E+02  0.63292592041E+02  0.29524096879E+01  0.75281611472E+02  0.47000000000E+01 0.  1.
         11    1    6    6    0    0  0.24494415341E+01  0.11468773225E+02 -0.17506548247E+02  0.21071586429E+02  0.00000000000E+00 0. -1.
        -12    1    6    6    0    0 -0.10937046203E+03  0.32002962366E+02  0.28791418809E+02  0.11753737007E+03  0.00000000000E+00 0.  1.
</event>
<event>
12    1  0.1594900E-001  0.2118048E+03  0.7818608E-02  0.1140340E+00
         21   -1    0    0  501  502  0.00000000000E+00  0.00000000000E+00  0.29748754951E+03  0.29748754951E+03  0.00000000000E+00 0.  1.
         21   -1    0    0  502  503 -0.00000000000E+00 -0.00000000000E+00 -0.15091156482E+03  0.15091156482E+03  0.00000000000E+00 0.  1.
         -6    2    1    2    0  503 -0.26160657978E+02 -0.12018932128E+03  0.56587248189E+02  0.21827031019E+03  0.17120151482E+03 0.  0.
        -24    2    3    3    0    0 -0.21091756904E+02 -0.94235662404E+02  0.10401511690E+03  0.16376545813E+03  0.81699194956E+02 0.  0.
          6    2    1    2  501    0  0.26160657978E+02  0.12018932128E+03  0.89988736507E+02  0.23012880414E+03  0.17242807434E+03 0.  0.
         24    2    5    5    0    0  0.68006526156E+02  0.12570456931E+03  0.92892878535E+02  0.18756099135E+03  0.78252873757E+02 0.  0.
          5    1    5    5  501    0 -0.41845868178E+02 -0.55152480283E+01 -0.29041420277E+01  0.42567812785E+02  0.47000000000E+01 0. -1.
        -13    1    6    6    0    0  0.58812811241E+02  0.77494160511E+02  0.98158026139E+02  0.13820018008E+03  0.00000000000E+00 0.  1.
         14    1    6    6    0    0  0.91937149145E+01  0.48210408796E+02 -0.52651476042E+01  0.49360811272E+02  0.00000000000E+00 0. -1.
         -5    1    3    3    0  503 -0.50689010741E+01 -0.25953658874E+02 -0.47427868711E+02  0.54504852055E+02  0.47000000000E+01 0.  1.
         11    1    4    4    0    0  0.21861520360E+02 -0.83987811943E+01  0.17086706142E+01  0.23481591796E+02  0.00000000000E+00 0. -1.
        -12    1    4    4    0    0 -0.42953277264E+02 -0.85836881209E+02  0.10230644629E+03  0.14028386634E+03  0.00000000000E+00 0.  1.
</event>
<event>
12    1  0.1594900E-001  0.2124055E+03  0.7818608E-02  0.1139765E+00
         21   -1    0    0  501  502  0.00000000000E+00  0.00000000000E+00  0.57694652295E+03  0.57694652295E+03  0.00000000000E+00 0.  1.
         21   -1    0    0  502  503 -0.00000000000E+00 -0.00000000000E+00 -0.83168713743E+02  0.83168713743E+02  0.00000000000E+00 0. -1.
         -6    2    1    2    0  503  0.48617989315E+02 -0.11437258607E+03  0.16457753996E+03  0.26833862134E+03  0.17168299774E+03 0.  0.
        -24    2    3    3    0    0  0.16774188891E+02 -0.49926487295E+02  0.82317759157E+01  0.96195032416E+02  0.80073057768E+02 0.  0.
          6    2    1    2  501    0 -0.48617989315E+02  0.11437258607E+03  0.32920026925E+03  0.39177661536E+03  0.17225359716E+03 0.  0.
         24    2    5    5    0    0  0.21341800686E+02  0.13685025848E+02  0.17927277578E+03  0.19804303464E+03  0.80246888056E+02 0.  0.
          5    1    5    5  501    0 -0.69959790001E+02  0.10068756022E+03  0.14992749347E+03  0.19373358072E+03  0.47000000000E+01 0. -1.
        -13    1    6    6    0    0 -0.35993511778E+01  0.44197810844E+02  0.10453084029E+03  0.11354778018E+03  0.00000000000E+00 0.  1.
         14    1    6    6    0    0  0.24941151863E+02 -0.30512784996E+02  0.74741935493E+02  0.84495254456E+02  0.00000000000E+00 0. -1.
         -5    1    3    3    0  503  0.31843800424E+02 -0.64446098775E+02  0.15634576404E+03  0.17214358892E+03  0.47000000000E+01 0.  1.
         13    1    4    4    0    0  0.92301823594E+01  0.18954698734E+02 -0.11674693884E+02  0.24099281063E+02  0.00000000000E+00 0. -1.
        -14    1    4    4    0    0  0.75440065315E+01 -0.68881186029E+02  0.19906469800E+02  0.72095751353E+02  0.00000000000E+00 0.  1.
</event>
<event>
12    1  0.1594900E-001  0.2035266E+03  0.7818608E-02  0.1147090E+00
         21   -1    0    0  501  502  0.00000000000E+00  0.00000000000E+00  0.47797315924E+03  0.47797315924E+03  0.00000000000E+00 0.  1.
         21   -1    0    0  502  503 -0.00000000000E+00 -0.00000000000E+00 -0.15050017948E+03  0.15050017948E+03  0.00000000000E+00 0. -1.
         -6    2    1    2    0  503 -0.82550942099E+02 -0.65843018101E+02 -0.41552489685E+02  0.20772498923E+03  0.17399166842E+03 0.  0.
        -24    2    3    3    0    0  0.21546807557E+01  0.19328086835E+02 -0.61022397845E+01  0.82393549134E+02  0.79832587448E+02 0.  0.
          6    2    1    2  501    0  0.82550942099E+02  0.65843018101E+02  0.36902546945E+03  0.42074834948E+03  0.17233518334E+03 0.  0.
         24    2    5    5    0    0  0.84821148183E+02  0.10263511442E+03  0.23215119238E+03  0.27891933302E+03  0.78569869027E+02 0.  0.
          5    1    5    5  501    0 -0.22702060846E+01 -0.36792096318E+02  0.13687427706E+03  0.14182901646E+03  0.47000000000E+01 0. -1.
        -13    1    6    6    0    0  0.28041134767E+02  0.21026246919E+02  0.13661210010E+03  0.14103642860E+03  0.00000000000E+00 0.  1.
         14    1    6    6    0    0  0.56780013417E+02  0.81608867501E+02  0.95539092283E+02  0.13788290442E+03  0.00000000000E+00 0. -1.
         -5    1    3    3    0  503 -0.84705622854E+02 -0.85171104936E+02 -0.35450249900E+02  0.12533144010E+03  0.47000000000E+01 0.  1.
         11    1    4    4    0    0  0.15884597124E+02 -0.27066871054E+00 -0.38770164574E+02  0.41898918225E+02  0.00000000000E+00 0. -1.
        -12    1    4    4    0    0 -0.13729916368E+02  0.19598755545E+02  0.32667924790E+02  0.40494630909E+02  0.00000000000E+00 0.  1.
</event>
<event>
12    1  0.1594900E-001  0.1763881E+03  0.7818608E-02  0.1171777E+00
         21   -1    0    0  503  502  0.00000000000E+00  0.00000000000E+00  0.49847100960E+03  0.49847100960E+03  0.00000000000E+00 0.  1.
         21   -1    0    0  501  503 -0.00000000000E+00 -0.00000000000E+00 -0.70011330594E+02  0.70011330594E+02  0.00000000000E+00 0.  1.
          6    2    1    2  501    0 -0.10388855320E+01 -0.32000710930E+02  0.11599410479E+03  0.20966832060E+03  0.17170045874E+03 0.  0.
         24    2    3    3    0    0  0.30349284938E+02 -0.78771188030E+02  0.64968081633E+02  0.13352083335E+03  0.80504547377E+02 0.  0.
         -6    2    1    2    0  502  0.10388855320E+01  0.32000710930E+02  0.31246557421E+03  0.35881401960E+03  0.17345789347E+03 0.  0.
        -24    2    5    5    0    0  0.50475061553E+02 -0.13658877150E+02  0.11105583357E+03  0.14640708207E+03  0.79795606065E+02 0.  0.
          5    1    3    3  501    0 -0.31388170470E+02  0.46770477100E+02  0.51026023160E+02  0.76147487241E+02  0.47000000000E+01 0. -1.
        -13    1    4    4    0    0  0.37677339615E+02 -0.35483277086E+02 -0.38414026299E+01  0.51897988856E+02  0.00000000000E+00 0.  1.
         14    1    4    4    0    0 -0.73280546764E+01 -0.43287910945E+02  0.68809484263E+02  0.81622844497E+02  0.00000000000E+00 0. -1.
         -5    1    5    5    0  502 -0.49436176021E+02  0.45659588080E+02  0.20140974064E+03  0.21240693752E+03  0.47000000000E+01 0.  1.
         13    1    6    6    0    0  0.46414989720E+02 -0.38569579725E+02  0.43790768386E+02  0.74562692728E+02  0.00000000000E+00 0. -1.
        -14    1    6    6    0    0  0.40600718324E+01  0.24910702575E+02  0.67265065185E+02  0.71844389345E+02  0.00000000000E+00 0.  1.
</event>
<event>
12    1  0.1594900E-001  0.1862574E+03  0.7818608E-02  0.1162329E+00
         21   -1    0    0  503  502  0.00000000000E+00  0.00000000000E+00  0.72969655114E+03  0.72969655114E+03  0.00000000000E+00 0. -1.
         21   -1    0    0  501  503 -0.00000000000E+00 -0.00000000000E+00 -0.48266190981E+02  0.48266190981E+02  0.00000000000E+00 0. -1.
          6    2    1    2  501    0  0.69126779168E+02 -0.98412982340E+01  0.40412571762E+03  0.44498250298E+03  0.17267446124E+03 0.  0.
         24    2    3    3    0    0  0.56005917135E+02  0.23120054133E+01  0.96436510630E+02  0.13673812281E+03  0.79090489458E+02 0.  0.
         -6    2    1    2    0  502 -0.69126779168E+02  0.98412982340E+01  0.27730464253E+03  0.33298023914E+03  0.17059487723E+03 0.  0.
        -24    2    5    5    0    0 -0.43283595220E+02  0.66163681817E+02  0.23254512055E+03  0.25639312627E+03  0.73546581839E+02 0.  0.
          5    1    3    3  501    0  0.13120862033E+02 -0.12153303647E+02  0.30768920699E+03  0.30824438018E+03  0.47000000000E+01 0. -1.
        -13    1    4    4    0    0  0.15004125429E+02  0.31041629287E+02  0.74473659169E+02  0.82067243396E+02  0.00000000000E+00 0.  1.
         14    1    4    4    0    0  0.41001791706E+02 -0.28729623874E+02  0.21962851461E+02  0.54670879409E+02  0.00000000000E+00 0. -1.
         -5    1    5    5    0  502 -0.25843183948E+02 -0.56322383583E+02  0.44759521980E+02  0.76587112864E+02  0.47000000000E+01 0.  1.
         13    1    6    6    0    0 -0.83850363156E+01  0.67945518103E+02  0.18593838623E+03  0.19814132768E+03  0.00000000000E+00 0. -1.
        -14    1    6    6    0    0 -0.34898558904E+02 -0.17818362857E+01  0.46606734327E+02  0.58251798588E+02  0.00000000000E+00 0.  1.
</event>
<event>
12    1  0.1594900E-001  0.1757827E+03  0.7818608E-02  0.1172772E+00
         21   -1    0    0  501  502  0.00000000000E+00  0.00000000000E+00  0.93216166508E+02  0.93216166508E+02  0.00000000000E+00 0. -1.
         21   -1    0    0  502  503 -0.00000000000E+00 -0.00000000000E+00 -0.53629968881E+03  0.53629968881E+03  0.00000000000E+00 0. -1.
         -6    2    1    2    0  503  0.26203255019E+02  0.19168674166E+02 -0.41768357882E+03  0.45190750612E+03  0.16943073343E+03 0.  0.
        -24    2    3    3    0    0  0.83247875785E+02  0.98689732182E+01 -0.27674949130E+03  0.29950973639E+03  0.78026891518E+02 0.  0.
          6    2    1    2  501    0 -0.26203255019E+02 -0.19168674166E+02 -0.25399943482E+02  0.17760834919E+03  0.17275855965E+03 0.  0.
         24    2    5    5    0    0 -0.80731615803E+02  0.80741904485E+01 -0.52681592766E+01  0.11324302827E+03  0.78825399512E+02 0.  0.
          5    1    5    5  501    0  0.54528360784E+02 -0.27242864615E+02 -0.20131784205E+02  0.64365320923E+02  0.47000000000E+01 0. -1.
        -13    1    6    6    0    0 -0.23007045467E+02 -0.98411245921E+01 -0.37240489303E+02  0.44866757381E+02  0.00000000000E+00 0.  1.
         14    1    6    6    0    0 -0.57724570335E+02  0.17915315041E+02  0.31972330027E+02  0.68376270889E+02  0.00000000000E+00 0. -1.
         -5    1    3    3    0  503 -0.57044620766E+02  0.92997009481E+01 -0.14093408752E+03  0.15239776974E+03  0.47000000000E+01 0.  1.
         11    1    4    4    0    0  0.16474074070E+02 -0.22674703846E+02 -0.15001083243E+03  0.15260664191E+03  0.00000000000E+00 0. -1.
        -12    1    4    4    0    0  0.66773801715E+02  0.32543677065E+02 -0.12673865887E+03  0.14690309447E+03  0.00000000000E+00 0.  1.
</event>
<event>
12    1  0.1594900E-001  0.2275264E+03  0.7818608E-02  0.1128435E+00
         21   -1    0    0  503  502  0.00000000000E+00  0.00000000000E+00  0.31874328668E+03  0.31874328668E+03  0.00000000000E+00 0. -1.
         21   -1    0    0  501  503 -0.00000000000E+00 -0.00000000000E+00 -0.34587442455E+03  0.34587442455E+03  0.00000000000E+00 0.  1.
          6    2    1    2  501    0  0.13068760477E+03 -0.70357289763E+02 -0.25569430883E+03  0.34211283165E+03  0.17214009339E+03 0.  0.
         24    2    3    3    0    0  0.69045063967E+01 -0.38667255110E+02 -0.35797125327E+02  0.87744250552E+02  0.69819699920E+02 0.  0.
         -6    2    1    2    0  502 -0.13068760477E+03  0.70357289763E+02  0.22856317096E+03  0.32250487958E+03  0.17244963314E+03 0.  0.
        -24    2    5    5    0    0 -0.10702698115E+03  0.46608114599E+02  0.24646966634E+03  0.28420891363E+03  0.80001994480E+02 0.  0.
          5    1    3    3  501    0  0.12378309837E+03 -0.31690034653E+02 -0.21989718350E+03  0.25436858110E+03  0.47000000000E+01 0. -1.
        -13    1    4    4    0    0 -0.55896748289E+01 -0.21898286453E+01 -0.47165016372E+02  0.47545542205E+02  0.00000000000E+00 0.  1.
         14    1    4    4    0    0  0.12494181226E+02 -0.36477426465E+02  0.11367891045E+02  0.40198708348E+02  0.00000000000E+00 0. -1.
         -5    1    5    5    0  502 -0.23660623623E+02  0.23749175164E+02 -0.17906495379E+02  0.38295965949E+02  0.47000000000E+01 0.  1.
         11    1    6    6    0    0 -0.10976258554E+03  0.29479589145E+02  0.24026027190E+03  0.26578538262E+03  0.00000000000E+00 0. -1.
        -12    1    6    6    0    0  0.27356043902E+01  0.17128525453E+02  0.62093944382E+01  0.18423531010E+02  0.00000000000E+00 0.  1.
</event>
<event>
12    1  0.1594900E-001  0.2235625E+03  0.7818608E-02  0.1132383E+00
         21   -1    0    0  501  502  0.00000000000E+00  0.00000000000E+00  0.20871629961E+04  0.20871629961E+04  0.00000000000E+00 0.  1.
         21   -1    0    0  502  503 -0.00000000000E+00 -0.00000000000E+00 -0.23548872861E+02  0.23548872861E+02  0.00000000000E+00 0.  1.
         -6    2    1    2    0  503 -0.13259973354E+03  0.84406494861E+01  0.11265573593E+04  0.11473554518E+04  0.17216014330E+03 0.  0.
        -24    2    3    3    0    0 -0.22198093087E+02 -0.37156614663E+02  0.34128642869E+03  0.35303803586E+03  0.79284670665E+02 0.  0.
          6    2    1    2  501    0  0.13259973354E+03 -0.84406494861E+01  0.93705676392E+03  0.96335641721E+03  0.17979508854E+03 0.  0.
         24    2    5    5    0    0  0.87186542610E+02 -0.22842935617E+01  0.88908876205E+03  0.89684868959E+03  0.79069804668E+02 0.  0.
          5    1    5    5  501    0  0.45413190933E+02 -0.61563559244E+01  0.47968001875E+02  0.66507727617E+02  0.47000000000E+01 0. -1.
        -11    1    6    6    0    0  0.54703363303E+02  0.32995300728E+01  0.21234748093E+03  0.21930526102E+03  0.00000000000E+00 0.  1.
         12    1    6    6    0    0  0.32483179307E+02 -0.55838236345E+01  0.67674128112E+03  0.67754342857E+03  0.00000000000E+00 0. -1.
         -5    1    3    3    0  503 -0.11040164046E+03  0.45597264149E+02  0.78527093063E+03  0.79431741590E+03  0.47000000000E+01 0.  1.
         11    1    4    4    0    0  0.29653069733E+02 -0.82645587351E+01  0.12760248729E+03  0.13126310311E+03  0.00000000000E+00 0. -1.
        -12    1    4    4    0    0 -0.51851162820E+02 -0.28892055928E+02  0.21368394140E+03  0.22177493274E+03  0.00000000000E+00 0.  1.
</event>
<event>
12    1  0.1594900E-001  0.2541766E+03  0.7818608E-02  0.1110779E+00
         21   -1    0    0  501  502  0.00000000000E+00  0.00000000000E+00  0.59004323917E+03  0.59004323917E+03  0.00000000000E+00 0.  1.
         21   -1    0    0  502  503 -0.00000000000E+00 -0.00000000000E+00 -0.11249925372E+03  0.11249925372E+03  0.00000000000E+00 0. -1.
         -6    2    1    2    0  503 -0.11208430790E+03 -0.15002337243E+03  0.17888093281E+03  0.31036220276E+03  0.17104503626E+03 0.  0.
        -24    2    3    3    0    0 -0.65626917305E+02 -0.35581043363E+02  0.12266855988E+03  0.17457834255E+03  0.99283025651E+02 0.  0.
          6    2    1    2  501    0  0.11208430790E+03  0.15002337243E+03  0.29866305264E+03  0.39218029014E+03  0.17185999129E+03 0.  0.
         24    2    5    5    0    0  0.35885011567E+02  0.12308995525E+03  0.10935146072E+03  0.18628538841E+03  0.79408014920E+02 0.  0.
          5    1    5    5  501    0  0.76199296335E+02  0.26933417181E+02  0.18931159192E+03  0.20589490173E+03  0.47000000000E+01 0. -1.
        -13    1    6    6    0    0  0.18730967703E+02  0.97504624002E+02  0.11807374019E+03  0.15427057067E+03  0.00000000000E+00 0.  1.
         14    1    6    6    0    0  0.17154043864E+02  0.25585331248E+02 -0.87222794615E+01  0.32014817741E+02  0.00000000000E+00 0. -1.
         -5    1    3    3    0  503 -0.46457390597E+02 -0.11444232907E+03  0.56212372924E+02  0.13578386021E+03  0.47000000000E+01 0.  1.
         13    1    4    4    0    0 -0.81488308540E+02  0.37026021103E+01  0.75088605541E+02  0.11087088154E+03  0.00000000000E+00 0. -1.
        -14    1    4    4    0    0  0.15861391234E+02 -0.39283645473E+02  0.47579954343E+02  0.63707461014E+02  0.00000000000E+00 0.  1.
</event>
<event>
12    1  0.1594900E-001  0.2317532E+03  0.7818608E-02  0.1126281E+00
         21   -1    0    0  503  502  0.00000000000E+00  0.00000000000E+00  0.11860944399E+04  0.11860944399E+04  0.00000000000E+00 0. -1.
         21   -1    0    0  501  503 -0.00000000000E+00 -0.00000000000E+00 -0.74733770213E+02  0.74733770213E+02  0.00000000000E+00 0.  1.
          6    2    1    2  501    0 -0.92695643243E+02 -0.11760864576E+03  0.15002008858E+03  0.27194739985E+03  0.17036750123E+03 0.  0.
         24    2    3    3    0    0 -0.30972401746E+02 -0.12326361308E+03  0.63025861143E+02  0.16502769725E+03  0.84312951011E+02 0.  0.
         -6    2    1    2    0  502  0.92695643243E+02  0.11760864576E+03  0.96134058116E+03  0.98888081031E+03  0.17687642067E+03 0.  0.
        -24    2    5    5    0    0 -0.11276354379E+02  0.50288927072E+02  0.58947698493E+03  0.59690281985E+03  0.78445702351E+02 0.  0.
          5    1    3    3  501    0 -0.61723241497E+02  0.56549673219E+01  0.86994227432E+02  0.10691970259E+03  0.47000000000E+01 0. -1.
        -11    1    4    4    0    0 -0.47553256365E+02 -0.12052023824E+03  0.69489660003E+02  0.14702126670E+03  0.00000000000E+00 0.  1.
         12    1    4    4    0    0  0.16580854619E+02 -0.27433748415E+01 -0.64637988591E+01  0.18006430549E+02  0.00000000000E+00 0. -1.
         -5    1    5    5    0  502  0.10397199762E+03  0.67319718687E+02  0.37186359622E+03  0.39197799047E+03  0.47000000000E+01 0.  1.
         13    1    6    6    0    0  0.33237465615E+02  0.20319800893E+02  0.29696539310E+03  0.29950971291E+03  0.00000000000E+00 0. -1.
        -14    1    6    6    0    0 -0.44513819995E+02  0.29969126179E+02  0.29251159183E+03  0.29739310693E+03  0.00000000000E+00 0.  1.
</event>
<event>
12    1  0.1594900E-001  0.2426669E+03  0.7818608E-02  0.1119415E+00
         21   -1    0    0  503  502  0.00000000000E+00  0.00000000000E+00  0.14817764420E+04  0.14817764420E+04  0.00000000000E+00 0. -1.
         21   -1    0    0  501  503 -0.00000000000E+00 -0.00000000000E+00 -0.38403251873E+02  0.38403251873E+02  0.00000000000E+00 0. -1.
          6    2    1    2  501    0  0.15841345046E+03 -0.25407460010E+02  0.72352686218E+03  0.76313716427E+03  0.18206276633E+03 0.  0.
         24    2    3    3    0    0  0.17391385483E+03 -0.57900969678E+02  0.53761048204E+03  0.57370886356E+03  0.80735856544E+02 0.  0.
         -6    2    1    2    0  502 -0.15841345046E+03  0.25407460010E+02  0.71984632799E+03  0.75704252964E+03  0.17086338245E+03 0.  0.
        -24    2    5    5    0    0 -0.16018786571E+03  0.10147213385E+02  0.43245201645E+03  0.46919950996E+03  0.85850540791E+02 0.  0.
          5    1    3    3  501    0 -0.15500404376E+02  0.32493509669E+02  0.18591638014E+03  0.18942830071E+03  0.47000000000E+01 0. -1.
        -11    1    4    4    0    0 -0.91903863860E+00 -0.92985783404E+01  0.93358979915E+02  0.93825408723E+02  0.00000000000E+00 0.  1.
         12    1    4    4    0    0  0.17483289347E+03 -0.48602391338E+02  0.44425150213E+03  0.47988345484E+03  0.00000000000E+00 0. -1.
         -5    1    5    5    0  502  0.17744152567E+01  0.15260246624E+02  0.28739431154E+03  0.28784301968E+03  0.47000000000E+01 0.  1.
         13    1    6    6    0    0 -0.15162676089E+03  0.33190356246E+02  0.34402971841E+03  0.37742379563E+03  0.00000000000E+00 0. -1.
        -14    1    6    6    0    0 -0.85611048286E+01 -0.23043142861E+02  0.88422298043E+02  0.91775714325E+02  0.00000000000E+00 0.  1.
</event>
<event>
12    1  0.1594900E-001  0.1766764E+03  0.7818608E-02  0.1171413E+00
         21   -1    0    0  501  502  0.00000000000E+00  0.00000000000E+00  0.79826459547E+02  0.79826459547E+02  0.00000000000E+00 0.  1.
         21   -1    0    0  502  503 -0.00000000000E+00 -0.00000000000E+00 -0.70391214792E+03  0.70391214792E+03  0.00000000000E+00 0.  1.
         -6    2    1    2    0  503 -0.93157814552E+01  0.11353568375E+02 -0.57530289690E+03  0.60182054190E+03  0.17606491464E+03 0.  0.
        -24    2    3    3    0    0  0.38126305838E+02  0.49558858939E+02 -0.23187167724E+03  0.25299753734E+03  0.79583814278E+02 0.  0.
          6    2    1    2  501    0  0.93157814552E+01 -0.11353568375E+02 -0.48782791467E+02  0.18191806557E+03  0.17463886892E+03 0.  0.
         24    2    5    5    0    0  0.44767689205E+02  0.42501621559E+02 -0.57126950738E+02  0.11673421603E+03  0.80949705744E+02 0.  0.
          5    1    5    5  501    0 -0.35451907750E+02 -0.53855189934E+02  0.83441592718E+01  0.65183849533E+02  0.47000000000E+01 0. -1.
        -13    1    6    6    0    0  0.22442184533E+02  0.59166791204E+02 -0.61839677329E+02  0.88478847868E+02  0.00000000000E+00 0.  1.
         14    1    6    6    0    0  0.22325504673E+02 -0.16665169644E+02  0.47127265911E+01  0.28255368164E+02  0.00000000000E+00 0. -1.
         -5    1    3    3    0  503 -0.47442087294E+02 -0.38205290565E+02 -0.34343121966E+03  0.34882300456E+03  0.47000000000E+01 0.  1.
         13    1    4    4    0    0  0.51346094287E+02  0.17483818891E+02 -0.76365733563E+02  0.93668727888E+02  0.00000000000E+00 0. -1.
        -14    1    4    4    0    0 -0.13219788449E+02  0.32075040049E+02 -0.15550594368E+03  0.15932880945E+03  0.00000000000E+00 0.  1.
</event>
<event>
12    1  0.1594900E-001  0.2137925E+03  0.7818608E-02  0.1140296E+00
         21   -1    0    0  503  502  0.00000000000E+00  0.00000000000E+00  0.30688057834E+03  0.30688057834E+03  0.00000000000E+00 0. -1.
         21   -1    0    0  501  503 -0.00000000000E+00 -0.00000000000E+00 -0.15017445976E+03  0.15017445976E+03  0.00000000000E+00 0. -1.
          6    2    1    2  501    0 -0.10523343268E+03 -0.11200691029E+02  0.30005382477E+02  0.21588781895E+03  0.18576247350E+03 0.  0.
         24    2    3    3    0    0 -0.16171743234E+02  0.13542764009E+02 -0.44773965751E+02  0.96899315242E+02  0.83305687376E+02 0.  0.
         -6    2    1    2    0  502  0.10523343268E+03  0.11200691029E+02  0.12670073611E+03  0.24116721915E+03  0.17580961359E+03 0.  0.
        -24    2    5    5    0    0  0.52470228533E+02  0.68364924886E+02  0.39659384947E+02  0.12433403827E+03  0.80369138486E+02 0.  0.
          5    1    3    3  501    0 -0.89061689442E+02 -0.24743455038E+02  0.74779348228E+02  0.11898850371E+03  0.47000000000E+01 0. -1.
        -13    1    4    4    0    0  0.40340997238E+01  0.31663037859E+02  0.11897317223E+02  0.34064175965E+02  0.00000000000E+00 0.  1.
         14    1    4    4    0    0 -0.20205842958E+02 -0.18120273851E+02 -0.56671282974E+02  0.62835139277E+02  0.00000000000E+00 0. -1.
         -5    1    5    5    0  502  0.52763204143E+02 -0.57164233857E+02  0.87041351160E+02  0.11683318088E+03  0.47000000000E+01 0.  1.
         11    1    6    6    0    0 -0.16804184005E+02  0.34048340642E+02  0.25505956417E+02  0.45740834200E+02  0.00000000000E+00 0. -1.
        -12    1    6    6    0    0  0.69274412538E+02  0.34316584243E+02  0.14153428530E+02  0.78593204069E+02  0.00000000000E+00 0.  1.
</event>
<event>
12    1  0.1594900E-001  0.2015634E+03  0.7818608E-02  0.1148572E+00
         21   -1    0    0  503  502  0.00000000000E+00  0.00000000000E+00  0.36045926645E+03  0.36045926645E+03  0.00000000000E+00 0.  1.
         21   -1    0    0  501  503 -0.00000000000E+00 -0.00000000000E+00 -0.12005421276E+03  0.12005421276E+03  0.00000000000E+00 0.  1.
          6    2    1    2  501    0  0.89975744804E+02  0.49699982028E+02  0.18136499959E+03  0.27114767447E+03  0.17338418448E+03 0.  0.
         24    2    3    3    0    0  0.11379207756E+03 -0.35689505152E+01  0.14851405588E+03  0.20402039698E+03  0.81280522060E+02 0.  0.
         -6    2    1    2    0  502 -0.89975744804E+02 -0.49699982028E+02  0.59040054091E+02  0.20936580474E+03  0.17257632903E+03 0.  0.
        -24    2    5    5    0    0  0.19686317647E+00 -0.13719136916E+02 -0.20804911328E+02  0.83576182958E+02  0.79773934023E+02 0.  0.
          5    1    3    3  501    0 -0.23816332759E+02  0.53268932543E+02  0.32850943713E+02  0.67127277490E+02  0.47000000000E+01 0. -1.
        -13    1    4    4    0    0  0.16891044649E+02  0.27500764636E+02  0.13575292878E+02  0.35012683725E+02  0.00000000000E+00 0.  1.
         14    1    4    4    0    0  0.96901032914E+02 -0.31069715151E+02  0.13493876300E+03  0.16900771326E+03  0.00000000000E+00 0. -1.
         -5    1    5    5    0  502 -0.90172607980E+02 -0.35980845113E+02  0.79844965419E+02  0.12578962178E+03  0.47000000000E+01 0.  1.
         11    1    6    6    0    0  0.21687497999E+02  0.43168843968E+01  0.22776346814E+02  0.31745000151E+02  0.00000000000E+00 0. -1.
        -12    1    6    6    0    0 -0.21490634823E+02 -0.18036021313E+02 -0.43581258143E+02  0.51831182807E+02  0.00000000000E+00 0.  1.
</event>
<event>
12    1  0.1594900E-001  0.2660649E+03  0.7818608E-02  0.1103576E+00
         21   -1    0    0  503  502  0.00000000000E+00  0.00000000000E+00  0.52927080290E+03  0.52927080290E+03  0.00000000000E+00 0. -1.
         21   -1    0    0  501  503 -0.00000000000E+00 -0.00000000000E+00 -0.19055982647E+03  0.19055982647E+03  0.00000000000E+00 0.  1.
          6    2    1    2  501    0 -0.18007332443E+03  0.94137785634E+02 -0.27329396526E+02  0.26730871453E+03  0.17151888553E+03 0.  0.
         24    2    3    3    0    0 -0.10210963551E+03 -0.14830415884E+02 -0.27844265989E+02  0.13323872974E+03  0.79567185786E+02 0.  0.
         -6    2    1    2    0  502  0.18007332443E+03 -0.94137785634E+02  0.36604037296E+03  0.45252191484E+03  0.17176205612E+03 0.  0.
        -24    2    5    5    0    0  0.13288300875E+03 -0.30046733347E+02  0.32722156228E+03  0.36384509183E+03  0.82149862025E+02 0.  0.
          5    1    3    3  501    0 -0.77963688918E+02  0.10896820152E+03  0.51486946335E+00  0.13406998479E+03  0.47000000000E+01 0. -1.
        -11    1    4    4    0    0 -0.61031239262E+02 -0.14684401074E+02 -0.55441397595E+02  0.83750775328E+02  0.00000000000E+00 0.  1.
         12    1    4    4    0    0 -0.41078396247E+02 -0.14601481019E+00  0.27597131606E+02  0.49487954407E+02  0.00000000000E+00 0. -1.
         -5    1    5    5    0  502  0.47190315676E+02 -0.64091052287E+02  0.38818810683E+02  0.88676823013E+02  0.47000000000E+01 0.  1.
         13    1    6    6    0    0  0.28418735244E+02  0.51772475072E+01  0.16625462418E+03  0.16874545465E+03  0.00000000000E+00 0. -1.
        -14    1    6    6    0    0  0.10446427351E+03 -0.35223980855E+02  0.16096693809E+03  0.19509963718E+03  0.00000000000E+00 0.  1.
</event>
<event>
12    1  0.1594900E-001  0.1764319E+03  0.7818608E-02  0.1171559E+00
         21   -1    0    0  503  502  0.00000000000E+00  0.00000000000E+00  0.41375117338E+03  0.41375117338E+03  0.00000000000E+00 0. -1.
         21   -1    0    0  501  503 -0.00000000000E+00 -0.00000000000E+00 -0.74843623616E+02  0.74843623616E+02  0.00000000000E+00 0. -1.
          6    2    1    2  501    0 -0.32960555793E+02  0.88523180942E+01  0.17625838920E+03  0.24938969597E+03  0.17309950583E+03 0.  0.
         24    2    3    3    0    0 -0.85742506905E+02  0.11389386914E+02  0.14992713323E+03  0.19016304553E+03  0.78754955296E+02 0.  0.
         -6    2    1    2    0  502  0.32960555793E+02 -0.88523180942E+01  0.16264916057E+03  0.23920510103E+03  0.17204525320E+03 0.  0.
        -24    2    5    5    0    0  0.23024393405E+02  0.98251895586E+01  0.18781046483E+03  0.20599730303E+03  0.80842198848E+02 0.  0.
          5    1    3    3  501    0  0.52781951112E+02 -0.25370688196E+01  0.26331255974E+02  0.59226650441E+02  0.47000000000E+01 0. -1.
        -11    1    4    4    0    0  0.70337244720E+01  0.19466738513E+02  0.12583210939E+02  0.24223219972E+02  0.00000000000E+00 0.  1.
         12    1    4    4    0    0 -0.92776231377E+02 -0.80773515990E+01  0.13734392229E+03  0.16593982556E+03  0.00000000000E+00 0. -1.
         -5    1    5    5    0  502  0.99361623878E+01 -0.18677507653E+02 -0.25161304267E+02  0.33207797993E+02  0.47000000000E+01 0.  1.
         11    1    6    6    0    0  0.36047646502E+02 -0.17968163247E+01  0.29188903932E+02  0.46418245120E+02  0.00000000000E+00 0. -1.
        -12    1    6    6    0    0 -0.13023253097E+02  0.11622005883E+02  0.15862156090E+03  0.15957905791E+03  0.00000000000E+00 0.  1.
</event>
<event>
12    1  0.1594900E-001  0.2390126E+03  0.7818608E-02  0.1120513E+00
         21   -1    0    0  501  502  0.00000000000E+00  0.00000000000E+00  0.36856430916E+03  0.36856430916E+03  0.00000000000E+00 0.  1.
         21   -1    0    0  502  503 -0.00000000000E+00 -0.00000000000E+00 -0.15606713266E+03  0.15606713266E+03  0.00000000000E+00 0. -1.
         -6    2    1    2    0  503  0.16429804415E+03  0.25062883870E+02  0.13030851816E+03  0.27222663400E+03  0.17177029689E+03 0.  0.
        -24    2    3    3    0    0  0.16304437819E+03  0.65741135716E+02  0.10592753137E+03  0.22455259108E+03  0.91092579679E+02 0.  0.
          6    2    1    2  501    0 -0.16429804415E+03 -0.25062883870E+02  0.82188658333E+02  0.25240480782E+03  0.17126358630E+03 0.  0.
         24    2    5    5    0    0 -0.48673422878E+02  0.21805081433E+02 -0.10028254287E+02  0.97189769279E+02  0.80627053136E+02 0.  0.
          5    1    5    5  501    0 -0.11562462127E+03 -0.46867965304E+02  0.92216912620E+02  0.15521503854E+03  0.47000000000E+01 0. -1.
        -11    1    6    6    0    0  0.20372520170E+02 -0.53495365845E+01 -0.92171007750E+01  0.22991565115E+02  0.00000000000E+00 0.  1.
         12    1    6    6    0    0 -0.69045943048E+02  0.27154618018E+02 -0.81115351252E+00  0.74198204164E+02  0.00000000000E+00 0. -1.
         -5    1    3    3    0  503  0.12536659547E+01 -0.40678251846E+02  0.24380986789E+02  0.47674042920E+02  0.47000000000E+01 0.  1.
         11    1    4    4    0    0  0.28756164992E+02  0.56482976351E+02  0.34929509722E+02  0.72369291084E+02  0.00000000000E+00 0. -1.
        -12    1    4    4    0    0  0.13428821320E+03  0.92581593653E+01  0.70998021652E+02  0.15218330000E+03  0.00000000000E+00 0.  1.
</event>
<event>
12    1  0.1594900E-001  0.2076069E+03  0.7818608E-02  0.1143658E+00
         21   -1    0    0  501  502  0.00000000000E+00  0.00000000000E+00  0.13714111114E+04  0.13714111114E+04  0.00000000000E+00 0.  1.
         21   -1    0    0  502  503 -0.00000000000E+00 -0.00000000000E+00 -0.31463065799E+02  0.31463065799E+02  0.00000000000E+00 0.  1.
         -6    2    1    2    0  503  0.22672458322E+02 -0.11335415544E+03  0.72045934790E+03  0.74952366734E+03  0.17135008316E+03 0.  0.
        -24    2    3    3    0    0  0.43207673123E+01 -0.13540167262E+03  0.43453887370E+03  0.46212936477E+03  0.79920179276E+02 0.  0.
          6    2    1    2  501    0 -0.22672458322E+02  0.11335415544E+03  0.61948869770E+03  0.65335050986E+03  0.17244546163E+03 0.  0.
         24    2    5    5    0    0 -0.67395055050E+02  0.92247472940E+02  0.30925456423E+03  0.33916440215E+03  0.79639289830E+02 0.  0.
          5    1    5    5  501    0  0.44722596728E+02  0.21106682504E+02  0.31023413347E+03  0.31418610771E+03  0.47000000000E+01 0. -1.
        -13    1    6    6    0    0 -0.13839094315E+02  0.60862777741E+02  0.23097501641E+03  0.23925980952E+03  0.00000000000E+00 0.  1.
         14    1    6    6    0    0 -0.53555960735E+02  0.31384695199E+02  0.78279547813E+02  0.99904592631E+02  0.00000000000E+00 0. -1.
         -5    1    3    3    0  503  0.18351691010E+02  0.22047517173E+02  0.28592047421E+03  0.28739430257E+03  0.47000000000E+01 0.  1.
         13    1    4    4    0    0  0.37934821588E+02 -0.40533423568E+02  0.18179736728E+03  0.19008495960E+03  0.00000000000E+00 0. -1.
        -14    1    4    4    0    0 -0.33614054276E+02 -0.94868249049E+02  0.25274150642E+03  0.27204440518E+03  0.00000000000E+00 0.  1.
</event>
<event>
12    1  0.1594900E-001  0.1817787E+03  0.7818608E-02  0.1166515E+00
         21   -1    0    0  503  502  0.00000000000E+00  0.00000000000E+00  0.10843058075E+03  0.10843058075E+03  0.00000000000E+00 0.  1.
         21   -1    0    0  501  503 -0.00000000000E+00 -0.00000000000E+00 -0.97803436974E+03  0.97803436974E+03  0.00000000000E+00 0.  1.
          6    2    1    2  501    0  0.41199248816E+01  0.58288051479E+02 -0.88585496217E+03  0.90396124030E+03  0.17027166308E+03 0.  0.
         24    2    3    3    0    0 -0.60881662983E+02  0.19344574980E+02 -0.40508194490E+03  0.41723073487E+03  0.76872066233E+02 0.  0.
         -6    2    1    2    0  502 -0.41199248816E+01 -0.58288051479E+02  0.16251173183E+02  0.18250371018E+03  0.17213085974E+03 0.  0.
        -24    2    5    5    0    0 -0.14777904881E+02 -0.80221066951E+02  0.58583793141E+02  0.13342428050E+03  0.87841742654E+02 0.  0.
          5    1    3    3  501    0  0.65001587865E+02  0.38943476499E+02 -0.48077301727E+03  0.48673050543E+03  0.47000000000E+01 0. -1.
        -13    1    4    4    0    0 -0.29914588721E+02  0.13724670043E+02 -0.36396924285E+03  0.36545431852E+03  0.00000000000E+00 0.  1.
         14    1    4    4    0    0 -0.30967074262E+02  0.56199049375E+01 -0.41112702051E+02  0.51776416348E+02  0.00000000000E+00 0. -1.
         -5    1    5    5    0  502  0.10657980000E+02  0.21933015472E+02 -0.42332619958E+02  0.49079429681E+02  0.47000000000E+01 0.  1.
         11    1    6    6    0    0 -0.16915171829E+00 -0.15958571433E+02 -0.23345442605E+02  0.28279220373E+02  0.00000000000E+00 0. -1.
        -12    1    6    6    0    0 -0.14608753163E+02 -0.64262495518E+02  0.81929235746E+02  0.10514506013E+03  0.00000000000E+00 0.  1.
</event>
<event>
12    1  0.1594900E-001  0.1762611E+03  0.7818608E-02  0.1171525E+00
         21   -1    0    0  501  502  0.00000000000E+00  0.00000000000E+00  0.12897941443E+03  0.12897941443E+03  0.00000000000E+00 0.  1.
         21   -1    0    0  502  503 -0.00000000000E+00 -0.00000000000E+00 -0.28485475366E+03  0.28485475366E+03  0.00000000000E+00 0.  1.
         -6    2    1    2    0  503  0.25618147395E+02 -0.29989791092E+02 -0.15947324271E+03  0.23753637490E+03  0.17156962789E+03 0.  0.
        -24    2    3    3    0    0 -0.30330354742E+02  0.58288612134E+01 -0.23083921722E+02  0.85755784493E+02  0.76598179417E+02 0.  0.
          6    2    1    2  501    0 -0.25618147395E+02  0.29989791092E+02  0.35979034760E+01  0.17629779319E+03  0.17179141401E+03 0.  0.
         24    2    5    5    0    0  0.11382157991E+02  0.70422060077E+02 -0.35137882008E+02  0.10901969830E+03  0.74577501972E+02 0.  0.
          5    1    5    5  501    0 -0.37000305386E+02 -0.40432268984E+02  0.38735785485E+02  0.67278094882E+02  0.47000000000E+01 0. -1.
        -11    1    6    6    0    0  0.40813707141E+02  0.58419693412E+02 -0.21541804892E+02  0.74449100914E+02  0.00000000000E+00 0.  1.
         12    1    6    6    0    0 -0.29431549151E+02  0.12002366665E+02 -0.13596077116E+02  0.34570597390E+02  0.00000000000E+00 0. -1.
         -5    1    3    3    0  503  0.55948502136E+02 -0.35818652306E+02 -0.13638932099E+03  0.15178059041E+03  0.47000000000E+01 0.  1.
         13    1    4    4    0    0  0.25002174550E+02 -0.63317526681E+01 -0.48733067921E+01  0.26247836923E+02  0.00000000000E+00 0. -1.
        -14    1    4    4    0    0 -0.55332529291E+02  0.12160613882E+02 -0.18210614930E+02  0.59507947569E+02  0.00000000000E+00 0.  1.
</event>
<event>
12    1  0.1594900E-001  0.3330558E+03  0.7818608E-02  0.1069797E+00
         21   -1    0    0  503  502  0.00000000000E+00  0.00000000000E+00  0.15262886340E+04  0.15262886340E+04  0.00000000000E+00 0.  1.
         21   -1    0    0  501  503 -0.00000000000E+00 -0.00000000000E+00 -0.74349493625E+02  0.74349493625E+02  0.00000000000E+00 0. -1.
          6    2    1    2  501    0 -0.28317929411E+03  0.33067250749E+02  0.60558842385E+03  0.69111313171E+03  0.17209318997E+03 0.  0.
         24    2    3    3    0    0 -0.18789703477E+03  0.88004725606E+02  0.38833088839E+03  0.44755664585E+03  0.80348895232E+02 0.  0.
         -6    2    1    2    0  502  0.28317929411E+03 -0.33067250749E+02  0.84635071656E+03  0.90952499595E+03  0.17216918176E+03 0.  0.
        -24    2    5    5    0    0  0.17131664884E+03 -0.75971396856E+02  0.42275175968E+03  0.46928394445E+03  0.79920728794E+02 0.  0.
          5    1    3    3  501    0 -0.95282259346E+02 -0.54937474857E+02  0.21725753546E+03  0.24355648586E+03  0.47000000000E+01 0. -1.
        -11    1    4    4    0    0  0.73674130818E+00 -0.98313901988E+01  0.14117481982E+02  0.17219242681E+02  0.00000000000E+00 0.  1.
         12    1    4    4    0    0 -0.18863377608E+03  0.97836115805E+02  0.37421340641E+03  0.43033740317E+03  0.00000000000E+00 0. -1.
         -5    1    5    5    0  502  0.11186264527E+03  0.42904146107E+02  0.42359895688E+03  0.44024105150E+03  0.47000000000E+01 0.  1.
         11    1    6    6    0    0  0.44777457689E+02 -0.61666539910E+02  0.14877007769E+03  0.16715357872E+03  0.00000000000E+00 0. -1.
        -12    1    6    6    0    0  0.12653919115E+03 -0.14304856946E+02  0.27398168199E+03  0.30213036573E+03  0.00000000000E+00 0.  1.
</event>
<event>
12    1  0.1594900E-001  0.1752655E+03  0.7818608E-02  0.1177102E+00
         21   -1    0    0  503  502  0.00000000000E+00  0.00000000000E+00  0.28347266209E+03  0.28347266209E+03  0.00000000000E+00 0. -1.
         21   -1    0    0  501  503 -0.00000000000E+00 -0.00000000000E+00 -0.11886547427E+03  0.11886547427E+03  0.00000000000E+00 0. -1.
          6    2    1    2  501    0 -0.31323063698E+02  0.57192414999E+01  0.12992157225E+01  0.17527030096E+03  0.17234890888E+03 0.  0.
         24    2    3    3    0    0  0.80378451310E+01  0.36091630512E+02  0.53363938340E+02  0.10312746694E+03  0.80127097636E+02 0.  0.
         -6    2    1    2    0  502  0.31323063698E+02 -0.57192414999E+01  0.16330797210E+03  0.22706783540E+03  0.15452010898E+03 0.  0.
        -24    2    5    5    0    0 -0.63523383814E+01  0.42197980335E+02  0.11425091370E+03  0.14868300874E+03  0.85043189389E+02 0.  0.
          5    1    3    3  501    0 -0.39360908829E+02 -0.30372389012E+02 -0.52064722618E+02  0.72142834013E+02  0.47000000000E+01 0. -1.
        -13    1    4    4    0    0 -0.18898389268E+02  0.12053018672E+02  0.62067007338E+02  0.65990437003E+02  0.00000000000E+00 0.  1.
         14    1    4    4    0    0  0.26936234399E+02  0.24038611840E+02 -0.87030689973E+01  0.37137029940E+02  0.00000000000E+00 0. -1.
         -5    1    5    5    0  502  0.37675402080E+02 -0.47917221835E+02  0.49057058405E+02  0.78384826654E+02  0.47000000000E+01 0.  1.
         11    1    6    6    0    0 -0.39987776218E+02 -0.95327774032E+00  0.41291339981E+02  0.57488309618E+02  0.00000000000E+00 0. -1.
        -12    1    6    6    0    0  0.33635437837E+02  0.43151258075E+02  0.72959573716E+02  0.91194699127E+02  0.00000000000E+00 0.  1.
</event>
<event>
12    1  0.1594900E-001  0.2055140E+03  0.7818608E-02  0.1145338E+00
         21   -1    0    0  501  502  0.00000000000E+00  0.00000000000E+00  0.10866539615E+03  0.10866539615E+03  0.00000000000E+00 0. -1.
         21   -1    0    0  502  503 -0.00000000000E+00 -0.00000000000E+00 -0.70867770946E+03  0.70867770946E+03  0.00000000000E+00 0. -1.
         -6    2    1    2    0  503 -0.10274279500E+03  0.41973431137E+02 -0.57496059302E+03  0.61030790545E+03  0.17198315351E+03 0.  0.
        -24    2    3    3    0    0 -0.69262434141E+02  0.89460927234E+02 -0.47624652753E+03  0.49566692861E+03  0.77938481121E+02 0.  0.
          6    2    1    2  501    0  0.10274279500E+03 -0.41973431137E+02 -0.25051720284E+02  0.20703520016E+03  0.17296859417E+03 0.  0.
         24    2    5    5    0    0  0.12821914970E+03 -0.40028401683E+02  0.16674735656E+02  0.15788222554E+03  0.81279314960E+02 0.  0.
          5    1    5    5  501    0 -0.25476354702E+02 -0.19450294541E+01 -0.41726455940E+02  0.49152974618E+02  0.47000000000E+01 0. -1.
        -13    1    6    6    0    0  0.39867179968E+02  0.19208966681E+02 -0.15274042286E+02  0.46815305268E+02  0.00000000000E+00 0.  1.
         14    1    6    6    0    0  0.88351969733E+02 -0.59237368365E+02  0.31948777942E+02  0.11106692027E+03  0.00000000000E+00 0. -1.
         -5    1    3    3    0  503 -0.33480360859E+02 -0.47487496097E+02 -0.98714065482E+02  0.11464097685E+03  0.47000000000E+01 0.  1.
         11    1    4    4    0    0  0.36405397277E+01 -0.44487966220E+00 -0.14013439017E+03  0.14018237677E+03  0.00000000000E+00 0. -1.
        -12    1    4    4    0    0 -0.72902973868E+02  0.89905806897E+02 -0.33611213737E+03  0.35548455184E+03  0.00000000000E+00 0.  1.
</event>
<event>
12    1  0.1594900E-001  0.2169839E+03  0.7818608E-02  0.1136538E+00
         21   -1    0    0  501  502  0.00000000000E+00  0.00000000000E+00  0.11055164588E+04  0.11055164588E+04  0.00000000000E+00 0.  1.
         21   -1    0    0  502  503 -0.00000000000E+00 -0.00000000000E+00 -0.87474012602E+02  0.87474012602E+02  0.00000000000E+00 0. -1.
         -6    2    1    2    0  503 -0.67969588703E+01  0.12916833271E+03  0.81001585804E+02  0.23161012270E+03  0.17421634599E+03 0.  0.
        -24    2    3    3    0    0  0.20050030387E+02  0.37023404803E+02  0.99405152176E+02  0.13377234970E+03  0.78999500276E+02 0.  0.
          6    2    1    2  501    0  0.67969588703E+01 -0.12916833271E+03  0.93704086039E+03  0.96138034869E+03  0.17168559634E+03 0.  0.
         24    2    5    5    0    0  0.26072412832E+02 -0.11602651806E+03  0.42431840400E+03  0.44810590192E+03  0.81307242997E+02 0.  0.
          5    1    5    5  501    0 -0.19275453962E+02 -0.13141814647E+02  0.51272245639E+03  0.51327444677E+03  0.47000000000E+01 0. -1.
        -11    1    6    6    0    0  0.24304957551E+02 -0.86650327441E+02  0.39979315690E+03  0.40979699671E+03  0.00000000000E+00 0.  1.
         12    1    6    6    0    0  0.17674552815E+01 -0.29376190619E+02  0.24525247091E+02  0.38308905209E+02  0.00000000000E+00 0. -1.
         -5    1    3    3    0  503 -0.26846989257E+02  0.92144927904E+02 -0.18403566373E+02  0.97837773001E+02  0.47000000000E+01 0.  1.
         13    1    4    4    0    0  0.58814400289E+01 -0.25714500517E+01 -0.12595516105E+02  0.14136856728E+02  0.00000000000E+00 0. -1.
        -14    1    4    4    0    0  0.14168590358E+02  0.39594854855E+02  0.11200066828E+03  0.11963549297E+03  0.00000000000E+00 0.  1.
</event>
<event>
12    1  0.1594900E-001  0.1861012E+03  0.7818608E-02  0.1162250E+00
         21   -1    0    0  503  502  0.00000000000E+00  0.00000000000E+00  0.94114158373E+03  0.94114158373E+03  0.00000000000E+00 0.  1.
         21   -1    0    0  501  503 -0.00000000000E+00 -0.00000000000E+00 -0.40914982255E+02  0.40914982255E+02  0.00000000000E+00 0.  1.
          6    2    1    2  501    0 -0.23646211780E+02  0.65586660756E+02  0.29186132093E+03  0.34614547562E+03  0.17254827219E+03 0.  0.
         24    2    3    3    0    0 -0.37239772397E+02 -0.21666307068E+02  0.95143359943E+02  0.13046536188E+03  0.78183899880E+02 0.  0.
         -6    2    1    2    0  502  0.23646211780E+02 -0.65586660756E+02  0.60836528055E+03  0.63591109037E+03  0.17150465556E+03 0.  0.
        -24    2    5    5    0    0 -0.32084687103E+02 -0.34538490301E+02  0.50638297740E+03  0.51552669714E+03  0.84390290915E+02 0.  0.
          5    1    3    3  501    0  0.13593560616E+02  0.87252967824E+02  0.19671796099E+03  0.21568011373E+03  0.47000000000E+01 0. -1.
        -11    1    4    4    0    0 -0.19381785735E+02  0.23481227387E+02  0.68781329109E+02  0.75218966304E+02  0.00000000000E+00 0.  1.
         12    1    4    4    0    0 -0.17857986662E+02 -0.45147534455E+02  0.26362030833E+02  0.55246395580E+02  0.00000000000E+00 0. -1.
         -5    1    5    5    0  502  0.55730898884E+02 -0.31048170455E+02  0.10198230314E+03  0.12038439323E+03  0.47000000000E+01 0.  1.
         13    1    6    6    0    0 -0.32081271222E+02  0.11162689718E+02  0.82962632772E+02  0.89647153002E+02  0.00000000000E+00 0. -1.
        -14    1    6    6    0    0 -0.34158814830E-02 -0.45701180019E+02  0.42342034463E+03  0.42587954414E+03  0.00000000000E+00 0.  1.
</event>
<event>
12    1  0.1594900E-001  0.1734123E+03  0.7818608E-02  0.1174478E+00
         21   -1    0    0  503  502  0.00000000000E+00  0.00000000000E+00  0.11953881436E+03  0.11953881436E+03  0.00000000000E+00 0.  1.
         21   -1    0    0  501  503 -0.00000000000E+00 -0.00000000000E+00 -0.67824271582E+03  0.67824271582E+03  0.00000000000E+00 0.  1.
          6    2    1    2  501    0 -0.19134306507E+02 -0.51851663756E+01 -0.59620017418E+03  0.62090778881E+03  0.17227543898E+03 0.  0.
         24    2    3    3    0    0  0.46776484166E+02  0.29189093228E+02 -0.27807484739E+03  0.29417910075E+03  0.78585494448E+02 0.  0.
         -6    2    1    2    0  502  0.19134306507E+02  0.51851663756E+01  0.37496272725E+02  0.17687374136E+03  0.17171296480E+03 0.  0.
        -24    2    5    5    0    0  0.44565371125E+02  0.14833430556E+02  0.80192184254E+02  0.12603223361E+03  0.85130690870E+02 0.  0.
          5    1    3    3  501    0 -0.65910790672E+02 -0.34374259604E+02 -0.31812532680E+03  0.32672868806E+03  0.47000000000E+01 0. -1.
        -11    1    4    4    0    0  0.51125784500E+02  0.22691816569E+02 -0.28047667065E+03  0.28599987265E+03  0.00000000000E+00 0.  1.
         12    1    4    4    0    0 -0.43493003342E+01  0.64972766589E+01  0.24018232607E+01  0.81792281026E+01  0.00000000000E+00 0. -1.
         -5    1    5    5    0  502 -0.25431064619E+02 -0.96482641801E+01 -0.42695911529E+02  0.50841507753E+02  0.47000000000E+01 0.  1.
         13    1    6    6    0    0 -0.10022464707E+02  0.30864702607E+02  0.67747156977E+01  0.33150813544E+02  0.00000000000E+00 0. -1.
        -14    1    6    6    0    0  0.54587835832E+02 -0.16031272052E+02  0.73417468556E+02  0.92881420067E+02  0.00000000000E+00 0.  1.
</event>
<event>
12    1  0.1594900E-001  0.1935097E+03  0.7818608E-02  0.1155769E+00
         21   -1    0    0  501  502  0.00000000000E+00  0.00000000000E+00  0.70863404722E+03  0.70863404722E+03  0.00000000000E+00 0. -1.
         21   -1    0    0  502  503 -0.00000000000E+00 -0.00000000000E+00 -0.14557563983E+03  0.14557563983E+03  0.00000000000E+00 0. -1.
         -6    2    1    2    0  503 -0.85573476338E+02  0.73630671655E+01 -0.59820959766E+02  0.20254515333E+03  0.17340402907E+03 0.  0.
        -24    2    3    3    0    0 -0.17565031282E+02  0.54025086788E+02 -0.42270361298E+02  0.11809039514E+03  0.94505648790E+02 0.  0.
          6    2    1    2  501    0  0.85573476338E+02 -0.73630671655E+01  0.62287936715E+03  0.65166453373E+03  0.17120433371E+03 0.  0.
         24    2    5    5    0    0  0.84773917834E+02  0.56195607926E+02  0.37101208486E+03  0.39185775483E+03  0.74551790120E+02 0.  0.
          5    1    5    5  501    0  0.79955850384E+00 -0.63558675092E+02  0.25186728229E+03  0.25980677890E+03  0.47000000000E+01 0. -1.
        -13    1    6    6    0    0  0.71768809610E+02  0.16899601593E+02  0.15164356468E+03  0.16861829461E+03  0.00000000000E+00 0.  1.
         14    1    6    6    0    0  0.13005108224E+02  0.39296006333E+02  0.21936852018E+03  0.22323946022E+03  0.00000000000E+00 0. -1.
         -5    1    3    3    0  503 -0.68008445056E+02 -0.46662019622E+02 -0.17550598468E+02  0.84454758189E+02  0.47000000000E+01 0.  1.
         11    1    4    4    0    0 -0.43530473028E+02 -0.12686699509E+01  0.44363549920E+00  0.43551216033E+02  0.00000000000E+00 0. -1.
        -12    1    4    4    0    0  0.25965441746E+02  0.55293756739E+02 -0.42713996798E+02  0.74539179106E+02  0.00000000000E+00 0.  1.
</event>
<event>
12    1  0.1594900E-001  0.2517353E+03  0.7818608E-02  0.1112276E+00
         21   -1    0    0  501  502  0.00000000000E+00  0.00000000000E+00  0.66196916443E+03  0.66196916443E+03  0.00000000000E+00 0. -1.
         21   -1    0    0  502  503 -0.00000000000E+00 -0.00000000000E+00 -0.18896808883E+03  0.18896808883E+03  0.00000000000E+00 0. -1.
         -6    2    1    2    0  503  0.70217133693E+02  0.16950083752E+03  0.53569995936E+03  0.59189956486E+03  0.17236492868E+03 0.  0.
        -24    2    3    3    0    0  0.25242582292E+02  0.12700583509E+03  0.20449293797E+03  0.25492966038E+03  0.80025620619E+02 0.  0.
          6    2    1    2  501    0 -0.70217133693E+02 -0.16950083752E+03 -0.62698883763E+02  0.25903768840E+03  0.17178007509E+03 0.  0.
         24    2    5    5    0    0 -0.98076414935E+02 -0.78728688282E+02 -0.71711306744E+01  0.14894162129E+03  0.79466923384E+02 0.  0.
          5    1    5    5  501    0  0.27859281242E+02 -0.90772149243E+02 -0.55527753089E+02  0.11009606711E+03  0.47000000000E+01 0. -1.
        -13    1    6    6    0    0 -0.73517096660E+02 -0.42137409824E+02 -0.40277844700E+02  0.93822329867E+02  0.00000000000E+00 0.  1.
         14    1    6    6    0    0 -0.24559318275E+02 -0.36591278458E+02  0.33106714026E+02  0.55119291423E+02  0.00000000000E+00 0. -1.
         -5    1    3    3    0  503  0.44974551401E+02  0.42495002431E+02  0.33120702140E+03  0.33696990448E+03  0.47000000000E+01 0.  1.
         13    1    4    4    0    0  0.42124604622E+02  0.56766041793E+02  0.14512256658E+03  0.16142312457E+03  0.00000000000E+00 0. -1.
        -14    1    4    4    0    0 -0.16882022330E+02  0.70239793300E+02  0.59370371389E+02  0.93506535813E+02  0.00000000000E+00 0.  1.
</event>
<event>
12    1  0.1594900E-001  0.1984502E+03  0.7818608E-02  0.1151522E+00
         21   -1    0    0  503  502  0.00000000000E+00  0.00000000000E+00  0.94979803438E+02  0.94979803438E+02  0.00000000000E+00 0. -1.
         21   -1    0    0  501  503 -0.00000000000E+00 -0.00000000000E+00 -0.41227786406E+03  0.41227786406E+03  0.00000000000E+00 0. -1.
          6    2    1    2  501    0 -0.49811884045E+02 -0.83195898566E+02 -0.17629061314E+03  0.26381239305E+03  0.17063357557E+03 0.  0.
         24    2    3    3    0    0 -0.82627222705E+02 -0.34434630595E+02 -0.16431850368E+03  0.20364654634E+03  0.80363819394E+02 0.  0.
         -6    2    1    2    0  502  0.49811884045E+02  0.83195898566E+02 -0.14100744748E+03  0.24344527445E+03  0.17314652777E+03 0.  0.
        -24    2    5    5    0    0  0.22473555635E+02 -0.23032463303E+02 -0.88017815827E+02  0.12153612743E+03  0.77384360814E+02 0.  0.
          5    1    3    3  501    0  0.32815338660E+02 -0.48761267971E+02 -0.11972109466E+02  0.60165846712E+02  0.47000000000E+01 0. -1.
        -13    1    4    4    0    0  0.76783474372E+01  0.10326590304E+02 -0.26582009407E+01  0.13140073018E+02  0.00000000000E+00 0.  1.
         14    1    4    4    0    0 -0.90305570142E+02 -0.44761220899E+02 -0.16166030274E+03  0.19050647332E+03  0.00000000000E+00 0. -1.
         -5    1    5    5    0  502  0.27338328409E+02  0.10622836187E+03 -0.52989631657E+02  0.12190914703E+03  0.47000000000E+01 0.  1.
         13    1    6    6    0    0  0.43639784956E+02 -0.77194902301E+01 -0.84177393463E+02  0.95130725482E+02  0.00000000000E+00 0. -1.
        -14    1    6    6    0    0 -0.21166229321E+02 -0.15312973073E+02 -0.38404223634E+01  0.26405401946E+02  0.00000000000E+00 0.  1.
</event>
<event>
12    1  0.1594900E-001  0.1840378E+03  0.7818608E-02  0.1164377E+00
         21   -1    0    0  503  502  0.00000000000E+00  0.00000000000E+00  0.13972386376E+04  0.13972386376E+04  0.00000000000E+00 0. -1.
         21   -1    0    0  501  503 -0.00000000000E+00 -0.00000000000E+00 -0.28841335472E+02  0.28841335472E+02  0.00000000000E+00 0. -1.
          6    2    1    2  501    0  0.59758645044E+02 -0.59912201203E+01  0.38937492958E+03  0.42990994177E+03  0.17205444449E+03 0.  0.
         24    2    3    3    0    0  0.28561774774E+02  0.48438790731E+02  0.32587158074E+03  0.34051958373E+03  0.81235511596E+02 0.  0.
         -6    2    1    2    0  502 -0.59758645044E+02  0.59912201203E+01  0.97902237256E+03  0.99617003131E+03  0.17396245268E+03 0.  0.
        -24    2    5    5    0    0 -0.57390755867E+02  0.48847409565E+02  0.37450296192E+03  0.39011057243E+03  0.79082374456E+02 0.  0.
          5    1    3    3  501    0  0.31196870270E+02 -0.54430010851E+02  0.63503348838E+02  0.89390358035E+02  0.47000000000E+01 0. -1.
        -13    1    4    4    0    0  0.27076868315E+02  0.29579153721E+02  0.50435745282E+02  0.64434831689E+02  0.00000000000E+00 0.  1.
         14    1    4    4    0    0  0.14849064584E+01  0.18859637010E+02  0.27543583546E+03  0.27608475205E+03  0.00000000000E+00 0. -1.
         -5    1    5    5    0  502 -0.23678891769E+01 -0.42856189444E+02  0.60451941063E+03  0.60605945889E+03  0.47000000000E+01 0.  1.
         13    1    6    6    0    0 -0.51546423923E+02  0.48179443605E+02  0.37712623639E+03  0.38366976787E+03  0.00000000000E+00 0. -1.
        -14    1    6    6    0    0 -0.58443319446E+01  0.66796595925E+00 -0.26232744656E+01  0.64408045556E+01  0.00000000000E+00 0.  1.
</event>
<event>
12    1  0.1594900E-001  0.1731788E+03  0.7818608E-02  0.1175982E+00
         21   -1    0    0  501  502  0.00000000000E+00  0.00000000000E+00  0.49985301059E+02  0.49985301059E+02  0.00000000000E+00 0.  1.
         21   -1    0    0  502  503 -0.00000000000E+00 -0.00000000000E+00 -0.62356224179E+03  0.62356224179E+03  0.00000000000E+00 0.  1.
         -6    2    1    2    0  503  0.18398622965E+01  0.65061997252E+01 -0.37873441143E+03  0.41645006240E+03  0.17304676925E+03 0.  0.
        -24    2    3    3    0    0 -0.51051079969E+02 -0.14745502624E+01 -0.29120222967E+03  0.31376064236E+03  0.10506481366E+03 0.  0.
          6    2    1    2  501    0 -0.18398622965E+01 -0.65061997252E+01 -0.19484252931E+03  0.25709748045E+03  0.16760008204E+03 0.  0.
         24    2    5    5    0    0  0.34543886354E+02 -0.35753599196E+02 -0.39459641327E+02  0.94785683532E+02  0.70396467022E+02 0.  0.
          5    1    5    5  501    0 -0.36383748651E+02  0.29247399470E+02 -0.15538288798E+03  0.16231179692E+03  0.47000000000E+01 0. -1.
        -13    1    6    6    0    0  0.32419340990E+02 -0.35630650925E+02 -0.58412465612E+02  0.75713757630E+02  0.00000000000E+00 0.  1.
         14    1    6    6    0    0  0.21245453641E+01 -0.12294827101E+00  0.18952824284E+02  0.19071925903E+02  0.00000000000E+00 0. -1.
         -5    1    3    3    0  503  0.52890942266E+02  0.79807499876E+01 -0.87532181758E+02  0.10268942004E+03  0.47000000000E+01 0.  1.
         13    1    4    4    0    0 -0.32116267037E+02 -0.42629746787E+02 -0.70325661380E+02  0.88286174275E+02  0.00000000000E+00 0. -1.
        -14    1    4    4    0    0 -0.18934812932E+02  0.41155196525E+02 -0.22087656829E+03  0.22547446809E+03  0.00000000000E+00 0.  1.
</event>
<event>
12    1  0.1594900E-001  0.2184819E+03  0.7818608E-02  0.1135029E+00
         21   -1    0    0  503  502  0.00000000000E+00  0.00000000000E+00  0.75652896940E+02  0.75652896940E+02  0.00000000000E+00 0.  1.
         21   -1    0    0  501  503 -0.00000000000E+00 -0.00000000000E+00 -0.72026296470E+03  0.72026296470E+03  0.00000000000E+00 0.  1.
          6    2    1    2  501    0  0.71339495547E+02  0.11502280480E+03 -0.46250511556E+03  0.51149267573E+03  0.17144738597E+03 0.  0.
         24    2    3    3    0    0 -0.19498213400E+02  0.39975091456E+02 -0.27341434629E+03  0.28864506486E+03  0.81131870743E+02 0.  0.
         -6    2    1    2    0  502 -0.71339495547E+02 -0.11502280480E+03 -0.18210495220E+03  0.28442318591E+03  0.17150733459E+03 0.  0.
        -24    2    5    5    0    0 -0.10331222750E+03 -0.11410162463E+03 -0.18359295342E+03  0.25205949778E+03  0.78326373481E+02 0.  0.
          5    1    3    3  501    0  0.90837708947E+02  0.75047713343E+02 -0.18909076927E+03  0.22284761087E+03  0.47000000000E+01 0. -1.
        -11    1    4    4    0    0  0.31314808943E+02  0.21025792389E+02 -0.96676677116E+02  0.10377418322E+03  0.00000000000E+00 0.  1.
         12    1    4    4    0    0 -0.50813022343E+02  0.18949299067E+02 -0.17673766917E+03  0.18487088164E+03  0.00000000000E+00 0. -1.
         -5    1    5    5    0  502  0.31972731953E+02 -0.92118016786E+00  0.14880012236E+01  0.32363688126E+02  0.47000000000E+01 0.  1.
         11    1    6    6    0    0 -0.40551429552E+02 -0.32158354445E+02 -0.12035564998E+03  0.13101168147E+03  0.00000000000E+00 0. -1.
        -12    1    6    6    0    0 -0.62760797948E+02 -0.81943270186E+02 -0.63237303440E+02  0.12104781631E+03  0.00000000000E+00 0.  1.
</event>
<event>
12    1  0.1594900E-001  0.2122225E+03  0.7818608E-02  0.1140077E+00
         21   -1    0    0  501  502  0.00000000000E+00  0.00000000000E+00  0.42515753648E+02  0.42515753648E+02  0.00000000000E+00 0. -1.
         21   -1    0    0  502  503 -0.00000000000E+00 -0.00000000000E+00 -0.13652907352E+04  0.13652907352E+04  0.00000000000E+00 0. -1.
         -6    2    1    2    0  503  0.10573335452E+03 -0.60660487662E+02 -0.99976541581E+03  0.10220417287E+04  0.17372153447E+03 0.  0.
        -24    2    3    3    0    0  0.85553907648E+02 -0.63659493433E+02 -0.44320384918E+03  0.46508654957E+03  0.92216291654E+02 0.  0.
          6    2    1    2  501    0 -0.10573335452E+03  0.60660487662E+02 -0.32300956573E+03  0.38576476013E+03  0.17210471692E+03 0.  0.
         24    2    5    5    0    0 -0.37342319071E+02 -0.40266169080E+02 -0.15579023865E+03  0.17876737580E+03  0.68347370295E+02 0.  0.
          5    1    5    5  501    0 -0.68391035454E+02  0.10092665674E+03 -0.16721932708E+03  0.20699738434E+03  0.47000000000E+01 0. -1.
        -11    1    6    6    0    0  0.95364176005E+01 -0.15121583519E+02 -0.45544510289E+01  0.18448538504E+02  0.00000000000E+00 0.  1.
         12    1    6    6    0    0 -0.46878736671E+02 -0.25144585561E+02 -0.15123578762E+03  0.16031883729E+03  0.00000000000E+00 0. -1.
         -5    1    3    3    0  503  0.20179446876E+02  0.29990057714E+01 -0.55656156663E+03  0.55695517913E+03  0.47000000000E+01 0.  1.
         11    1    4    4    0    0  0.68623380675E+02 -0.66540607314E+02 -0.43618159525E+03  0.44653242305E+03  0.00000000000E+00 0. -1.
        -12    1    4    4    0    0  0.16930526973E+02  0.28811138812E+01 -0.70222539273E+01  0.18554126522E+02  0.00000000000E+00 0.  1.
</event>
<event>
12    1  0.1594900E-001  0.1795371E+03  0.7818608E-02  0.1168443E+00
         21   -1    0    0  503  502  0.00000000000E+00  0.00000000000E+00  0.15022449668E+03  0.15022449668E+03  0.00000000000E+00 0.  1.
         21   -1    0    0  501  503 -0.00000000000E+00 -0.00000000000E+00 -0.28352429707E+03  0.28352429707E+03  0.00000000000E+00 0.  1.
          6    2    1    2  501    0  0.37836651294E+02 -0.32209027030E+02 -0.17443710784E+03  0.25032355875E+03  0.17252404433E+03 0.  0.
         24    2    3    3    0    0  0.83866844642E+02  0.10202783951E+02 -0.12187620679E+03  0.16845611266E+03  0.79911874470E+02 0.  0.
         -6    2    1    2    0  502 -0.37836651294E+02  0.32209027030E+02  0.41137307451E+02  0.18342523500E+03  0.17170761534E+03 0.  0.
        -24    2    5    5    0    0 -0.30050377700E+02  0.29346376705E+02  0.92579988330E+02  0.13110640245E+03  0.82786469293E+02 0.  0.
          5    1    3    3  501    0 -0.46030193349E+02 -0.42411810980E+02 -0.52560901056E+02  0.81867446096E+02  0.47000000000E+01 0. -1.
        -13    1    4    4    0    0  0.65271990102E+02 -0.23297630091E+02 -0.10672641318E+03  0.12725462479E+03  0.00000000000E+00 0.  1.
         14    1    4    4    0    0  0.18594854541E+02  0.33500414042E+02 -0.15149793602E+02  0.41201487868E+02  0.00000000000E+00 0. -1.
         -5    1    5    5    0  502 -0.77862735941E+01  0.28626503244E+01 -0.51442680879E+02  0.52318832550E+02  0.47000000000E+01 0.  1.
         11    1    6    6    0    0  0.22388962145E+02 -0.91422238580E+01  0.10469711510E+02  0.26352623059E+02  0.00000000000E+00 0. -1.
        -12    1    6    6    0    0 -0.52439339845E+02  0.38488600563E+02  0.82110276820E+02  0.10475377939E+03  0.00000000000E+00 0.  1.
</event>
<event>
12    1  0.1594900E-001  0.2727713E+03  0.7818608E-02  0.1099773E+00
         21   -1    0    0  503  502  0.00000000000E+00  0.00000000000E+00  0.14750064103E+03  0.14750064103E+03  0.00000000000E+00 0. -1.
         21   -1    0    0  501  503 -0.00000000000E+00 -0.00000000000E+00 -0.54721316009E+03  0.54721316009E+03  0.00000000000E+00 0.  1.
          6    2    1    2  501    0 -0.16089734498E+03  0.13854832901E+03 -0.10187510576E+03  0.29117476551E+03  0.17123262482E+03 0.  0.
         24    2    3    3    0    0 -0.17544069112E+03  0.12547636162E+03 -0.50708845646E+02  0.23619784833E+03  0.81818598746E+02 0.  0.
         -6    2    1    2    0  502  0.16089734498E+03 -0.13854832901E+03 -0.29783741330E+03  0.40353903561E+03  0.17044950399E+03 0.  0.
        -24    2    5    5    0    0  0.18618639940E+03 -0.11536739001E+03 -0.23272003527E+03  0.32978772967E+03  0.81402222491E+02 0.  0.
          5    1    3    3  501    0  0.14543346143E+02  0.13071967389E+02 -0.51166260117E+02  0.54976917182E+02  0.47000000000E+01 0. -1.
        -13    1    4    4    0    0 -0.93085917450E+02  0.55967853192E+02 -0.66385388798E+02  0.12729653752E+03  0.00000000000E+00 0.  1.
         14    1    4    4    0    0 -0.82354773672E+02  0.69508508431E+02  0.15676543152E+02  0.10890131081E+03  0.00000000000E+00 0. -1.
         -5    1    5    5    0  502 -0.25289054426E+02 -0.23180939004E+02 -0.65117378028E+02  0.73751305942E+02  0.47000000000E+01 0.  1.
         11    1    6    6    0    0  0.13581767978E+02 -0.21450266399E+02 -0.24344159267E+00  0.25389714725E+02  0.00000000000E+00 0. -1.
        -12    1    6    6    0    0  0.17260463143E+03 -0.93917123609E+02 -0.23247659367E+03  0.30439801495E+03  0.00000000000E+00 0.  1.
</event>
<event>
12    1  0.1594900E-001  0.2477779E+03  0.7818608E-02  0.1114753E+00
         21   -1    0    0  501  502  0.00000000000E+00  0.00000000000E+00  0.65623230199E+03  0.65623230199E+03  0.00000000000E+00 0. -1.
         21   -1    0    0  502  503 -0.00000000000E+00 -0.00000000000E+00 -0.13304761585E+03  0.13304761585E+03  0.00000000000E+00 0.  1.
         -6    2    1    2    0  503  0.13239813276E+03  0.11995894531E+03  0.46438280424E+02  0.25209203161E+03  0.17168128725E+03 0.  0.
        -24    2    3    3    0    0  0.20544415009E+02  0.86895419713E+00  0.34703271428E+02  0.88221715213E+02  0.78459708882E+02 0.  0.
          6    2    1    2  501    0 -0.13239813276E+03 -0.11995894531E+03  0.47674640571E+03  0.53718788623E+03  0.17136007597E+03 0.  0.
         24    2    5    5    0    0 -0.16224792725E+02 -0.10896462161E+02  0.21142311929E+03  0.22765694030E+03  0.82133856072E+02 0.  0.
          5    1    5    5  501    0 -0.11617334004E+03 -0.10906248315E+03  0.26532328643E+03  0.30953094593E+03  0.47000000000E+01 0. -1.
        -13    1    6    6    0    0  0.10490289590E+02 -0.41876734567E+02  0.98206291037E+02  0.10727619807E+03  0.00000000000E+00 0.  1.
         14    1    6    6    0    0 -0.26715082315E+02  0.30980272405E+02  0.11321682825E+03  0.12038074223E+03  0.00000000000E+00 0. -1.
         -5    1    3    3    0  503  0.11185371776E+03  0.11908999112E+03  0.11735008995E+02  0.16387031640E+03  0.47000000000E+01 0.  1.
         11    1    4    4    0    0 -0.72031908067E+01 -0.32969204539E+01  0.53736145196E+02  0.54316930536E+02  0.00000000000E+00 0. -1.
        -12    1    4    4    0    0  0.27747605816E+02  0.41658746511E+01 -0.19032873768E+02  0.33904784677E+02  0.00000000000E+00 0.  1.
</event>
<event>
12    1  0.1594900E-001  0.1786441E+03  0.7818608E-02  0.1170552E+00
         21   -1    0    0  501  502  0.00000000000E+00  0.00000000000E+00  0.32094818852E+03  0.32094818852E+03  0.00000000000E+00 0. -1.
         21   -1    0    0  502  503 -0.00000000000E+00 -0.00000000000E+00 -0.10358042752E+03  0.10358042752E+03  0.00000000000E+00 0. -1.
         -6    2    1    2    0  503 -0.19392035318E+02  0.89723710077E+01  0.50614437443E+02  0.18015110405E+03  0.17156935781E+03 0.  0.
        -24    2    3    3    0    0 -0.37115502979E+01 -0.25354457523E+02 -0.26882064632E+02  0.93826098398E+02  0.86163026988E+02 0.  0.
          6    2    1    2  501    0  0.19392035318E+02 -0.89723710077E+01  0.16675332356E+03  0.24437751199E+03  0.17736161640E+03 0.  0.
         24    2    5    5    0    0 -0.36951092502E+02 -0.60666404196E+02  0.11068369665E+03  0.14944219622E+03  0.70966847684E+02 0.  0.
          5    1    5    5  501    0  0.56343127820E+02  0.51694033189E+02  0.56069626906E+02  0.94935315774E+02  0.47000000000E+01 0. -1.
        -11    1    6    6    0    0  0.26973570910E+01 -0.56876345441E+02  0.44785610647E+02  0.72442703753E+02  0.00000000000E+00 0.  1.
         12    1    6    6    0    0 -0.39648449593E+02 -0.37900587553E+01  0.65898086005E+02  0.76999492463E+02  0.00000000000E+00 0. -1.
         -5    1    3    3    0  503 -0.15680485020E+02  0.34326828531E+02  0.77496502075E+02  0.86325005655E+02  0.47000000000E+01 0.  1.
         13    1    4    4    0    0  0.34077017596E+02 -0.14200783219E+02 -0.37905826853E+02  0.52912730809E+02  0.00000000000E+00 0. -1.
        -14    1    4    4    0    0 -0.37788567894E+02 -0.11153674304E+02  0.11023762221E+02  0.40913367589E+02  0.00000000000E+00 0.  1.
</event>
<event>
12    1  0.1594900E-001  0.2409479E+03  0.7818608E-02  0.1119532E+00
         21   -1    0    0  501  502  0.00000000000E+00  0.00000000000E+00  0.38893948975E+02  0.38893948975E+02  0.00000000000E+00 0. -1.
         21   -1    0    0  502  503 -0.00000000000E+00 -0.00000000000E+00 -0.17939167914E+04  0.17939167914E+04  0.00000000000E+00 0.  1.
         -6    2    1    2    0  503  0.11616256221E+03 -0.12144000126E+03 -0.12648193607E+04  0.12875651148E+04  0.17266874294E+03 0.  0.
        -24    2    3    3    0    0 -0.10672800013E+02 -0.47200194995E+02 -0.57605476167E+03  0.58328000146E+03  0.77683361099E+02 0.  0.
          6    2    1    2  501    0 -0.11616256221E+03  0.12144000126E+03 -0.49020348170E+03  0.54524562558E+03  0.16956392301E+03 0.  0.
         24    2    5    5    0    0 -0.66752653129E+02  0.29323030858E+02 -0.37283518301E+03  0.38800605395E+03  0.78910502291E+02 0.  0.
          5    1    5    5  501    0 -0.49409909078E+02  0.92116970404E+02 -0.11736829868E+03  0.15723957163E+03  0.47000000000E+01 0. -1.
        -13    1    6    6    0    0 -0.64741797503E+02  0.52803630067E+02 -0.27765679760E+03  0.28995348066E+03  0.00000000000E+00 0.  1.
         14    1    6    6    0    0 -0.20108556262E+01 -0.23480599209E+02 -0.95178385409E+02  0.98052573290E+02  0.00000000000E+00 0. -1.
         -5    1    3    3    0  503  0.12683536222E+03 -0.74239806268E+02 -0.68876459903E+03  0.70428511331E+03  0.47000000000E+01 0.  1.
         13    1    4    4    0    0  0.23281593506E+01 -0.14220999335E+02 -0.13942967890E+02  0.20051521180E+02  0.00000000000E+00 0. -1.
        -14    1    4    4    0    0 -0.13000959364E+02 -0.32979195660E+02 -0.56211179378E+03  0.56322848028E+03  0.00000000000E+00 0.  1.
</event>
<event>
12    1  0.1594900E-001  0.2476256E+03  0.7818608E-02  0.1115132E+00
         21   -1    0    0  503  502  0.00000000000E+00  0.00000000000E+00  0.31519517631E+03  0.31519517631E+03  0.00000000000E+00 0. -1.
         21   -1    0    0  501  503 -0.00000000000E+00 -0.00000000000E+00 -0.20481660916E+03  0.20481660916E+03  0.00000000000E+00 0.  1.
          6    2    1    2  501    0 -0.15746916461E+03  0.77698302768E+02 -0.74848232736E+01  0.24576699123E+03  0.17179006765E+03 0.  0.
         24    2    3    3    0    0 -0.58314590949E+02  0.34012425285E+01 -0.52071883057E+02  0.11400288938E+03  0.82903665857E+02 0.  0.
         -6    2    1    2    0  502  0.15746916461E+03 -0.77698302768E+02  0.11786339042E+03  0.27424479424E+03  0.17459915324E+03 0.  0.
        -24    2    5    5    0    0  0.97987646537E+01 -0.45602315322E+02  0.67710042444E+02  0.11495214612E+03  0.80335291734E+02 0.  0.
          5    1    3    3  501    0 -0.99154573660E+02  0.74297060240E+02  0.44587059783E+02  0.13176410186E+03  0.47000000000E+01 0. -1.
        -11    1    4    4    0    0 -0.10559776476E+02 -0.19863840862E+02 -0.56385503192E+02  0.60707545027E+02  0.00000000000E+00 0.  1.
         12    1    4    4    0    0 -0.47754814473E+02  0.23265083390E+02  0.43136201351E+01  0.53295344348E+02  0.00000000000E+00 0. -1.
         -5    1    5    5    0  502  0.14767039996E+03 -0.32095987446E+02  0.50153347978E+02  0.15929264812E+03  0.47000000000E+01 0.  1.
         13    1    6    6    0    0  0.19758237430E+02  0.18801477758E+02  0.14948148684E+02  0.31101939832E+02  0.00000000000E+00 0. -1.
        -14    1    6    6    0    0 -0.99594727765E+01 -0.64403793080E+02  0.52761893760E+02  0.83850206287E+02  0.00000000000E+00 0.  1.
</event>
<event>
12    1  0.1594900E-001  0.1789397E+03  0.7818608E-02  0.1169658E+00
         21   -1    0    0  501  502  0.00000000000E+00  0.00000000000E+00  0.26709218873E+03  0.26709218873E+03  0.00000000000E+00 0.  1.
         21   -1    0    0  502  503 -0.00000000000E+00 -0.00000000000E+00 -0.13435440047E+03  0.13435440047E+03  0.00000000000E+00 0.  1.
         -6    2    1    2    0  503  0.23855756004E+02  0.44315206725E+02 -0.38569111966E+01  0.17898131096E+03  0.17171633373E+03 0.  0.
        -24    2    3    3    0    0  0.70683827370E+02  0.38393977295E+02  0.34349290864E+02  0.11807373260E+03  0.79317284393E+02 0.  0.
          6    2    1    2  501    0 -0.23855756004E+02 -0.44315206725E+02  0.13659469946E+03  0.22246527823E+03  0.16822530564E+03 0.  0.
         24    2    5    5    0    0 -0.46950484636E+02  0.52453831770E+01  0.14086589099E+03  0.16742028174E+03  0.77165338327E+02 0.  0.
          5    1    5    5  501    0  0.23094728633E+02 -0.49560589902E+02 -0.42711915377E+01  0.55044996496E+02  0.47000000000E+01 0. -1.
        -11    1    6    6    0    0 -0.18659346090E+02  0.16389853472E+01  0.13742238465E+03  0.13869307579E+03  0.00000000000E+00 0.  1.
         12    1    6    6    0    0 -0.28291138546E+02  0.36063978299E+01  0.34435063437E+01  0.28727205946E+02  0.00000000000E+00 0. -1.
         -5    1    3    3    0  503 -0.46828071367E+02  0.59212294305E+01 -0.38206202060E+02  0.60907578361E+02  0.47000000000E+01 0.  1.
         13    1    4    4    0    0  0.26827825533E+02  0.40375020778E+02  0.51697427218E+02  0.70869588023E+02  0.00000000000E+00 0. -1.
        -14    1    4    4    0    0  0.43856001838E+02 -0.19810434832E+01 -0.17348136354E+02  0.47204144579E+02  0.00000000000E+00 0.  1.
</event>
<event>
12    1  0.1594900E-001  0.1909328E+03  0.7818608E-02  0.1158099E+00
         21   -1    0    0  501  502  0.00000000000E+00  0.00000000000E+00  0.17702664599E+02  0.17702664599E+02  0.00000000000E+00 0. -1.
         21   -1    0    0  502  503 -0.00000000000E+00 -0.00000000000E+00 -0.24425470799E+04  0.24425470799E+04  0.00000000000E+00 0. -1.
         -6    2    1    2    0  503  0.76248994821E+02  0.20382306453E+02 -0.17082956646E+04  0.17186990357E+04  0.17153119307E+03 0.  0.
        -24    2    3    3    0    0 -0.19791416759E+01 -0.38553808990E+02 -0.93806684769E+03  0.94225352741E+03  0.79887333045E+02 0.  0.
          6    2    1    2  501    0 -0.76248994821E+02 -0.20382306453E+02 -0.71654875074E+03  0.74155070878E+03  0.17385624486E+03 0.  0.
         24    2    5    5    0    0  0.76829144977E+01 -0.51307823872E+02 -0.29366911558E+03  0.30928894912E+03  0.82015758471E+02 0.  0.
          5    1    5    5  501    0 -0.83931909319E+02  0.30925517418E+02 -0.42287963516E+03  0.43226175966E+03  0.47000000000E+01 0. -1.
        -13    1    6    6    0    0  0.11158479057E+02  0.20672349927E+02 -0.51092713295E+02  0.56234536169E+02  0.00000000000E+00 0.  1.
         14    1    6    6    0    0 -0.34755645593E+01 -0.71980173798E+02 -0.24257640229E+03  0.25305441295E+03  0.00000000000E+00 0. -1.
         -5    1    3    3    0  503  0.78228136497E+02  0.58936115444E+02 -0.77022881686E+03  0.77644550830E+03  0.47000000000E+01 0.  1.
         11    1    4    4    0    0  0.19824849830E+02  0.16982675348E+02 -0.40922434761E+03  0.41005609691E+03  0.00000000000E+00 0. -1.
        -12    1    4    4    0    0 -0.21803991506E+02 -0.55536484338E+02 -0.52884250008E+03  0.53219743050E+03  0.00000000000E+00 0.  1.
</event>
<event>
12    1  0.1594900E-001  0.1750541E+03  0.7818608E-02  0.1172820E+00
         21   -1    0    0  501  502  0.00000000000E+00  0.00000000000E+00  0.40978642392E+03  0.40978642392E+03  0.00000000000E+00 0. -1.
         21   -1    0    0  502  503 -0.00000000000E+00 -0.00000000000E+00 -0.74570346048E+02  0.74570346048E+02  0.00000000000E+00 0. -1.
         -6    2    1    2    0  503  0.17136114899E+02  0.28540066678E+02  0.16225536724E+03  0.23826868614E+03  0.17128041557E+03 0.  0.
        -24    2    3    3    0    0 -0.58177762442E+02  0.17821634177E+02  0.96100094625E+02  0.13734458094E+03  0.76980796563E+02 0.  0.
          6    2    1    2  501    0 -0.17136114899E+02 -0.28540066678E+02  0.17296071063E+03  0.24608808383E+03  0.17185969784E+03 0.  0.
         24    2    5    5    0    0 -0.56379208356E+02 -0.33377583668E+02  0.43589984451E+02  0.11072820518E+03  0.77897178717E+02 0.  0.
          5    1    5    5  501    0  0.39243093457E+02  0.48375169896E+01  0.12937072618E+03  0.13535987865E+03  0.47000000000E+01 0. -1.
        -13    1    6    6    0    0 -0.22231476312E+02  0.14287227249E+02  0.44876748012E+02  0.52079611304E+02  0.00000000000E+00 0.  1.
         14    1    6    6    0    0 -0.34147732044E+02 -0.47664810916E+02 -0.12867635603E+01  0.58648593878E+02  0.00000000000E+00 0. -1.
         -5    1    3    3    0  503  0.75313877341E+02  0.10718432501E+02  0.66155272615E+02  0.10092410520E+03  0.47000000000E+01 0.  1.
         11    1    4    4    0    0 -0.48077947733E+02 -0.24926714091E+02  0.51034140066E+02  0.74413127779E+02  0.00000000000E+00 0. -1.
        -12    1    4    4    0    0 -0.10099814709E+02  0.42748348268E+02  0.45065954559E+02  0.62931453162E+02  0.00000000000E+00 0.  1.
</event>
<event>
12    1  0.1594900E-001  0.1906810E+03  0.7818608E-02  0.1158437E+00
         21   -1    0    0  503  502  0.00000000000E+00  0.00000000000E+00  0.28630262961E+03  0.28630262961E+03  0.00000000000E+00 0.  1.
         21   -1    0    0  501  503 -0.00000000000E+00 -0.00000000000E+00 -0.18477577378E+03  0.18477577378E+03  0.00000000000E+00 0.  1.
          6    2    1    2  501    0 -0.73398024684E+02 -0.15121177765E+02 -0.82666071606E+02  0.20782902713E+03  0.17533768870E+03 0.  0.
         24    2    3    3    0    0  0.23434405202E+02  0.13906222094E+02 -0.19241164371E+02  0.88397380248E+02  0.81861590922E+02 0.  0.
         -6    2    1    2    0  502  0.73398024684E+02  0.15121177765E+02  0.18419292744E+03  0.26324937626E+03  0.17250298414E+03 0.  0.
        -24    2    5    5    0    0  0.22965604036E+02  0.72465266044E+02  0.94070771843E+02  0.14502980748E+03  0.80035624507E+02 0.  0.
          5    1    3    3  501    0 -0.96832429885E+02 -0.29027399859E+02 -0.63424907235E+02  0.11943164689E+03  0.47000000000E+01 0. -1.
        -11    1    4    4    0    0  0.21692721782E+02  0.38039780295E+02 -0.37843420824E+02  0.57876796411E+02  0.00000000000E+00 0.  1.
         12    1    4    4    0    0  0.17416834201E+01 -0.24133558201E+02  0.18602256453E+02  0.30520583836E+02  0.00000000000E+00 0. -1.
         -5    1    5    5    0  502  0.50432420647E+02 -0.57344088278E+02  0.90122155596E+02  0.11821956878E+03  0.47000000000E+01 0.  1.
         11    1    6    6    0    0  0.44665722393E+02  0.15221441974E+02  0.27616177090E+02  0.54675152398E+02  0.00000000000E+00 0. -1.
        -12    1    6    6    0    0 -0.21700118356E+02  0.57243824069E+02  0.66454594753E+02  0.90354655080E+02  0.00000000000E+00 0.  1.
</event>
<event>
12    1  0.1594900E-001  0.1876666E+03  0.7818608E-02  0.1160887E+00
         21   -1    0    0  503  502  0.00000000000E+00  0.00000000000E+00  0.10153279477E+03  0.10153279477E+03  0.00000000000E+00 0. -1.
         21   -1    0    0  501  503 -0.00000000000E+00 -0.00000000000E+00 -0.34934456992E+03  0.34934456992E+03  0.00000000000E+00 0. -1.
          6    2    1    2  501    0  0.61307846975E+02 -0.39804935619E+02 -0.15106171340E+03  0.24091159101E+03  0.17284579379E+03 0.  0.
         24    2    3    3    0    0  0.48241292900E+00 -0.80015940873E+02 -0.70266400386E+02  0.13197752391E+03  0.77960992036E+02 0.  0.
         -6    2    1    2    0  502 -0.61307846975E+02  0.39804935619E+02 -0.96750061752E+02  0.20996577368E+03  0.17141168766E+03 0.  0.
        -24    2    5    5    0    0 -0.99898485996E+02  0.62543431876E+01 -0.41220142773E+02  0.13433151177E+03  0.79542633674E+02 0.  0.
          5    1    3    3  501    0  0.60825434046E+02  0.40211005254E+02 -0.80795313009E+02  0.10893406710E+03  0.47000000000E+01 0. -1.
        -13    1    4    4    0    0  0.14804430188E+02  0.92839970956E+01 -0.43224608458E-01  0.17474713836E+02  0.00000000000E+00 0.  1.
         14    1    4    4    0    0 -0.14322017259E+02 -0.89299937969E+02 -0.70223175778E+02  0.11450281008E+03  0.00000000000E+00 0. -1.
         -5    1    5    5    0  502  0.38590639022E+02  0.33550592431E+02 -0.55529918979E+02  0.75634261908E+02  0.47000000000E+01 0.  1.
         11    1    6    6    0    0 -0.26064225768E+02  0.33175843674E+02 -0.36183938147E+02  0.55581092542E+02  0.00000000000E+00 0. -1.
        -12    1    6    6    0    0 -0.73834260228E+02 -0.26921500486E+02 -0.50362046263E+01  0.78750419230E+02  0.00000000000E+00 0.  1.
</event>
<event>
12    1  0.1594900E-001  0.1912374E+03  0.7818608E-02  0.1157601E+00
         21   -1    0    0  503  502  0.00000000000E+00  0.00000000000E+00  0.21389977815E+03  0.21389977815E+03  0.00000000000E+00 0.  1.
         21   -1    0    0  501  503 -0.00000000000E+00 -0.00000000000E+00 -0.30903886790E+03  0.30903886790E+03  0.00000000000E+00 0.  1.
          6    2    1    2  501    0 -0.61576566573E+02 -0.53032233759E+02 -0.22288774126E+03  0.29295721374E+03  0.17187464185E+03 0.  0.
         24    2    3    3    0    0 -0.29257517259E+01 -0.88925937970E+02 -0.15937878602E+03  0.19923553279E+03  0.79854978728E+02 0.  0.
         -6    2    1    2    0  502  0.61576566573E+02  0.53032233759E+02  0.12774865151E+03  0.22998143231E+03  0.17311166881E+03 0.  0.
        -24    2    5    5    0    0  0.41904486539E+01 -0.31872673808E+02  0.24127255139E+02  0.84168217392E+02  0.73950910629E+02 0.  0.
          5    1    3    3  501    0 -0.58650814847E+02  0.35893704211E+02 -0.63508955242E+02  0.93721680950E+02  0.47000000000E+01 0. -1.
        -13    1    4    4    0    0  0.68578182900E+01 -0.76834204144E+02 -0.16544160763E+03  0.18254163945E+03  0.00000000000E+00 0.  1.
         14    1    4    4    0    0 -0.97835700159E+01 -0.12091733826E+02  0.60628216082E+01  0.16693893345E+02  0.00000000000E+00 0. -1.
         -5    1    5    5    0  502  0.57386117919E+02  0.84904907568E+02  0.10362139637E+03  0.14581321492E+03  0.47000000000E+01 0.  1.
         13    1    6    6    0    0 -0.21338807512E+02 -0.42949684480E+02  0.28812117028E+02  0.55947816674E+02  0.00000000000E+00 0. -1.
        -14    1    6    6    0    0  0.25529256166E+02  0.11077010671E+02 -0.46848618890E+01  0.28220400718E+02  0.00000000000E+00 0.  1.
</event>
<event>
12    1  0.1594900E-001  0.4410977E+03  0.7818608E-02  0.1030425E+00
         21   -1    0    0  503  502  0.00000000000E+00  0.00000000000E+00  0.63058858328E+03  0.63058858328E+03  0.00000000000E+00 0. -1.
         21   -1    0    0  501  503 -0.00000000000E+00 -0.00000000000E+00 -0.31784619832E+03  0.31784619832E+03  0.00000000000E+00 0.  1.
          6    2    1    2  501    0 -0.40064229166E+03 -0.67257509637E+02  0.23807592767E+03  0.50124577522E+03  0.17184109336E+03 0.  0.
         24    2    3    3    0    0 -0.40586357334E+03 -0.66825909772E+02  0.24962454319E+03  0.48772140532E+03  0.79804851111E+02 0.  0.
         -6    2    1    2    0  502  0.40064229166E+03  0.67257509637E+02  0.74666457294E+02  0.44718900638E+03  0.17136250790E+03 0.  0.
        -24    2    5    5    0    0  0.14646888143E+03  0.70360961300E+02 -0.36263298131E+01  0.18117095362E+03  0.80037279224E+02 0.  0.
          5    1    3    3  501    0  0.52212816770E+01 -0.43159986420E+00 -0.11548615519E+02  0.13524369900E+02  0.47000000000E+01 0. -1.
        -11    1    4    4    0    0 -0.84160633737E+02 -0.33115967031E+02  0.24740049293E+02  0.93764330012E+02  0.00000000000E+00 0.  1.
         12    1    4    4    0    0 -0.32170293960E+03 -0.33709942741E+02  0.22488449389E+03  0.39395707530E+03  0.00000000000E+00 0. -1.
         -5    1    5    5    0  502  0.25417341024E+03 -0.31034516634E+01  0.78292787107E+02  0.26601805276E+03  0.47000000000E+01 0.  1.
         11    1    6    6    0    0  0.54884748397E+02 -0.13098925544E+02  0.67533405826E+01  0.56828910478E+02  0.00000000000E+00 0. -1.
        -12    1    6    6    0    0  0.91584133028E+02  0.83459886844E+02 -0.10379670396E+02  0.12434204314E+03  0.00000000000E+00 0.  1.
</event>
<event>
12    1  0.1594900E-001  0.1999084E+03  0.7818608E-02  0.1149840E+00
         21   -1    0    0  503  502  0.00000000000E+00  0.00000000000E+00  0.24282537533E+03  0.24282537533E+03  0.00000000000E+00 0.  1.
         21   -1    0    0  501  503 -0.00000000000E+00 -0.00000000000E+00 -0.29197321653E+03  0.29197321653E+03  0.00000000000E+00 0.  1.
          6    2    1    2  501    0  0.52826656001E+02 -0.86736564407E+02 -0.20127382077E+03  0.28368030295E+03  0.17219023249E+03 0.  0.
         24    2    3    3    0    0  0.79785373011E+02 -0.90696344819E+02 -0.20953136221E+03  0.25482325399E+03  0.80249400730E+02 0.  0.
         -6    2    1    2    0  502 -0.52826656001E+02  0.86736564407E+02  0.15212597957E+03  0.25111828891E+03  0.17205869399E+03 0.  0.
        -24    2    5    5    0    0  0.24560634763E+02  0.43647663090E+02  0.27303897446E+02  0.97990602407E+02  0.79676295541E+02 0.  0.
          5    1    3    3  501    0 -0.26958717010E+02  0.39597804121E+01  0.82575414370E+01  0.28857048954E+02  0.47000000000E+01 0. -1.
        -13    1    4    4    0    0  0.84430482826E+02 -0.39120300829E+02 -0.12838331368E+03  0.15855970358E+03  0.00000000000E+00 0.  1.
         14    1    4    4    0    0 -0.46451098151E+01 -0.51576043991E+02 -0.81148048529E+02  0.96263550417E+02  0.00000000000E+00 0. -1.
         -5    1    5    5    0  502 -0.77387290764E+02  0.43088901317E+02  0.12482208213E+03  0.15312768651E+03  0.47000000000E+01 0.  1.
         13    1    6    6    0    0 -0.11591749245E+02  0.11623835272E+02 -0.22998660573E+02  0.28256337079E+02  0.00000000000E+00 0. -1.
        -14    1    6    6    0    0  0.36152384008E+02  0.32023827818E+02  0.50302558018E+02  0.69734265328E+02  0.00000000000E+00 0.  1.
</event>
<event>
12    1  0.1594900E-001  0.2385203E+03  0.7818608E-02  0.1120939E+00
         21   -1    0    0  501  502  0.00000000000E+00  0.00000000000E+00  0.19529958246E+03  0.19529958246E+03  0.00000000000E+00 0. -1.
         21   -1    0    0  502  503 -0.00000000000E+00 -0.00000000000E+00 -0.29062072533E+03  0.29062072533E+03  0.00000000000E+00 0. -1.
         -6    2    1    2    0  503  0.13717798082E+03 -0.92118820194E+02 -0.57272924338E+02  0.24530002892E+03  0.17201232768E+03 0.  0.
        -24    2    3    3    0    0  0.64810378449E+02 -0.12179584035E+03 -0.23232574799E+02  0.15986800451E+03  0.77352533599E+02 0.  0.
          6    2    1    2  501    0 -0.13717798082E+03  0.92118820194E+02 -0.38048218536E+02  0.24062027886E+03  0.17072426954E+03 0.  0.
         24    2    5    5    0    0 -0.13608912246E+02  0.98841504813E+01 -0.44970066287E+02  0.91953343778E+02  0.78423285106E+02 0.  0.
          5    1    5    5  501    0 -0.12356906857E+03  0.82234669712E+02  0.69218477514E+01  0.14866693508E+03  0.47000000000E+01 0. -1.
        -11    1    6    6    0    0 -0.39804947411E+02  0.16800574922E+02 -0.48128137573E+02  0.64676199505E+02  0.00000000000E+00 0.  1.
         12    1    6    6    0    0  0.26196035166E+02 -0.69164244410E+01  0.31580712859E+01  0.27277144273E+02  0.00000000000E+00 0. -1.
         -5    1    3    3    0  503  0.72367602370E+02  0.29677020156E+02 -0.34040349540E+02  0.85432024411E+02  0.47000000000E+01 0.  1.
         13    1    4    4    0    0  0.24382767435E+02 -0.76576911587E+02 -0.48824828734E+02  0.94034071681E+02  0.00000000000E+00 0. -1.
        -14    1    4    4    0    0  0.40427611014E+02 -0.45218928763E+02  0.25592253935E+02  0.65833932832E+02  0.00000000000E+00 0.  1.
</event>
<event>
12    1  0.1594900E-001  0.1920585E+03  0.7818608E-02  0.1157021E+00
         21   -1    0    0  503  502  0.00000000000E+00  0.00000000000E+00  0.25560895411E+03  0.25560895411E+03  0.00000000000E+00 0.  1.
         21   -1    0    0  501  503 -0.00000000000E+00 -0.00000000000E+00 -0.25263004595E+03  0.25263004595E+03  0.00000000000E+00 0. -1.
          6    2    1    2  501    0  0.50884199733E+02  0.70242951988E+02 -0.16594233505E+03  0.25381752262E+03  0.17135694367E+03 0.  0.
         24    2    3    3    0    0  0.52581211081E+02  0.11444242120E+03 -0.13991305216E+03  0.20228028856E+03  0.74025681005E+02 0.  0.
         -6    2    1    2    0  502 -0.50884199733E+02 -0.70242951988E+02  0.16892124320E+03  0.25442147744E+03  0.16932993738E+03 0.  0.
        -24    2    5    5    0    0 -0.18425058688E+02 -0.84057352854E+02  0.44471524752E+02  0.12498324533E+03  0.78980844159E+02 0.  0.
          5    1    3    3  501    0 -0.16970113480E+01 -0.44199469216E+02 -0.26029282891E+02  0.51537234058E+02  0.47000000000E+01 0. -1.
        -13    1    4    4    0    0  0.33998993196E+02  0.88878312873E+01 -0.16494022502E+02  0.38819812745E+02  0.00000000000E+00 0.  1.
         14    1    4    4    0    0  0.18582217885E+02  0.10555458992E+03 -0.12341902965E+03  0.16346047582E+03  0.00000000000E+00 0. -1.
         -5    1    5    5    0  502 -0.32459141045E+02  0.13814400866E+02  0.12444971845E+03  0.12943823211E+03  0.47000000000E+01 0.  1.
         11    1    6    6    0    0  0.23332358162E+02 -0.14272181197E+02 -0.76360797683E+01  0.28397250003E+02  0.00000000000E+00 0. -1.
        -12    1    6    6    0    0 -0.41757416850E+02 -0.69785171657E+02  0.52107604520E+02  0.96585995331E+02  0.00000000000E+00 0.  1.
</event>
<event>
12    1  0.1594900E-001  0.2221753E+03  0.7818608E-02  0.1132315E+00
         21   -1    0    0  503  502  0.00000000000E+00  0.00000000000E+00  0.27510693788E+03  0.27510693788E+03  0.00000000000E+00 0. -1.
         21   -1    0    0  501  503 -0.00000000000E+00 -0.00000000000E+00 -0.18927443038E+03  0.18927443038E+03  0.00000000000E+00 0. -1.
          6    2    1    2  501    0  0.11433698469E+03 -0.80082502998E+02 -0.10571988636E+02  0.22219200760E+03  0.17254381456E+03 0.  0.
         24    2    3    3    0    0  0.94330881178E+01 -0.83048499596E+02  0.85285219155E+01  0.11541867688E+03  0.79137215323E+02 0.  0.
         -6    2    1    2    0  502 -0.11433698469E+03  0.80082502998E+02  0.96404496134E+02  0.24218936065E+03  0.17284590301E+03 0.  0.
        -24    2    5    5    0    0 -0.72501673369E+01 -0.48899665475E+00  0.67826169329E+02  0.10508296486E+03  0.79932698020E+02 0.  0.
          5    1    3    3  501    0  0.10490389657E+03  0.29659965976E+01 -0.19100510551E+02  0.10677333073E+03  0.47000000000E+01 0. -1.
        -11    1    4    4    0    0  0.13091577851E+02 -0.75416315777E+02  0.37499796186E+02  0.85236405427E+02  0.00000000000E+00 0.  1.
         12    1    4    4    0    0 -0.36584897332E+01 -0.76321838188E+01 -0.28971274270E+02  0.30182271449E+02  0.00000000000E+00 0. -1.
         -5    1    5    5    0  502 -0.10708681735E+03  0.80571499653E+02  0.28578326805E+02  0.13710639580E+03  0.47000000000E+01 0.  1.
         11    1    6    6    0    0 -0.18091999004E+02  0.15153152181E+02  0.79383089243E+02  0.82816745328E+02  0.00000000000E+00 0. -1.
        -12    1    6    6    0    0  0.10841831668E+02 -0.15642148835E+02 -0.11556919914E+02  0.22266219527E+02  0.00000000000E+00 0.  1.
</event>
<event>
12    1  0.1594900E-001  0.1845104E+03  0.7818608E-02  0.1163841E+00
         21   -1    0    0  503  502  0.00000000000E+00  0.00000000000E+00  0.50455959290E+03  0.50455959290E+03  0.00000000000E+00 0.  1.
         21   -1    0    0  501  503 -0.00000000000E+00 -0.00000000000E+00 -0.67364015890E+02  0.67364015890E+02  0.00000000000E+00 0.  1.
          6    2    1    2  501    0  0.54178576424E+02  0.41242911849E+02  0.19716729734E+03  0.27003520983E+03  0.17148695428E+03 0.  0.
         24    2    3    3    0    0  0.68358752498E+02  0.58178353080E+02  0.65404367675E+02  0.13635108139E+03  0.79096436552E+02 0.  0.
         -6    2    1    2    0  502 -0.54178576424E+02 -0.41242911849E+02  0.24002827967E+03  0.30188839895E+03  0.16996097924E+03 0.  0.
        -24    2    5    5    0    0 -0.32587620587E+02  0.71593899299E+01  0.40735628000E+02  0.95615271283E+02  0.79810267724E+02 0.  0.
          5    1    3    3  501    0 -0.14180176074E+02 -0.16935441231E+02  0.13176292967E+03  0.13368412844E+03  0.47000000000E+01 0. -1.
        -13    1    4    4    0    0  0.36306605135E+02 -0.46194284838E+01 -0.47303293777E+01  0.36903722197E+02  0.00000000000E+00 0.  1.
         14    1    4    4    0    0  0.32052147363E+02  0.62797781564E+02  0.70134697052E+02  0.99447359193E+02  0.00000000000E+00 0. -1.
         -5    1    5    5    0  502 -0.21590955837E+02 -0.48402301779E+02  0.19929265167E+03  0.20627312767E+03  0.47000000000E+01 0.  1.
         11    1    6    6    0    0  0.26043552903E+02  0.85271731496E+01  0.84957003691E+01  0.28690699791E+02  0.00000000000E+00 0. -1.
        -12    1    6    6    0    0 -0.58631173490E+02 -0.13677832197E+01  0.32239927631E+02  0.66924571492E+02  0.00000000000E+00 0.  1.
</event>
<event>
12    1  0.1594900E-001  0.3016906E+03  0.7818608E-02  0.1084500E+00
         21   -1    0    0  501  502  0.00000000000E+00  0.00000000000E+00  0.11325429613E+03  0.11325429613E+03  0.00000000000E+00 0. -1.
         21   -1    0    0  502  503 -0.00000000000E+00 -0.00000000000E+00 -0.17669639270E+04  0.17669639270E+04  0.00000000000E+00 0. -1.
         -6    2    1    2    0  503  0.86668736232E+02  0.23127843615E+03 -0.15212684295E+04  0.15507370206E+04  0.17183273181E+03 0.  0.
        -24    2    3    3    0    0  0.61478865177E+02  0.24264088836E+03 -0.11862164652E+04  0.12145145590E+04  0.72676407229E+02 0.  0.
          6    2    1    2  501    0 -0.86668736232E+02 -0.23127843615E+03 -0.13244120137E+03  0.32948120249E+03  0.17325128025E+03 0.  0.
         24    2    5    5    0    0 -0.55308507225E+02 -0.18646675649E+03 -0.30091374498E+02  0.21333849864E+03  0.82334330241E+02 0.  0.
          5    1    5    5  501    0 -0.31360229006E+02 -0.44811679663E+02 -0.10234982688E+03  0.11614270386E+03  0.47000000000E+01 0. -1.
        -11    1    6    6    0    0 -0.22792142372E+02 -0.68692722468E+01  0.11045829991E+02  0.26242694513E+02  0.00000000000E+00 0.  1.
         12    1    6    6    0    0 -0.32516364854E+02 -0.17959748424E+03 -0.41137204489E+02  0.18709580413E+03  0.00000000000E+00 0. -1.
         -5    1    3    3    0  503  0.25189871054E+02 -0.11362452213E+02 -0.33505196423E+03  0.33622246156E+03  0.47000000000E+01 0.  1.
         13    1    4    4    0    0 -0.91795452424E+01  0.10886581456E+03 -0.51444788118E+03  0.52592076597E+03  0.00000000000E+00 0. -1.
        -14    1    4    4    0    0  0.70658410419E+02  0.13377507380E+03 -0.67176858406E+03  0.68859379308E+03  0.00000000000E+00 0.  1.
</event>
<event>
12    1  0.1594900E-001  0.2199378E+03  0.7818608E-02  0.1134095E+00
         21   -1    0    0  501  502  0.00000000000E+00  0.00000000000E+00  0.36265272874E+02  0.36265272874E+02  0.00000000000E+00 0.  1.
         21   -1    0    0  502  503 -0.00000000000E+00 -0.00000000000E+00 -0.13320719963E+04  0.13320719963E+04  0.00000000000E+00 0.  1.
         -6    2    1    2    0  503 -0.48020717146E+01 -0.13579863742E+03 -0.68215368252E+03  0.71646098683E+03  0.17180910702E+03 0.  0.
        -24    2    3    3    0    0 -0.24289048679E+02 -0.21366373516E+02 -0.44057783219E+03  0.44840228663E+03  0.76872001603E+02 0.  0.
          6    2    1    2  501    0  0.48020717146E+01  0.13579863742E+03 -0.61365304090E+03  0.65187628234E+03  0.17294017189E+03 0.  0.
         24    2    5    5    0    0 -0.15293648267E+02  0.15246791047E+03 -0.38746946720E+03  0.42414222332E+03  0.79269654912E+02 0.  0.
          5    1    5    5  501    0  0.20095719982E+02 -0.16669273051E+02 -0.22618357370E+03  0.22773405902E+03  0.47000000000E+01 0. -1.
        -13    1    6    6    0    0 -0.26028162132E+02  0.15217196053E+03 -0.38215522325E+03  0.41216063064E+03  0.00000000000E+00 0.  1.
         14    1    6    6    0    0  0.10734513865E+02  0.29594994001E+00 -0.53142439493E+01  0.11981592675E+02  0.00000000000E+00 0. -1.
         -5    1    3    3    0  503  0.19486976964E+02 -0.11443226390E+03 -0.24157585033E+03  0.26805870020E+03  0.47000000000E+01 0.  1.
         11    1    4    4    0    0 -0.10776725769E+01 -0.13074078450E+02 -0.85208736521E+01  0.15642832010E+02  0.00000000000E+00 0. -1.
        -12    1    4    4    0    0 -0.23211376102E+02 -0.82922950665E+01 -0.43205695854E+03  0.43275945462E+03  0.00000000000E+00 0.  1.
</event>
<event>
12    1  0.1594900E-001  0.2036242E+03  0.7818608E-02  0.1146799E+00
         21   -1    0    0  503  502  0.00000000000E+00  0.00000000000E+00  0.86104349197E+02  0.86104349197E+02  0.00000000000E+00 0.  1.
         21   -1    0    0  501  503 -0.00000000000E+00 -0.00000000000E+00 -0.70996568240E+03  0.70996568240E+03  0.00000000000E+00 0.  1.
          6    2    1    2  501    0 -0.43280134652E+02  0.98982886097E+02 -0.53796233757E+03  0.57506904438E+03  0.17213409702E+03 0.  0.
         24    2    3    3    0    0  0.18055017437E+02  0.10194659503E+03 -0.26922869363E+03  0.29936876175E+03  0.80115380206E+02 0.  0.
         -6    2    1    2    0  502  0.43280134652E+02 -0.98982886097E+02 -0.85898995628E+02  0.22100098722E+03  0.17260364164E+03 0.  0.
        -24    2    5    5    0    0  0.70100556867E+02 -0.48331292787E+02  0.48273047220E+00  0.11722810272E+03  0.80574146623E+02 0.  0.
          5    1    3    3  501    0 -0.61335152089E+02 -0.29637089335E+01 -0.26873364394E+03  0.27570028263E+03  0.47000000000E+01 0. -1.
        -13    1    4    4    0    0 -0.66551778737E+01  0.92735489041E+02 -0.25000867954E+03  0.26673676568E+03  0.00000000000E+00 0.  1.
         14    1    4    4    0    0  0.24710195311E+02  0.92111059893E+01 -0.19220014086E+02  0.32631996067E+02  0.00000000000E+00 0. -1.
         -5    1    5    5    0  502 -0.26820422215E+02 -0.50651593309E+02 -0.86381726100E+02  0.10377288450E+03  0.47000000000E+01 0.  1.
         11    1    6    6    0    0 -0.22930978643E+01 -0.92916062457E+01 -0.28467067777E+02  0.30032751992E+02  0.00000000000E+00 0. -1.
        -12    1    6    6    0    0  0.72393654731E+02 -0.39039686542E+02  0.28949798249E+02  0.87195350732E+02  0.00000000000E+00 0.  1.
</event>
<event>
12    1  0.1594900E-001  0.2527458E+03  0.7818608E-02  0.1111936E+00
         21   -1    0    0  503  502  0.00000000000E+00  0.00000000000E+00  0.23615948319E+03  0.23615948319E+03  0.00000000000E+00 0.  1.
         21   -1    0    0  501  503 -0.00000000000E+00 -0.00000000000E+00 -0.76755344321E+03  0.76755344321E+03  0.00000000000E+00 0.  1.
          6    2    1    2  501    0  0.53946308986E+01 -0.18241194409E+03 -0.67095252120E+03  0.71697819335E+03  0.17486344569E+03 0.  0.
         24    2    3    3    0    0  0.43840641621E+02 -0.14110721128E+03 -0.61542196240E+03  0.63766924269E+03  0.77747182223E+02 0.  0.
         -6    2    1    2    0  502 -0.53946308986E+01  0.18241194409E+03  0.13955856119E+03  0.28673473305E+03  0.17157212987E+03 0.  0.
        -24    2    5    5    0    0 -0.42858340468E+02  0.15684084943E+03  0.53384864948E+02  0.18923905960E+03  0.80781114603E+02 0.  0.
          5    1    3    3  501    0 -0.38446010722E+02 -0.41304732806E+02 -0.55530558808E+02  0.79308950656E+02  0.47000000000E+01 0. -1.
        -13    1    4    4    0    0  0.25736758244E+01 -0.43007806027E+02 -0.33450338624E+03  0.33726667578E+03  0.00000000000E+00 0.  1.
         14    1    4    4    0    0  0.41266965797E+02 -0.98099405255E+02 -0.28091857615E+03  0.30040256691E+03  0.00000000000E+00 0. -1.
         -5    1    5    5    0  502  0.37463709570E+02  0.25571094657E+02  0.86173696241E+02  0.97495673445E+02  0.47000000000E+01 0.  1.
         11    1    6    6    0    0  0.17293245044E+02  0.52296661265E+01  0.17398866031E+01  0.18150287527E+02  0.00000000000E+00 0. -1.
        -12    1    6    6    0    0 -0.60151585512E+02  0.15161118330E+03  0.51644978344E+02  0.17108877208E+03  0.00000000000E+00 0.  1.
</event>
<event>
12    1  0.1594900E-001  0.1829452E+03  0.7818608E-02  0.1165579E+00
         21   -1    0    0  503  502  0.00000000000E+00  0.00000000000E+00  0.94429968410E+02  0.94429968410E+02  0.00000000000E+00 0.  1.
         21   -1    0    0  501  503 -0.00000000000E+00 -0.00000000000E+00 -0.73427148687E+03  0.73427148687E+03  0.00000000000E+00 0.  1.
          6    2    1    2  501    0 -0.57162944983E+02 -0.85658322830E+01 -0.62086832590E+03  0.64726072154E+03  0.17357415643E+03 0.  0.
         24    2    3    3    0    0 -0.20092400235E+02  0.29901788036E+02 -0.55659950575E+03  0.56355555835E+03  0.80585582294E+02 0.  0.
         -6    2    1    2    0  502  0.57162944983E+02  0.85658322830E+01 -0.18973192558E+02  0.18144073374E+03  0.17093794799E+03 0.  0.
        -24    2    5    5    0    0  0.86464208414E+02 -0.97782826025E+01 -0.55697258088E+02  0.13078683380E+03  0.80195618277E+02 0.  0.
          5    1    3    3  501    0 -0.37070544747E+02 -0.38467620319E+02 -0.64268820154E+02  0.83705163191E+02  0.47000000000E+01 0. -1.
        -11    1    4    4    0    0  0.86822931653E+01  0.19149235177E+02 -0.48729591767E+03  0.48774930733E+03  0.00000000000E+00 0.  1.
         12    1    4    4    0    0 -0.28774693401E+02  0.10752552859E+02 -0.69303588073E+02  0.75806251016E+02  0.00000000000E+00 0. -1.
         -5    1    5    5    0  502 -0.29301263431E+02  0.18344114885E+02  0.36724065529E+02  0.50653899935E+02  0.47000000000E+01 0.  1.
         13    1    6    6    0    0  0.19298348019E+02  0.29328449511E+02  0.10405286875E+00  0.35108332543E+02  0.00000000000E+00 0. -1.
        -14    1    6    6    0    0  0.67165860395E+02 -0.39106732113E+02 -0.55801310956E+02  0.95678501261E+02  0.00000000000E+00 0.  1.
</event>
<event>
12    1  0.1594900E-001  0.1953968E+03  0.7818608E-02  0.1153751E+00
         21   -1    0    0  501  502  0.00000000000E+00  0.00000000000E+00  0.69057713377E+02  0.69057713377E+02  0.00000000000E+00 0.  1.
         21   -1    0    0  502  503 -0.00000000000E+00 -0.00000000000E+00 -0.66238151916E+03  0.66238151916E+03  0.00000000000E+00 0.  1.
         -6    2    1    2    0  503 -0.87143832441E+02 -0.31557794584E+02 -0.44577601664E+03  0.48659182732E+03  0.17165490808E+03 0.  0.
        -24    2    3    3    0    0 -0.10062249624E+03 -0.68160032189E+02 -0.27023403760E+03  0.30670721268E+03  0.79197237935E+02 0.  0.
          6    2    1    2  501    0  0.87143832441E+02  0.31557794584E+02 -0.14754778914E+03  0.24484740522E+03  0.17201732422E+03 0.  0.
         24    2    5    5    0    0  0.75050936164E+02  0.61426872867E+02 -0.16235751671E+03  0.20907286109E+03  0.89138063039E+02 0.  0.
          5    1    5    5  501    0  0.12092896277E+02 -0.29869078283E+02  0.14809727562E+02  0.35774544138E+02  0.47000000000E+01 0. -1.
        -11    1    6    6    0    0  0.67327409851E+02  0.17312527752E+01 -0.11154278748E+03  0.13029877510E+03  0.00000000000E+00 0.  1.
         12    1    6    6    0    0  0.77235263128E+01  0.59695620092E+02 -0.50814729228E+02  0.78774085988E+02  0.00000000000E+00 0. -1.
         -5    1    3    3    0  503  0.13478663802E+02  0.36602237606E+02 -0.17554197904E+03  0.17988461463E+03  0.47000000000E+01 0.  1.
         11    1    4    4    0    0 -0.21313196919E+02 -0.48789152201E+02 -0.55178462254E+02  0.76676570295E+02  0.00000000000E+00 0. -1.
        -12    1    4    4    0    0 -0.79309299324E+02 -0.19370879988E+02 -0.21505557535E+03  0.23003064239E+03  0.00000000000E+00 0.  1.
</event>
<event>
12    1  0.1594900E-001  0.1936053E+03  0.7818608E-02  0.1155876E+00
         21   -1    0    0  501  502  0.00000000000E+00  0.00000000000E+00  0.68488782246E+02  0.68488782246E+02  0.00000000000E+00 0.  1.
         21   -1    0    0  502  503 -0.00000000000E+00 -0.00000000000E+00 -0.83274232016E+03  0.83274232016E+03  0.00000000000E+00 0.  1.
         -6    2    1    2    0  503 -0.65731697277E+02 -0.48712405334E+02 -0.64778298819E+03  0.67529219722E+03  0.17234615569E+03 0.  0.
        -24    2    3    3    0    0  0.48453698455E+01 -0.74449890128E+02 -0.31255306509E+03  0.33171581289E+03  0.82338923221E+02 0.  0.
          6    2    1    2  501    0  0.65731697277E+02  0.48712405334E+02 -0.11647054973E+03  0.22593890519E+03  0.17546921515E+03 0.  0.
         24    2    5    5    0    0 -0.50121587696E+01  0.20225924351E+02  0.42478932658E+01  0.83071115796E+02  0.80302901137E+02 0.  0.
          5    1    5    5  501    0  0.70743856046E+02  0.28486480982E+02 -0.12071844300E+03  0.14286778939E+03  0.47000000000E+01 0. -1.
        -11    1    6    6    0    0  0.46057180845E+00 -0.23814247131E+02  0.24605602377E+02  0.34245673612E+02  0.00000000000E+00 0.  1.
         12    1    6    6    0    0 -0.54727305780E+01  0.44040171483E+02 -0.20357709111E+02  0.48825442184E+02  0.00000000000E+00 0. -1.
         -5    1    3    3    0  503 -0.70577067122E+02  0.25737484794E+02 -0.33522992310E+03  0.34357638433E+03  0.47000000000E+01 0.  1.
         11    1    4    4    0    0 -0.12321670598E+02 -0.13647345792E+02 -0.69598503778E+01  0.19659937202E+02  0.00000000000E+00 0. -1.
        -12    1    4    4    0    0  0.17167040444E+02 -0.60802544336E+02 -0.30559321471E+03  0.31205587569E+03  0.00000000000E+00 0.  1.
</event>
<event>
12    1  0.1594900E-001  0.1823189E+03  0.7818608E-02  0.1165728E+00
         21   -1    0    0  501  502  0.00000000000E+00  0.00000000000E+00  0.63719256066E+03  0.63719256066E+03  0.00000000000E+00 0.  1.
         21   -1    0    0  502  503 -0.00000000000E+00 -0.00000000000E+00 -0.28518162279E+03  0.28518162279E+03  0.00000000000E+00 0.  1.
         -6    2    1    2    0  503  0.46772297354E+02  0.31982310297E+02 -0.24108834450E+03  0.30188490212E+03  0.17262788970E+03 0.  0.
        -24    2    3    3    0    0  0.34143991124E+02 -0.48817959413E+02 -0.14265941228E+03  0.17382826464E+03  0.79470449763E+02 0.  0.
          6    2    1    2  501    0 -0.46772297354E+02 -0.31982310297E+02  0.59309928237E+03  0.62048928133E+03  0.17329071969E+03 0.  0.
         24    2    5    5    0    0  0.39348122246E+02 -0.29934858903E+02  0.25986577725E+03  0.27626903547E+03  0.79686807384E+02 0.  0.
          5    1    5    5  501    0 -0.86120419599E+02 -0.20474513937E+01  0.33323350512E+03  0.34422024586E+03  0.47000000000E+01 0. -1.
        -13    1    6    6    0    0  0.38014988577E+02 -0.11522613845E+02  0.25372257148E+03  0.25681326536E+03  0.00000000000E+00 0.  1.
         14    1    6    6    0    0  0.13331336687E+01 -0.18412245059E+02  0.61432057737E+01  0.19455770112E+02  0.00000000000E+00 0. -1.
         -5    1    3    3    0  503  0.12628306230E+02  0.80800269710E+02 -0.98428932223E+02  0.12805663748E+03  0.47000000000E+01 0.  1.
         13    1    4    4    0    0  0.52119018957E+02 -0.57294055405E+02 -0.97732853509E+02  0.12470249226E+03  0.00000000000E+00 0. -1.
        -14    1    4    4    0    0 -0.17975027833E+02  0.84760959920E+01 -0.44926558770E+02  0.49125772378E+02  0.00000000000E+00 0.  1.
</event>
<event>
12    1  0.1594900E-001  0.2013420E+03  0.7818608E-02  0.1149051E+00
         21   -1    0    0  501  502  0.00000000000E+00  0.00000000000E+00  0.11262420622E+04  0.11262420622E+04  0.00000000000E+00 0.  1.
         21   -1    0    0  502  503 -0.00000000000E+00 -0.00000000000E+00 -0.35808622935E+02  0.35808622935E+02  0.00000000000E+00 0. -1.
         -6    2    1    2    0  503  0.64606888543E+02 -0.83377660996E+02  0.58435192458E+03  0.61738832975E+03  0.16904228333E+03 0.  0.
        -24    2    3    3    0    0  0.88775668391E+02 -0.10979662712E+03  0.47329207531E+03  0.50060446182E+03  0.81627323936E+02 0.  0.
          6    2    1    2  501    0 -0.64606888543E+02  0.83377660996E+02  0.50608151464E+03  0.54466235534E+03  0.17150130455E+03 0.  0.
         24    2    5    5    0    0 -0.83096042889E-01 -0.98393840868E+01  0.12426128483E+03  0.14633897517E+03  0.76664257405E+02 0.  0.
          5    1    5    5  501    0 -0.64523792500E+02  0.93217045083E+02  0.38182022981E+03  0.39832338017E+03  0.47000000000E+01 0. -1.
        -11    1    6    6    0    0 -0.26343364037E+02 -0.22938042725E+02  0.10639514910E+03  0.11198238426E+03  0.00000000000E+00 0.  1.
         12    1    6    6    0    0  0.26260267994E+02  0.13098658639E+02  0.17866135729E+02  0.34356590912E+02  0.00000000000E+00 0. -1.
         -5    1    3    3    0  503 -0.24168779848E+02  0.26418966122E+02  0.11105984927E+03  0.11678386794E+03  0.47000000000E+01 0.  1.
         13    1    4    4    0    0 -0.33633969368E+01 -0.18796542206E+02  0.14756350259E+02  0.24132391320E+02  0.00000000000E+00 0. -1.
        -14    1    4    4    0    0  0.92139065328E+02 -0.91000084913E+02  0.45853572506E+03  0.47647207050E+03  0.00000000000E+00 0.  1.
</event>
<event>
12    1  0.1594900E-001  0.1985631E+03  0.7818608E-02  0.1151707E+00
         21   -1    0    0  503  502  0.00000000000E+00  0.00000000000E+00  0.15953995051E+03  0.15953995051E+03  0.00000000000E+00 0.  1.
         21   -1    0    0  501  503 -0.00000000000E+00 -0.00000000000E+00 -0.50771548853E+03  0.50771548853E+03  0.00000000000E+00 0.  1.
          6    2    1    2  501    0 -0.86459345448E+02  0.41833964845E+02 -0.41581156555E+03  0.46078907462E+03  0.17378726710E+03 0.  0.
         24    2    3    3    0    0  0.11055651354E+02  0.14849238310E+02 -0.93016587033E+02  0.12247555401E+03  0.77494829254E+02 0.  0.
         -6    2    1    2    0  502  0.86459345448E+02 -0.41833964845E+02  0.67636027536E+02  0.20646636443E+03  0.16978936477E+03 0.  0.
        -24    2    5    5    0    0  0.83084402423E+02 -0.73428462934E+02  0.57000728631E+01  0.13669706580E+03  0.79742334257E+02 0.  0.
          5    1    3    3  501    0 -0.97514996802E+02  0.26984726535E+02 -0.32279497852E+03  0.33831352061E+03  0.47000000000E+01 0. -1.
        -13    1    4    4    0    0 -0.23234741089E+02  0.12740088026E+02 -0.82341259104E+02  0.86499976805E+02  0.00000000000E+00 0.  1.
         14    1    4    4    0    0  0.34290392442E+02  0.21091502843E+01 -0.10675327929E+02  0.35975577204E+02  0.00000000000E+00 0. -1.
         -5    1    5    5    0  502  0.33749430252E+01  0.31594498090E+02  0.61935954673E+02  0.69769298629E+02  0.47000000000E+01 0.  1.
         13    1    6    6    0    0  0.10600920465E+02 -0.21286000740E+02 -0.31921307506E+02  0.39805065194E+02  0.00000000000E+00 0. -1.
        -14    1    6    6    0    0  0.72483481958E+02 -0.52142462194E+02  0.37621380369E+02  0.96892000606E+02  0.00000000000E+00 0.  1.
</event>
<event>
12    1  0.1594900E-001  0.4272590E+03  0.7818608E-02  0.1034790E+00
         21   -1    0    0  501  502  0.00000000000E+00  0.00000000000E+00  0.12307563493E+03  0.12307563493E+03  0.00000000000E+00 0.  1.
         21   -1    0    0  502  503 -0.00000000000E+00 -0.00000000000E+00 -0.15771656622E+04  0.15771656622E+04  0.00000000000E+00 0. -1.
         -6    2    1    2    0  503  0.39081833193E+03  0.22755399030E+02 -0.51729914630E+03  0.67093121994E+03  0.17115349360E+03 0.  0.
        -24    2    3    3    0    0  0.27197142849E+03  0.70230910651E+02 -0.41463590023E+03  0.50679608429E+03  0.77579008557E+02 0.  0.
          6    2    1    2  501    0 -0.39081833193E+03 -0.22755399030E+02 -0.93679088094E+03  0.10293100772E+04  0.16924923504E+03 0.  0.
         24    2    5    5    0    0 -0.24895833103E+03  0.21095383785E+02 -0.45237138327E+03  0.52262329942E+03  0.77910069229E+02 0.  0.
          5    1    5    5  501    0 -0.14186000089E+03 -0.43850782816E+02 -0.48441949767E+03  0.50668677774E+03  0.47000000000E+01 0. -1.
        -13    1    6    6    0    0 -0.20103629610E+02 -0.15122893644E+02 -0.81764297873E+02  0.85546819008E+02  0.00000000000E+00 0.  1.
         14    1    6    6    0    0 -0.22885470142E+03  0.36218277429E+02 -0.37060708540E+03  0.43707648041E+03  0.00000000000E+00 0. -1.
         -5    1    3    3    0  503  0.11884690344E+03 -0.47475511621E+02 -0.10266324607E+03  0.16413513565E+03  0.47000000000E+01 0.  1.
         11    1    4    4    0    0  0.10054972002E+02  0.22711655605E+02 -0.43074712593E+02  0.49722757639E+02  0.00000000000E+00 0. -1.
        -12    1    4    4    0    0  0.26191645649E+03  0.47519255046E+02 -0.37156118764E+03  0.45707332665E+03  0.00000000000E+00 0.  1.
</event>
<event>
12    1  0.1594900E-001  0.2110440E+03  0.7818608E-02  0.1140891E+00
         21   -1    0    0  501  502  0.00000000000E+00  0.00000000000E+00  0.24410817881E+02  0.24410817881E+02  0.00000000000E+00 0. -1.
         21   -1    0    0  502  503 -0.00000000000E+00 -0.00000000000E+00 -0.18494449783E+04  0.18494449783E+04  0.00000000000E+00 0. -1.
         -6    2    1    2    0  503  0.98757540679E+02  0.69414244781E+02 -0.79201975345E+03  0.81965532319E+03  0.17311317037E+03 0.  0.
        -24    2    3    3    0    0  0.13287907505E+03  0.78924478064E+02 -0.61668903178E+03  0.64072048699E+03  0.79570463777E+02 0.  0.
          6    2    1    2  501    0 -0.98757540679E+02 -0.69414244781E+02 -0.10330144070E+04  0.10542004730E+04  0.17218734864E+03 0.  0.
         24    2    5    5    0    0 -0.72868856632E+02 -0.72374283458E+02 -0.39819258707E+03  0.41882670991E+03  0.79439092174E+02 0.  0.
          5    1    5    5  501    0 -0.25888684047E+02  0.29600386769E+01 -0.63482181990E+03  0.63537376308E+03  0.47000000000E+01 0. -1.
        -11    1    6    6    0    0 -0.43162704023E+02 -0.62455462877E+01 -0.68105518088E+02  0.80872662013E+02  0.00000000000E+00 0.  1.
         12    1    6    6    0    0 -0.29706152609E+02 -0.66128737170E+02 -0.33008706898E+03  0.33795404789E+03  0.00000000000E+00 0. -1.
         -5    1    3    3    0  503 -0.34121534367E+02 -0.95102332837E+01 -0.17533072166E+03  0.17893483619E+03  0.47000000000E+01 0.  1.
         11    1    4    4    0    0  0.12349930748E+03  0.71905324044E+02 -0.41930067729E+03  0.44298477688E+03  0.00000000000E+00 0. -1.
        -12    1    4    4    0    0  0.93797675676E+01  0.70191540203E+01 -0.19738835449E+03  0.19773571011E+03  0.00000000000E+00 0.  1.
</event>
<event>
12    1  0.1594900E-001  0.2006599E+03  0.7818608E-02  0.1149805E+00
         21   -1    0    0  501  502  0.00000000000E+00  0.00000000000E+00  0.88180923142E+03  0.88180923142E+03  0.00000000000E+00 0. -1.
         21   -1    0    0  502  503 -0.00000000000E+00 -0.00000000000E+00 -0.65388178322E+02  0.65388178322E+02  0.00000000000E+00 0. -1.
         -6    2    1    2    0  503 -0.26217804253E+02  0.99459547824E+02  0.14580353632E+03  0.24803843691E+03  0.17229283232E+03 0.  0.
        -24    2    3    3    0    0  0.34652826733E+01  0.94357219238E+02  0.16943627148E+03  0.20946752070E+03  0.79074010449E+02 0.  0.
          6    2    1    2  501    0  0.26217804253E+02 -0.99459547824E+02  0.67061751678E+03  0.69915897284E+03  0.16886633937E+03 0.  0.
         24    2    5    5    0    0  0.63603141721E+02 -0.70382975112E+02  0.30563401482E+03  0.33108539698E+03  0.84889729991E+02 0.  0.
          5    1    5    5  501    0 -0.37385337468E+02 -0.29076572712E+02  0.36498350196E+03  0.36807357586E+03  0.47000000000E+01 0. -1.
        -11    1    6    6    0    0  0.57869716686E+02 -0.50859457309E+02  0.30033440106E+03  0.31005860892E+03  0.00000000000E+00 0.  1.
         12    1    6    6    0    0  0.57334250345E+01 -0.19523517803E+02  0.52996137574E+01  0.21026788058E+02  0.00000000000E+00 0. -1.
         -5    1    3    3    0  503 -0.29683086926E+02  0.51023285861E+01 -0.23632735156E+02  0.38570916212E+02  0.47000000000E+01 0.  1.
         11    1    4    4    0    0 -0.15446410485E+02  0.44458118570E+02  0.20639971538E+02  0.51391870259E+02  0.00000000000E+00 0. -1.
        -12    1    4    4    0    0  0.18911693158E+02  0.49899100668E+02  0.14879629994E+03  0.15807565044E+03  0.00000000000E+00 0.  1.
</event>
<event>
12    1  0.1594900E-001  0.2068458E+03  0.7818608E-02  0.1146102E+00
         21   -1    0    0  503  502  0.00000000000E+00  0.00000000000E+00  0.79390403627E+03  0.79390403627E+03  0.00000000000E+00 0. -1.
         21   -1    0    0  501  503 -0.00000000000E+00 -0.00000000000E+00 -0.27473053285E+03  0.27473053285E+03  0.00000000000E+00 0. -1.
          6    2    1    2  501    0 -0.38662079546E+02 -0.10094855160E+03 -0.22331369512E+03  0.29787364116E+03  0.16484639276E+03 0.  0.
         24    2    3    3    0    0 -0.82855701624E+02 -0.87648571448E+02 -0.13378060533E+03  0.19703600002E+03  0.79866110287E+02 0.  0.
         -6    2    1    2    0  502  0.38662079546E+02  0.10094855160E+03  0.74248719854E+03  0.77076092796E+03  0.17635135841E+03 0.  0.
        -24    2    5    5    0    0 -0.34979356432E+02  0.53679240317E+02  0.38490666038E+03  0.40259876240E+03  0.99134303161E+02 0.  0.
          5    1    3    3  501    0  0.44193622078E+02 -0.13299980156E+02 -0.89533089789E+02  0.10083764115E+03  0.47000000000E+01 0. -1.
        -11    1    4    4    0    0  0.65242848815E+01 -0.68694071050E+01  0.69735994622E+01  0.11763763711E+02  0.00000000000E+00 0.  1.
         12    1    4    4    0    0 -0.89379986506E+02 -0.80779164343E+02 -0.14075420479E+03  0.18527223631E+03  0.00000000000E+00 0. -1.
         -5    1    5    5    0  502  0.73641435978E+02  0.47269311287E+02  0.35758053816E+03  0.36816216556E+03  0.47000000000E+01 0.  1.
         13    1    6    6    0    0 -0.15024930389E+02  0.26524304943E+02  0.35848117394E+03  0.35977498434E+03  0.00000000000E+00 0. -1.
        -14    1    6    6    0    0 -0.19954426043E+02  0.27154935374E+02  0.26425486440E+02  0.42823778061E+02  0.00000000000E+00 0.  1.
</event>
<event>
12    1  0.1594900E-001  0.1817064E+03  0.7818608E-02  0.1166813E+00
         21   -1    0    0  503  502  0.00000000000E+00  0.00000000000E+00  0.61942070596E+02  0.61942070596E+02  0.00000000000E+00 0. -1.
         21   -1    0    0  501  503 -0.00000000000E+00 -0.00000000000E+00 -0.13427151500E+04  0.13427151500E+04  0.00000000000E+00 0. -1.
          6    2    1    2  501    0  0.40526394799E+02 -0.37855952804E+02 -0.11865457900E+04  0.11999721122E+04  0.17019605308E+03 0.  0.
         24    2    3    3    0    0 -0.27279888971E+02 -0.57837977328E+02 -0.84615985615E+03  0.85229173114E+03  0.79531558757E+02 0.  0.
         -6    2    1    2    0  502 -0.40526394799E+02  0.37855952804E+02 -0.94227289400E+02  0.20468510838E+03  0.17303684488E+03 0.  0.
        -24    2    5    5    0    0 -0.85624287761E+02  0.43679619683E+02 -0.35715069441E+02  0.13043212911E+03  0.80607358779E+02 0.  0.
          5    1    3    3  501    0  0.67806283769E+02  0.19982024524E+02 -0.34038593382E+03  0.34768038104E+03  0.47000000000E+01 0. -1.
        -11    1    4    4    0    0 -0.49103898722E+02 -0.15245330186E+02 -0.53612081943E+03  0.53858067733E+03  0.00000000000E+00 0.  1.
         12    1    4    4    0    0  0.21824009752E+02 -0.42592647142E+02 -0.31003903672E+03  0.31371105381E+03  0.00000000000E+00 0. -1.
         -5    1    5    5    0  502  0.45097892962E+02 -0.58236668790E+01 -0.58512219959E+02  0.74252979267E+02  0.47000000000E+01 0.  1.
         11    1    6    6    0    0 -0.44380044207E+01  0.44036872309E+02 -0.12525960846E+02  0.45998279327E+02  0.00000000000E+00 0. -1.
        -12    1    6    6    0    0 -0.81186283340E+02 -0.35725262567E+00 -0.23189108595E+02  0.84433849784E+02  0.00000000000E+00 0.  1.
</event>
<event>
12    1  0.1594900E-001  0.3395025E+03  0.7818608E-02  0.1067073E+00
         21   -1    0    0  503  502  0.00000000000E+00  0.00000000000E+00  0.88528624042E+03  0.88528624042E+03  0.00000000000E+00 0.  1.
         21   -1    0    0  501  503 -0.00000000000E+00 -0.00000000000E+00 -0.39680854557E+03  0.39680854557E+03  0.00000000000E+00 0. -1.
          6    2    1    2  501    0  0.27312885093E+03  0.10328076059E+03 -0.28137827560E+03  0.44094859642E+03  0.17319251135E+03 0.  0.
         24    2    3    3    0    0  0.16098823379E+03  0.43456901314E+02 -0.78697965731E+02  0.20166673300E+03  0.81672441499E+02 0.  0.
         -6    2    1    2    0  502 -0.27312885093E+03 -0.10328076059E+03  0.76985597045E+03  0.84114618957E+03  0.17199538442E+03 0.  0.
        -24    2    5    5    0    0 -0.10252701578E+03 -0.18825278740E+02  0.19186505719E+03  0.23259602698E+03  0.80140698223E+02 0.  0.
          5    1    3    3  501    0  0.11214061714E+03  0.59823859271E+02 -0.20268030987E+03  0.23928186341E+03  0.47000000000E+01 0. -1.
        -11    1    4    4    0    0  0.25059800560E+02  0.32798222405E+02  0.51594733009E+01  0.41597321570E+02  0.00000000000E+00 0.  1.
         12    1    4    4    0    0  0.13592843323E+03  0.10658678909E+02 -0.83857439032E+02  0.16006941143E+03  0.00000000000E+00 0. -1.
         -5    1    5    5    0  502 -0.17060183515E+03 -0.84455481845E+02  0.57799091326E+03  0.60855016259E+03  0.47000000000E+01 0.  1.
         11    1    6    6    0    0 -0.10894180986E+03  0.28350970298E+00  0.17580694465E+03  0.20682475698E+03  0.00000000000E+00 0. -1.
        -12    1    6    6    0    0  0.64147940835E+01 -0.19108788443E+02  0.16058112544E+02  0.25771269999E+02  0.00000000000E+00 0.  1.
</event>
<event>
12    1  0.1594900E-001  0.1938353E+03  0.7818608E-02  0.1155703E+00
         21   -1    0    0  501  502  0.00000000000E+00  0.00000000000E+00  0.23625239041E+03  0.23625239041E+03  0.00000000000E+00 0.  1.
         21   -1    0    0  502  503 -0.00000000000E+00 -0.00000000000E+00 -0.34632092147E+03  0.34632092147E+03  0.00000000000E+00 0. -1.
         -6    2    1    2    0  503  0.66924249166E+02 -0.45643408406E+02 -0.27042725370E+03  0.33100414956E+03  0.17283133867E+03 0.  0.
        -24    2    3    3    0    0  0.76989974357E+02  0.29367008484E+02 -0.17367202832E+03  0.20807512490E+03  0.79645507358E+02 0.  0.
          6    2    1    2  501    0 -0.66924249166E+02  0.45643408406E+02  0.16035872264E+03  0.25156916231E+03  0.17609641575E+03 0.  0.
         24    2    5    5    0    0 -0.33170072845E+02 -0.30993725756E+02  0.13746494752E+03  0.16462774703E+03  0.78388892879E+02 0.  0.
          5    1    5    5  501    0 -0.33754176321E+02  0.76637134163E+02  0.22893775125E+02  0.86941415282E+02  0.47000000000E+01 0. -1.
        -13    1    6    6    0    0 -0.48815468391E+02  0.63091761259E+01  0.86920819232E+02  0.99889861715E+02  0.00000000000E+00 0.  1.
         14    1    6    6    0    0  0.15645395546E+02 -0.37302901882E+02  0.50544128287E+02  0.64737885314E+02  0.00000000000E+00 0. -1.
         -5    1    3    3    0  503 -0.10065725191E+02 -0.75010416891E+02 -0.96755225384E+02  0.12292902466E+03  0.47000000000E+01 0.  1.
         11    1    4    4    0    0  0.15011850253E+02 -0.62459575001E+01 -0.11344402541E+03  0.11460329198E+03  0.00000000000E+00 0. -1.
        -12    1    4    4    0    0  0.61978124104E+02  0.35612965985E+02 -0.60228002915E+02  0.93471832917E+02  0.00000000000E+00 0.  1.
</event>
<event>
12    1  0.1594900E-001  0.2215460E+03  0.7818608E-02  0.1132874E+00
         21   -1    0    0  501  502  0.00000000000E+00  0.00000000000E+00  0.14515342814E+04  0.14515342814E+04  0.00000000000E+00 0.  1.
         21   -1    0    0  502  503 -0.00000000000E+00 -0.00000000000E+00 -0.56923512467E+02  0.56923512467E+02  0.00000000000E+00 0. -1.
         -6    2    1    2    0  503 -0.13494067469E+03  0.35878254086E+02  0.21486544517E+03  0.30809048322E+03  0.17104488159E+03 0.  0.
        -24    2    3    3    0    0 -0.13657852997E+03 -0.34011749920E+01  0.10893495517E+03  0.19500239883E+03  0.86567015955E+02 0.  0.
          6    2    1    2  501    0  0.13494067469E+03 -0.35878254086E+02  0.11797453238E+04  0.12003673107E+04  0.17200702526E+03 0.  0.
         24    2    5    5    0    0  0.12336128994E+03 -0.78316475344E+02  0.10521712994E+04  0.10653402524E+04  0.80832740158E+02 0.  0.
          5    1    5    5  501    0  0.11579384746E+02  0.42438221258E+02  0.12757402435E+03  0.13502705827E+03  0.47000000000E+01 0. -1.
        -11    1    6    6    0    0  0.11282577239E+03 -0.60804712720E+02  0.64246286675E+03  0.65512243371E+03  0.00000000000E+00 0.  1.
         12    1    6    6    0    0  0.10535517549E+02 -0.17511762624E+02  0.40970843267E+03  0.41021781868E+03  0.00000000000E+00 0. -1.
         -5    1    3    3    0  503  0.16378552789E+01  0.39279429078E+02  0.10593049001E+03  0.11308808439E+03  0.47000000000E+01 0.  1.
         11    1    4    4    0    0 -0.10250715623E+03  0.28587532876E+02  0.10263029808E+03  0.14784431743E+03  0.00000000000E+00 0. -1.
        -12    1    4    4    0    0 -0.34071373743E+02 -0.31988707868E+02  0.63046570878E+01  0.47158081394E+02  0.00000000000E+00 0.  1.
</event>
<event>
12    1  0.1594900E-001  0.1795995E+03  0.7818608E-02  0.1168951E+00
         21   -1    0    0  503  502  0.00000000000E+00  0.00000000000E+00  0.52955786298E+03  0.52955786298E+03  0.00000000000E+00 0.  1.
         21   -1    0    0  501  503 -0.00000000000E+00 -0.00000000000E+00 -0.12766655325E+03  0.12766655325E+03  0.00000000000E+00 0.  1.
          6    2    1    2  501    0 -0.50026715148E+02 -0.28686591259E+02 -0.39351381300E+02  0.18083058346E+03  0.16680999957E+03 0.  0.
         24    2    3    3    0    0 -0.22336628600E+02 -0.40279176591E+02 -0.85637374481E+02  0.12546261354E+03  0.79282850889E+02 0.  0.
         -6    2    1    2    0  502  0.50026715148E+02  0.28686591259E+02  0.44124269103E+03  0.47639383278E+03  0.17008932586E+03 0.  0.
        -24    2    5    5    0    0 -0.26037135075E+02 -0.79362591056E+00  0.14539559730E+03  0.16946976173E+03  0.83075617261E+02 0.  0.
          5    1    3    3  501    0 -0.27690086548E+02  0.11592585332E+02  0.46285993181E+02  0.55367969915E+02  0.47000000000E+01 0. -1.
        -13    1    4    4    0    0 -0.29066143373E+02 -0.15129390849E+02 -0.92837553711E+02  0.98450751836E+02  0.00000000000E+00 0.  1.
         14    1    4    4    0    0  0.67295147726E+01 -0.25149785742E+02  0.72001792301E+01  0.27011861707E+02  0.00000000000E+00 0. -1.
         -5    1    5    5    0  502  0.76063850223E+02  0.29480217170E+02  0.29584709373E+03  0.30692407104E+03  0.47000000000E+01 0.  1.
         13    1    6    6    0    0 -0.36766535264E+02  0.32683056077E+02  0.63327054079E+02  0.80189002040E+02  0.00000000000E+00 0. -1.
        -14    1    6    6    0    0  0.10729400189E+02 -0.33476681988E+02  0.82068543221E+02  0.89280759695E+02  0.00000000000E+00 0.  1.
</event>
<event>
12    1  0.1594900E-001  0.3138910E+03  0.7818608E-02  0.1078903E+00
         21   -1    0    0  501  502  0.00000000000E+00  0.00000000000E+00  0.15623059077E+03  0.15623059077E+03  0.00000000000E+00 0. -1.
         21   -1    0    0  502  503 -0.00000000000E+00 -0.00000000000E+00 -0.79472014681E+03  0.79472014681E+03  0.00000000000E+00 0.  1.
         -6    2    1    2    0  503  0.21541932902E+03 -0.14937674001E+03 -0.53838273727E+03  0.62148309268E+03  0.16633209228E+03 0.  0.
        -24    2    3    3    0    0  0.10524167504E+03 -0.14844856604E+03 -0.30752163763E+03  0.36563369504E+03  0.77496157417E+02 0.  0.
          6    2    1    2  501    0 -0.21541932902E+03  0.14937674001E+03 -0.10010681877E+03  0.32946764490E+03  0.17265183491E+03 0.  0.
         24    2    5    5    0    0 -0.68845285363E+02  0.11064624201E+03 -0.92020087613E+02  0.17757463331E+03  0.77992241168E+02 0.  0.
          5    1    5    5  501    0 -0.14657404366E+03  0.38730498003E+02 -0.80867311542E+01  0.15189301159E+03  0.47000000000E+01 0. -1.
        -11    1    6    6    0    0 -0.78977434870E+02  0.97991250484E+02 -0.98798973745E+02  0.16000299248E+03  0.00000000000E+00 0.  1.
         12    1    6    6    0    0  0.10132149507E+02  0.12654991524E+02  0.67788861319E+01  0.17571640825E+02  0.00000000000E+00 0. -1.
         -5    1    3    3    0  503  0.11017765398E+03 -0.92817396874E+00 -0.23086109964E+03  0.25584939764E+03  0.47000000000E+01 0.  1.
         13    1    4    4    0    0  0.38636663202E+02 -0.94247686673E+02 -0.10820572813E+03  0.14860652000E+03  0.00000000000E+00 0. -1.
        -14    1    4    4    0    0  0.66605011839E+02 -0.54200879369E+02 -0.19931590950E+03  0.21702717504E+03  0.00000000000E+00 0.  1.
</event>
<event>
12    1  0.1594900E-001  0.3293917E+03  0.7818608E-02  0.1071473E+00
         21   -1    0    0  501  502  0.00000000000E+00  0.00000000000E+00  0.10584097493E+04  0.10584097493E+04  0.00000000000E+00 0. -1.
         21   -1    0    0  502  503 -0.00000000000E+00 -0.00000000000E+00 -0.11953609726E+03  0.11953609726E+03  0.00000000000E+00 0.  1.
         -6    2    1    2    0  503 -0.15025043418E+03 -0.23719337023E+03  0.24630856073E+03  0.41129895432E+03  0.17222959933E+03 0.  0.
        -24    2    3    3    0    0 -0.54935740408E+02 -0.97556253250E+02  0.18823896780E+03  0.23247618477E+03  0.77949402586E+02 0.  0.
          6    2    1    2  501    0  0.15025043418E+03  0.23719337023E+03  0.69256509131E+03  0.76664689225E+03  0.17107063989E+03 0.  0.
         24    2    5    5    0    0  0.30687572229E+02  0.39372538185E+02  0.15745464650E+03  0.18372868383E+03  0.80450852743E+02 0.  0.
          5    1    5    5  501    0  0.11956286195E+03  0.19782083205E+03  0.53511044482E+03  0.58291820841E+03  0.47000000000E+01 0. -1.
        -11    1    6    6    0    0  0.17720646041E+02  0.38715142469E+02  0.22512238195E+02  0.48163102278E+02  0.00000000000E+00 0.  1.
         12    1    6    6    0    0  0.12966926188E+02  0.65739571591E+00  0.13494240830E+03  0.13556558156E+03  0.00000000000E+00 0. -1.
         -5    1    3    3    0  503 -0.95314693772E+02 -0.13963711698E+03  0.58069592933E+02  0.17882276955E+03  0.47000000000E+01 0.  1.
         11    1    4    4    0    0 -0.16575410617E+02  0.60486108806E+01  0.63225423215E+02  0.65641328989E+02  0.00000000000E+00 0. -1.
        -12    1    4    4    0    0 -0.38360329791E+02 -0.10360486413E+03  0.12501354459E+03  0.16683485578E+03  0.00000000000E+00 0.  1.
</event>
<event>
12    1  0.1594900E-001  0.1897479E+03  0.7818608E-02  0.1159141E+00
         21   -1    0    0  501  502  0.00000000000E+00  0.00000000000E+00  0.92803627749E+02  0.92803627749E+02  0.00000000000E+00 0.  1.
         21   -1    0    0  502  503 -0.00000000000E+00 -0.00000000000E+00 -0.40548336901E+03  0.40548336901E+03  0.00000000000E+00 0.  1.
         -6    2    1    2    0  503  0.70849266957E+02  0.34844527635E+02 -0.21303592348E+03  0.28396678153E+03  0.17034984176E+03 0.  0.
        -24    2    3    3    0    0 -0.27351814269E+02  0.78180260802E+01 -0.12042425885E+03  0.14622465085E+03  0.77912791764E+02 0.  0.
          6    2    1    2  501    0 -0.70849266957E+02 -0.34844527635E+02 -0.99643817775E+02  0.21432021522E+03  0.17254131244E+03 0.  0.
         24    2    5    5    0    0 -0.11617256615E+03 -0.21108358076E+02 -0.97856648167E+02  0.16669493014E+03  0.65342545365E+02 0.  0.
          5    1    5    5  501    0  0.45323299197E+02 -0.13736169559E+02 -0.17871696085E+01  0.47625285085E+02  0.47000000000E+01 0. -1.
        -13    1    6    6    0    0 -0.30271150057E+02 -0.34684520246E+02 -0.20866127816E+02  0.50544572018E+02  0.00000000000E+00 0.  1.
         14    1    6    6    0    0 -0.85901416098E+02  0.13576162170E+02 -0.76990520351E+02  0.11615035812E+03  0.00000000000E+00 0. -1.
         -5    1    3    3    0  503  0.98201081226E+02  0.27026501555E+02 -0.92611664632E+02  0.13774213069E+03  0.47000000000E+01 0.  1.
         13    1    4    4    0    0 -0.48598909183E+02 -0.44629731039E+01 -0.43138201574E+02  0.65135831443E+02  0.00000000000E+00 0. -1.
        -14    1    4    4    0    0  0.21247094914E+02  0.12280999184E+02 -0.77286057276E+02  0.81088819405E+02  0.00000000000E+00 0.  1.
</event>
<event>
12    1  0.1594900E-001  0.2044410E+03  0.7818608E-02  0.1149112E+00
         21   -1    0    0  503  502  0.00000000000E+00  0.00000000000E+00  0.92153405924E+03  0.92153405924E+03  0.00000000000E+00 0.  1.
         21   -1    0    0  501  503 -0.00000000000E+00 -0.00000000000E+00 -0.87739534845E+02  0.87739534845E+02  0.00000000000E+00 0. -1.
          6    2    1    2  501    0 -0.56285495906E+02 -0.10244761259E+03  0.60846924116E+02  0.21330366551E+03  0.16772756235E+03 0.  0.
         24    2    3    3    0    0 -0.42221691999E+02 -0.13154767907E+03  0.76665306588E+02  0.17701433273E+03  0.79806275520E+02 0.  0.
         -6    2    1    2    0  502  0.56285495906E+02  0.10244761259E+03  0.77294760028E+03  0.79596992858E+03  0.14985514353E+03 0.  0.
        -24    2    5    5    0    0  0.20698313206E+02  0.62796069356E+02  0.25638857175E+03  0.27664920647E+03  0.80174292761E+02 0.  0.
          5    1    3    3  501    0 -0.14063803907E+02  0.29100066486E+02 -0.15818382472E+02  0.36289332783E+02  0.47000000000E+01 0. -1.
        -11    1    4    4    0    0  0.20841920564E+02 -0.19245743521E+02  0.27182816610E+01  0.28498655261E+02  0.00000000000E+00 0.  1.
         12    1    4    4    0    0 -0.63063612564E+02 -0.11230193555E+03  0.73947024927E+02  0.14851567747E+03  0.00000000000E+00 0. -1.
         -5    1    5    5    0  502  0.35587182700E+02  0.39651543232E+02  0.51655902853E+03  0.51932072210E+03  0.47000000000E+01 0.  1.
         13    1    6    6    0    0 -0.23396133325E+01 -0.17935766443E+02  0.28157406633E+02  0.33466476610E+02  0.00000000000E+00 0. -1.
        -14    1    6    6    0    0  0.23037926539E+02  0.80731835798E+02  0.22823116512E+03  0.24318272986E+03  0.00000000000E+00 0.  1.
</event>
<event>
12    1  0.1594900E-001  0.1809487E+03  0.7818608E-02  0.1167111E+00
         21   -1    0    0  503  502  0.00000000000E+00  0.00000000000E+00  0.20151716777E+04  0.20151716777E+04  0.00000000000E+00 0.  1.
         21   -1    0    0  501  503 -0.00000000000E+00 -0.00000000000E+00 -0.16316996170E+02  0.16316996170E+02  0.00000000000E+00 0.  1.
          6    2    1    2  501    0  0.14354555419E+02  0.50833337927E+02  0.89885859098E+03  0.91670895446E+03  0.17210014267E+03 0.  0.
         24    2    3    3    0    0  0.27451200575E+01  0.98014965207E+02  0.73314086160E+03  0.74395091334E+03  0.79705516877E+02 0.  0.
         -6    2    1    2    0  502 -0.14354555419E+02 -0.50833337927E+02  0.10999960905E+04  0.11147797194E+04  0.17306744948E+03 0.  0.
        -24    2    5    5    0    0  0.50414788551E+02 -0.52853987384E+02  0.51919906122E+03  0.53035998136E+03  0.79867701652E+02 0.  0.
          5    1    3    3  501    0  0.11609435362E+02 -0.47181627281E+02  0.16571772938E+03  0.17275804112E+03  0.47000000000E+01 0. -1.
        -11    1    4    4    0    0  0.32211591819E+02  0.39051050588E+02  0.46838993705E+03  0.47111750586E+03  0.00000000000E+00 0.  1.
         12    1    4    4    0    0 -0.29466471762E+02  0.58963914619E+02  0.26475092456E+03  0.27283340748E+03  0.00000000000E+00 0. -1.
         -5    1    5    5    0  502 -0.64769343970E+02  0.20206494577E+01  0.58079702931E+03  0.58441973803E+03  0.47000000000E+01 0.  1.
         13    1    6    6    0    0  0.63910564573E+01  0.12741607224E+02  0.23365342187E+03  0.23408783759E+03  0.00000000000E+00 0. -1.
        -14    1    6    6    0    0  0.44023732094E+02 -0.65595594608E+02  0.28554563936E+03  0.29627214377E+03  0.00000000000E+00 0.  1.
</event>
<event>
12    1  0.1594900E-001  0.2245095E+03  0.7818608E-02  0.1130842E+00
         21   -1    0    0  503  502  0.00000000000E+00  0.00000000000E+00  0.36960138109E+03  0.36960138109E+03  0.00000000000E+00 0. -1.
         21   -1    0    0  501  503 -0.00000000000E+00 -0.00000000000E+00 -0.14408018936E+03  0.14408018936E+03  0.00000000000E+00 0. -1.
          6    2    1    2  501    0 -0.44961892441E+02 -0.13323322605E+03  0.17596987055E+03  0.28525413188E+03  0.17501959924E+03 0.  0.
         24    2    3    3    0    0 -0.33603600139E+02 -0.11927291262E+03  0.20452124015E+03  0.25117815998E+03  0.76852460939E+02 0.  0.
         -6    2    1    2    0  502  0.44961892441E+02  0.13323322605E+03  0.49551321178E+02  0.22842743856E+03  0.17306385227E+03 0.  0.
        -24    2    5    5    0    0 -0.19226819461E+02  0.36967715211E+02 -0.19318334012E+02  0.93696748967E+02  0.81667620165E+02 0.  0.
          5    1    3    3  501    0 -0.11358292302E+02 -0.13960313436E+02 -0.28551369600E+02  0.34075971905E+02  0.47000000000E+01 0. -1.
        -11    1    4    4    0    0 -0.56687178251E+02 -0.87230017572E+02  0.12693036321E+03  0.16411529255E+03  0.00000000000E+00 0.  1.
         12    1    4    4    0    0  0.23083578112E+02 -0.32042895045E+02  0.77590876933E+02  0.87062867427E+02  0.00000000000E+00 0. -1.
         -5    1    5    5    0  502  0.64188711902E+02  0.96265510842E+02  0.68869655190E+02  0.13473068960E+03  0.47000000000E+01 0.  1.
         13    1    6    6    0    0  0.21040350571E+02  0.44121730682E+02 -0.19945052914E+02  0.52794209970E+02  0.00000000000E+00 0. -1.
        -14    1    6    6    0    0 -0.40267170033E+02 -0.71540154719E+01  0.62671890195E+00  0.40902538997E+02  0.00000000000E+00 0.  1.
</event>
<event>
12    1  0.1594900E-001  0.1746851E+03  0.7818608E-02  0.1173104E+00
         21   -1    0    0  501  502  0.00000000000E+00  0.00000000000E+00  0.69537183426E+03  0.69537183426E+03  0.00000000000E+00 0. -1.
         21   -1    0    0  502  503 -0.00000000000E+00 -0.00000000000E+00 -0.45658215672E+02  0.45658215672E+02  0.00000000000E+00 0. -1.
         -6    2    1    2    0  503  0.26450431721E+02 -0.13739326758E+02  0.25086283719E+03  0.30569109095E+03  0.17212346024E+03 0.  0.
        -24    2    3    3    0    0 -0.45710017195E+02  0.18603834784E+02  0.16448589900E+03  0.18848923116E+03  0.77698590423E+02 0.  0.
          6    2    1    2  501    0 -0.26450431721E+02  0.13739326758E+02  0.39885078139E+03  0.43533895898E+03  0.17190017146E+03 0.  0.
         24    2    5    5    0    0 -0.55499555923E+02  0.53583236244E+02  0.18566763037E+03  0.21647705133E+03  0.80240145007E+02 0.  0.
          5    1    5    5  501    0  0.29049124203E+02 -0.39843909486E+02  0.21318315102E+03  0.21886190765E+03  0.47000000000E+01 0. -1.
        -13    1    6    6    0    0  0.10677346569E+02  0.24384356576E+02  0.13746602289E+02  0.29959500160E+02  0.00000000000E+00 0.  1.
         14    1    6    6    0    0 -0.66176902492E+02  0.29198879668E+02  0.17192102808E+03  0.18651755117E+03  0.00000000000E+00 0. -1.
         -5    1    3    3    0  503  0.72160448915E+02 -0.32343161542E+02  0.86376938189E+02  0.11720185979E+03  0.47000000000E+01 0.  1.
         13    1    4    4    0    0 -0.30911407357E+02  0.30154160365E+02  0.29719714609E+02  0.52421845909E+02  0.00000000000E+00 0. -1.
        -14    1    4    4    0    0 -0.14798609838E+02 -0.11550325580E+02  0.13476618439E+03  0.13606738526E+03  0.00000000000E+00 0.  1.
</event>
<event>
12    1  0.1594900E-001  0.3315397E+03  0.7818608E-02  0.1070584E+00
         21   -1    0    0  503  502  0.00000000000E+00  0.00000000000E+00  0.10558196610E+03  0.10558196610E+03  0.00000000000E+00 0.  1.
         21   -1    0    0  501  503 -0.00000000000E+00 -0.00000000000E+00 -0.12926322951E+04  0.12926322951E+04  0.00000000000E+00 0. -1.
          6    2    1    2  501    0  0.45602069282E+02 -0.27874907676E+03 -0.90330497533E+03  0.96183142203E+03  0.17140364476E+03 0.  0.
         24    2    3    3    0    0 -0.33354929900E+02 -0.14125502666E+03 -0.55858665512E+03  0.58236912902E+03  0.77905181138E+02 0.  0.
         -6    2    1    2    0  502 -0.45602069282E+02  0.27874907676E+03 -0.28374535365E+03  0.43638283916E+03  0.17360288038E+03 0.  0.
        -24    2    5    5    0    0 -0.10533822945E+02  0.95216417597E+02 -0.49405504474E+02  0.13663081866E+03  0.83963975190E+02 0.  0.
          5    1    3    3  501    0  0.78956999182E+02 -0.13749405010E+03 -0.34471832020E+03  0.37946229301E+03  0.47000000000E+01 0. -1.
        -11    1    4    4    0    0 -0.21735225454E+02 -0.13494817924E+02 -0.19790937094E+03  0.19955613056E+03  0.00000000000E+00 0.  1.
         12    1    4    4    0    0 -0.11619704446E+02 -0.12776020873E+03 -0.36067728418E+03  0.38281299846E+03  0.00000000000E+00 0. -1.
         -5    1    5    5    0  502 -0.35068246337E+02  0.18353265916E+03 -0.23433984918E+03  0.29975202050E+03  0.47000000000E+01 0.  1.
         13    1    6    6    0    0 -0.79209592201E+01  0.13013823576E+02 -0.52161237134E+02  0.54340554455E+02  0.00000000000E+00 0. -1.
        -14    1    6    6    0    0 -0.26128637251E+01  0.82202594021E+02  0.27557326601E+01  0.82290264207E+02  0.00000000000E+00 0.  1.
</event>
<event>
12    1  0.1594900E-001  0.3855279E+03  0.7818608E-02  0.1049004E+00
         21   -1    0    0  501  502  0.00000000000E+00  0.00000000000E+00  0.15625413596E+04  0.15625413596E+04  0.00000000000E+00 0. -1.
         21   -1    0    0  502  503 -0.00000000000E+00 -0.00000000000E+00 -0.15692700190E+03  0.15692700190E+03  0.00000000000E+00 0.  1.
         -6    2    1    2    0  503  0.15753541024E+03  0.30555240321E+03  0.16156925817E+03  0.41705522085E+03  0.17219394725E+03 0.  0.
        -24    2    3    3    0    0  0.18118752604E+03  0.27111316424E+03  0.11431537766E+03  0.35380569133E+03  0.76021011746E+02 0.  0.
          6    2    1    2  501    0 -0.15753541024E+03 -0.30555240321E+03  0.12440450995E+04  0.13024131406E+04  0.17450530846E+03 0.  0.
         24    2    5    5    0    0 -0.28550225969E+02 -0.10778885198E+03  0.30372207310E+03  0.33288898727E+03  0.78322590231E+02 0.  0.
          5    1    5    5  501    0 -0.12898518428E+03 -0.19776355123E+03  0.94032302641E+03  0.96952415336E+03  0.47000000000E+01 0. -1.
        -13    1    6    6    0    0  0.56089357222E+01 -0.10110998706E+03  0.21809229234E+03  0.24045568744E+03  0.00000000000E+00 0.  1.
         14    1    6    6    0    0 -0.34159161691E+02 -0.66788649219E+01  0.85629780757E+02  0.92433299825E+02  0.00000000000E+00 0. -1.
         -5    1    3    3    0  503 -0.23652115800E+02  0.34439238970E+02  0.47253880504E+02  0.63249529527E+02  0.47000000000E+01 0.  1.
         13    1    4    4    0    0  0.31841215886E+01  0.12325411898E+01  0.15314387697E+02  0.15690387458E+02  0.00000000000E+00 0. -1.
        -14    1    4    4    0    0  0.17800340446E+03  0.26988062305E+03  0.99000989964E+02  0.33811530387E+03  0.00000000000E+00 0.  1.
</event>
<event>
12    1  0.1594900E-001  0.1823883E+03  0.7818608E-02  0.1165684E+00
         21   -1    0    0  501  502  0.00000000000E+00  0.00000000000E+00  0.63650101215E+03  0.63650101215E+03  0.00000000000E+00 0. -1.
         21   -1    0    0  502  503 -0.00000000000E+00 -0.00000000000E+00 -0.62361715246E+02  0.62361715246E+02  0.00000000000E+00 0. -1.
         -6    2    1    2    0  503  0.57401983051E+02 -0.17284851690E+02  0.14453823226E+03  0.23214808870E+03  0.17148667804E+03 0.  0.
        -24    2    3    3    0    0  0.89056908721E+02  0.26508875425E+02  0.73674138840E+02  0.14290832968E+03  0.79756244212E+02 0.  0.
          6    2    1    2  501    0 -0.57401983051E+02  0.17284851690E+02  0.42960106464E+03  0.46671463869E+03  0.17225482714E+03 0.  0.
         24    2    5    5    0    0 -0.39240103510E+02  0.38225981313E+02  0.11581247051E+03  0.15166899663E+03  0.81178475237E+02 0.  0.
          5    1    5    5  501    0 -0.18161879541E+02 -0.20941129623E+02  0.31378859413E+03  0.31504564206E+03  0.47000000000E+01 0. -1.
        -13    1    6    6    0    0  0.20233192245E+02  0.25513442843E+02  0.63861503162E+02  0.71684094612E+02  0.00000000000E+00 0.  1.
         14    1    6    6    0    0 -0.59473295755E+02  0.12712538470E+02  0.51950967351E+02  0.79984902019E+02  0.00000000000E+00 0. -1.
         -5    1    3    3    0  503 -0.31654925670E+02 -0.43793727115E+02  0.70864093424E+02  0.89239759023E+02  0.47000000000E+01 0.  1.
         11    1    4    4    0    0  0.44232371121E+02  0.47766225769E+02  0.66007535418E+02  0.92709814535E+02  0.00000000000E+00 0. -1.
        -12    1    4    4    0    0  0.44824537599E+02 -0.21257350344E+02  0.76666034221E+01  0.50198515144E+02  0.00000000000E+00 0.  1.
</event>
<event>
12    1  0.1594900E-001  0.1943423E+03  0.7818608E-02  0.1155171E+00
         21   -1    0    0  503  502  0.00000000000E+00  0.00000000000E+00  0.16287772502E+03  0.16287772502E+03  0.00000000000E+00 0.  1.
         21   -1    0    0  501  503 -0.00000000000E+00 -0.00000000000E+00 -0.62631227375E+03  0.62631227375E+03  0.00000000000E+00 0.  1.
          6    2    1    2  501    0 -0.47616299782E+02 -0.72519138699E+02 -0.54550571657E+03  0.57822882192E+03  0.17101387721E+03 0.  0.
         24    2    3    3    0    0 -0.33637072560E+01  0.17102289684E+02 -0.34637937494E+03  0.35537532227E+03  0.77518678126E+02 0.  0.
         -6    2    1    2    0  502  0.47616299782E+02  0.72519138699E+02  0.82071167839E+02  0.21096117686E+03  0.17390400820E+03 0.  0.
        -24    2    5    5    0    0 -0.28321825526E+02  0.43385645782E+02 -0.79856160402E+00  0.94750844516E+02  0.79326192237E+02 0.  0.
          5    1    3    3  501    0 -0.44252592526E+02 -0.89621428383E+02 -0.19912634163E+03  0.22285349964E+03  0.47000000000E+01 0. -1.
        -11    1    4    4    0    0 -0.10674504990E+02 -0.27138173320E+02 -0.77947831264E+02  0.83224334822E+02  0.00000000000E+00 0.  1.
         12    1    4    4    0    0  0.73107977338E+01  0.44240463004E+02 -0.26843154367E+03  0.27215098745E+03  0.00000000000E+00 0. -1.
         -5    1    5    5    0  502  0.75938125308E+02  0.29133492917E+02  0.82869729443E+02  0.11621033234E+03  0.47000000000E+01 0.  1.
         11    1    6    6    0    0 -0.58452528000E+01 -0.22645908958E+02 -0.77848275501E+01  0.24649700055E+02  0.00000000000E+00 0. -1.
        -12    1    6    6    0    0 -0.22476572726E+02  0.66031554740E+02  0.69862659461E+01  0.70101144461E+02  0.00000000000E+00 0.  1.
</event>
<event>
12    1  0.1594900E-001  0.2045552E+03  0.7818608E-02  0.1146102E+00
         21   -1    0    0  503  502  0.00000000000E+00  0.00000000000E+00  0.41537722445E+03  0.41537722445E+03  0.00000000000E+00 0.  1.
         21   -1    0    0  501  503 -0.00000000000E+00 -0.00000000000E+00 -0.34977776634E+03  0.34977776634E+03  0.00000000000E+00 0.  1.
          6    2    1    2  501    0 -0.59726203230E+01 -0.11081903561E+03 -0.29027141019E+03  0.35468342319E+03  0.17095703631E+03 0.  0.
         24    2    3    3    0    0  0.32177619903E+02 -0.13072039519E+03 -0.25350385138E+03  0.29789039260E+03  0.79694807861E+02 0.  0.
         -6    2    1    2    0  502  0.59726203230E+01  0.11081903561E+03  0.35587086830E+03  0.41047156759E+03  0.17183219155E+03 0.  0.
        -24    2    5    5    0    0 -0.45253907974E+02  0.20046837741E+02  0.22818447585E+03  0.24557871170E+03  0.76098335936E+02 0.  0.
          5    1    3    3  501    0 -0.38150240226E+02  0.19901359578E+02 -0.36767558808E+02  0.56793030585E+02  0.47000000000E+01 0. -1.
        -11    1    4    4    0    0 -0.17261542400E+02 -0.88410914451E+02 -0.16569892943E+03  0.18860165921E+03  0.00000000000E+00 0.  1.
         12    1    4    4    0    0  0.49439162303E+02 -0.42309480736E+02 -0.87804921949E+02  0.10928873340E+03  0.00000000000E+00 0. -1.
         -5    1    5    5    0  502  0.51226528297E+02  0.90772197868E+02  0.12768639245E+03  0.16489285589E+03  0.47000000000E+01 0.  1.
         13    1    6    6    0    0 -0.41107723084E+02 -0.23134601711E+02  0.11015368021E+03  0.11982857738E+03  0.00000000000E+00 0. -1.
        -14    1    6    6    0    0 -0.41461848900E+01  0.43181439452E+02  0.11803079565E+03  0.12575013433E+03  0.00000000000E+00 0.  1.
</event>
<event>
12    1  0.1594900E-001  0.1909586E+03  0.7818608E-02  0.1157756E+00
         21   -1    0    0  503  502  0.00000000000E+00  0.00000000000E+00  0.25227720045E+02  0.25227720045E+02  0.00000000000E+00 0.  1.
         21   -1    0    0  501  503 -0.00000000000E+00 -0.00000000000E+00 -0.17223741211E+04  0.17223741211E+04  0.00000000000E+00 0. -1.
          6    2    1    2  501    0 -0.51449538912E+02  0.64830971507E+02 -0.12009750032E+04  0.12159522994E+04  0.17131528297E+03 0.  0.
         24    2    3    3    0    0 -0.86299316433E+02  0.82491647711E+02 -0.77612217384E+03  0.78928097028E+03  0.79664153534E+02 0.  0.
         -6    2    1    2    0  502  0.51449538912E+02 -0.64830971507E+02 -0.49617139784E+03  0.53164954173E+03  0.17209029394E+03 0.  0.
        -24    2    5    5    0    0 -0.63360269605E+01 -0.97150487314E+02 -0.34702544566E+03  0.36840026064E+03  0.76247817553E+02 0.  0.
          5    1    3    3  501    0  0.34849777520E+02 -0.17660676204E+02 -0.42485282939E+03  0.42667132915E+03  0.47000000000E+01 0. -1.
        -13    1    4    4    0    0 -0.88295740394E+02  0.57076525522E+02 -0.72005266104E+03  0.72768791539E+03  0.00000000000E+00 0.  1.
         14    1    4    4    0    0  0.19964239613E+01  0.25415122190E+02 -0.56069512802E+02  0.61593054887E+02  0.00000000000E+00 0. -1.
         -5    1    5    5    0  502  0.57785565873E+02  0.32319515807E+02 -0.14914595218E+03  0.16324928109E+03  0.47000000000E+01 0.  1.
         13    1    6    6    0    0  0.31879150083E+02 -0.47664238246E+02 -0.21170496045E+03  0.21933342221E+03  0.00000000000E+00 0. -1.
        -14    1    6    6    0    0 -0.38215177044E+02 -0.49486249068E+02 -0.13532048521E+03  0.14906683843E+03  0.00000000000E+00 0.  1.
</event>
<event>
12    1  0.1594900E-001  0.3770118E+03  0.7818608E-02  0.1052166E+00
         21   -1    0    0  503  502  0.00000000000E+00  0.00000000000E+00  0.50835553569E+03  0.50835553569E+03  0.00000000000E+00 0.  1.
         21   -1    0    0  501  503 -0.00000000000E+00 -0.00000000000E+00 -0.27989643249E+03  0.27989643249E+03  0.00000000000E+00 0. -1.
          6    2    1    2  501    0 -0.23717483775E+03  0.23801863742E+03  0.14053039879E+03  0.40112232910E+03  0.16806413805E+03 0.  0.
         24    2    3    3    0    0 -0.37308905873E+02  0.57731301799E+02  0.18572582212E+02  0.10557924741E+03  0.77956263437E+02 0.  0.
         -6    2    1    2    0  502  0.23717483775E+03 -0.23801863742E+03  0.87928704410E+02  0.38712963908E+03  0.17097697205E+03 0.  0.
        -24    2    5    5    0    0  0.20724582819E+03 -0.23456180561E+03  0.33397993719E+02  0.32465257362E+03  0.79459383479E+02 0.  0.
          5    1    3    3  501    0 -0.19986593188E+03  0.18028733562E+03  0.12195781658E+03  0.29554308169E+03  0.47000000000E+01 0. -1.
        -11    1    4    4    0    0 -0.91146705029E+01  0.12265482798E+02  0.43830706671E+02  0.46418209077E+02  0.00000000000E+00 0.  1.
         12    1    4    4    0    0 -0.28194235370E+02  0.45465819002E+02 -0.25258124460E+02  0.59161038334E+02  0.00000000000E+00 0. -1.
         -5    1    5    5    0  502  0.29929009562E+02 -0.34568318104E+01  0.54530710691E+02  0.62477065456E+02  0.47000000000E+01 0.  1.
         11    1    6    6    0    0  0.28562599008E+02 -0.80890687073E+02 -0.47209048761E+01  0.85915145697E+02  0.00000000000E+00 0. -1.
        -12    1    6    6    0    0  0.17868322918E+03 -0.15367111854E+03  0.38118898595E+02  0.23873742793E+03  0.00000000000E+00 0.  1.
</event>
<event>
12    1  0.1594900E-001  0.2320776E+03  0.7818608E-02  0.1125355E+00
         21   -1    0    0  501  502  0.00000000000E+00  0.00000000000E+00  0.26325913871E+03  0.26325913871E+03  0.00000000000E+00 0. -1.
         21   -1    0    0  502  503 -0.00000000000E+00 -0.00000000000E+00 -0.22066911582E+03  0.22066911582E+03  0.00000000000E+00 0. -1.
         -6    2    1    2    0  503  0.14395154038E+03 -0.59729225924E+02 -0.45691704999E+02  0.23653273334E+03  0.17196038971E+03 0.  0.
        -24    2    3    3    0    0  0.14610347366E+01 -0.68765163173E+01 -0.29324423814E+02  0.83604871246E+02  0.77977122061E+02 0.  0.
          6    2    1    2  501    0 -0.14395154038E+03  0.59729225924E+02  0.88281727893E+02  0.24739552119E+03  0.17064950635E+03 0.  0.
         24    2    5    5    0    0 -0.61643097635E+02 -0.18818422381E+02  0.79747292712E+02  0.13320559437E+03  0.85029966311E+02 0.  0.
          5    1    5    5  501    0 -0.82308442749E+02  0.78547648305E+02  0.85344351812E+01  0.11418992681E+03  0.47000000000E+01 0. -1.
        -11    1    6    6    0    0 -0.46813762913E+01  0.22259199251E+02 -0.48494431540E+01  0.23257350111E+02  0.00000000000E+00 0.  1.
         12    1    6    6    0    0 -0.56961721344E+02 -0.41077621632E+02  0.84596735866E+02  0.10994824426E+03  0.00000000000E+00 0. -1.
         -5    1    3    3    0  503  0.14249050565E+03 -0.52852709607E+02 -0.16367281185E+02  0.15292786210E+03  0.47000000000E+01 0.  1.
         13    1    4    4    0    0  0.26173324252E+02  0.43928002318E+01 -0.45001679561E+02  0.52244528513E+02  0.00000000000E+00 0. -1.
        -14    1    4    4    0    0 -0.24712289515E+02 -0.11269316549E+02  0.15677255747E+02  0.31360342733E+02  0.00000000000E+00 0.  1.
</event>
<event>
12    1  0.1594900E-001  0.1725742E+03  0.7818608E-02  0.1175594E+00
         21   -1    0    0  503  502  0.00000000000E+00  0.00000000000E+00  0.25769396229E+04  0.25769396229E+04  0.00000000000E+00 0.  1.
         21   -1    0    0  501  503 -0.00000000000E+00 -0.00000000000E+00 -0.33736195250E+02  0.33736195250E+02  0.00000000000E+00 0.  1.
          6    2    1    2  501    0 -0.37009929792E+01 -0.17435502948E+01  0.20872690807E+03  0.26982928894E+03  0.17095082831E+03 0.  0.
         24    2    3    3    0    0 -0.25014187050E+02 -0.63278730680E+02  0.13578704659E+03  0.17193575463E+03  0.80584579093E+02 0.  0.
         -6    2    1    2    0  502  0.37009929792E+01  0.17435502948E+01  0.23344765196E+04  0.23408465292E+04  0.17252569534E+03 0.  0.
        -24    2    5    5    0    0  0.67617001328E+02 -0.15452715467E+02  0.13497019285E+04  0.13538389036E+04  0.79835054744E+02 0.  0.
          5    1    3    3  501    0  0.21313194070E+02  0.61535180385E+02  0.72939861480E+02  0.97893534308E+02  0.47000000000E+01 0. -1.
        -11    1    4    4    0    0 -0.51488274338E+01  0.52585353913E+01  0.82623530059E+02  0.82950650014E+02  0.00000000000E+00 0.  1.
         12    1    4    4    0    0 -0.19865359616E+02 -0.68537266071E+02  0.53163516534E+02  0.88985104615E+02  0.00000000000E+00 0. -1.
         -5    1    5    5    0  502 -0.63916008348E+02  0.17196265762E+02  0.98477459110E+03  0.98700762558E+03  0.47000000000E+01 0.  1.
         13    1    6    6    0    0 -0.61830813252E+01 -0.24709508754E+02  0.18241935751E+03  0.18418906675E+03  0.00000000000E+00 0. -1.
        -14    1    6    6    0    0  0.73800082653E+02  0.92567932869E+01  0.11672825710E+04  0.11696498369E+04  0.00000000000E+00 0.  1.
</event>
<event>
12    1  0.1594900E-001  0.1885745E+03  0.7818608E-02  0.1160052E+00
         21   -1    0    0  503  502  0.00000000000E+00  0.00000000000E+00  0.67972279718E+02  0.67972279718E+02  0.00000000000E+00 0.  1.
         21   -1    0    0  501  503 -0.00000000000E+00 -0.00000000000E+00 -0.52002935902E+03  0.52002935902E+03  0.00000000000E+00 0.  1.
          6    2    1    2  501    0 -0.38154279401E+02  0.67035546322E+02 -0.21784536746E+03  0.28812661398E+03  0.17207797085E+03 0.  0.
         24    2    3    3    0    0 -0.54934257350E+02  0.84013011582E+02 -0.87209030868E+02  0.15524416809E+03  0.80121020440E+02 0.  0.
         -6    2    1    2    0  502  0.38154279401E+02 -0.67035546322E+02 -0.23421171184E+03  0.29987502476E+03  0.17064697771E+03 0.  0.
        -24    2    5    5    0    0 -0.37461485036E+02 -0.58055245907E+02 -0.96699751621E+02  0.14261721468E+03  0.78835610740E+02 0.  0.
          5    1    3    3  501    0  0.16779977949E+02 -0.16977465260E+02 -0.13063633660E+03  0.13288244589E+03  0.47000000000E+01 0. -1.
        -13    1    4    4    0    0 -0.46472853591E+02  0.35625889212E+01 -0.23059092050E+02  0.52001345049E+02  0.00000000000E+00 0.  1.
         14    1    4    4    0    0 -0.84614037591E+01  0.80450422661E+02 -0.64149938818E+02  0.10324282304E+03  0.00000000000E+00 0. -1.
         -5    1    5    5    0  502  0.75615764437E+02 -0.89803004147E+01 -0.13751196022E+03  0.15725781008E+03  0.47000000000E+01 0.  1.
         13    1    6    6    0    0 -0.44054556008E+02  0.14521894520E+01 -0.50229135740E+02  0.66827231249E+02  0.00000000000E+00 0. -1.
        -14    1    6    6    0    0  0.65930709716E+01 -0.59507435359E+02 -0.46470615881E+02  0.75789983429E+02  0.00000000000E+00 0.  1.
</event>
<event>
12    1  0.1594900E-001  0.3432834E+03  0.7818608E-02  0.1065723E+00
         21   -1    0    0  501  502  0.00000000000E+00  0.00000000000E+00  0.36192568553E+03  0.36192568553E+03  0.00000000000E+00 0.  1.
         21   -1    0    0  502  503 -0.00000000000E+00 -0.00000000000E+00 -0.34716307360E+03  0.34716307360E+03  0.00000000000E+00 0. -1.
         -6    2    1    2    0  503  0.29071049945E+03 -0.33401923566E+02 -0.86581592263E+02  0.35403374921E+03  0.17948604533E+03 0.  0.
        -24    2    3    3    0    0  0.26398972701E+03  0.86349311096E+01 -0.27272343633E+02  0.27644010382E+03  0.76877904967E+02 0.  0.
          6    2    1    2  501    0 -0.29071049945E+03  0.33401923566E+02  0.10134420419E+03  0.35505500993E+03  0.17368111401E+03 0.  0.
         24    2    5    5    0    0 -0.19381643970E+03 -0.16856679344E+02  0.41847388489E+01  0.20884817805E+03  0.75835938057E+02 0.  0.
          5    1    5    5  501    0 -0.96894059758E+02  0.50258602910E+02  0.97159465340E+02  0.14620683188E+03  0.47000000000E+01 0. -1.
        -11    1    6    6    0    0 -0.14386605423E+03  0.19085470874E+02  0.16593165516E+02  0.14607200245E+03  0.00000000000E+00 0.  1.
         12    1    6    6    0    0 -0.49950385463E+02 -0.35942150218E+02 -0.12408426667E+02  0.62776175597E+02  0.00000000000E+00 0. -1.
         -5    1    3    3    0  503  0.26720772444E+02 -0.42036854675E+02 -0.59309248629E+02  0.77593645384E+02  0.47000000000E+01 0.  1.
         11    1    4    4    0    0  0.83875518895E+02 -0.11453949040E+02  0.24193185248E+02  0.88043204343E+02  0.00000000000E+00 0. -1.
        -12    1    4    4    0    0  0.18011420811E+03  0.20088880150E+02 -0.51465528881E+02  0.18839689948E+03  0.00000000000E+00 0.  1.
</event>
<event>
12    1  0.1594900E-001  0.2041946E+03  0.7818608E-02  0.1146949E+00
         21   -1    0    0  503  502  0.00000000000E+00  0.00000000000E+00  0.19641058969E+03  0.19641058969E+03  0.00000000000E+00 0.  1.
         21   -1    0    0  501  503 -0.00000000000E+00 -0.00000000000E+00 -0.53329119650E+03  0.53329119650E+03  0.00000000000E+00 0. -1.
          6    2    1    2  501    0 -0.84719711407E+02  0.73323699297E+02 -0.45359679574E+03  0.49743893569E+03  0.17070924772E+03 0.  0.
         24    2    3    3    0    0 -0.84184943589E+02  0.39115332267E+02 -0.15754061657E+03  0.19937543646E+03  0.79463229530E+02 0.  0.
         -6    2    1    2    0  502  0.84719711407E+02 -0.73323699297E+02  0.11671618893E+03  0.23226285050E+03  0.16664203726E+03 0.  0.
        -24    2    5    5    0    0  0.49980404512E+02 -0.36779935852E+02 -0.69079924060E+01  0.98669084543E+02  0.76400676496E+02 0.  0.
          5    1    3    3  501    0 -0.53476781816E+00  0.34208367030E+02 -0.29605617917E+03  0.29806349923E+03  0.47000000000E+01 0. -1.
        -13    1    4    4    0    0 -0.49379498912E+01  0.12613086519E+02  0.66912390821E+01  0.15107811923E+02  0.00000000000E+00 0.  1.
         14    1    4    4    0    0 -0.79246993698E+02  0.26502245748E+02 -0.16423185566E+03  0.18426762454E+03  0.00000000000E+00 0. -1.
         -5    1    5    5    0  502  0.34739306895E+02 -0.36543763445E+02  0.12362418134E+03  0.13359376595E+03  0.47000000000E+01 0.  1.
         11    1    6    6    0    0  0.68062105009E+02 -0.41484706232E+02 -0.66239158365E+01  0.79983168545E+02  0.00000000000E+00 0. -1.
        -12    1    6    6    0    0 -0.18081700497E+02  0.47047703806E+01 -0.28407656952E+00  0.18685915998E+02  0.00000000000E+00 0.  1.
</event>
<event>
12    1  0.1594900E-001  0.1776932E+03  0.7818608E-02  0.1170055E+00
         21   -1    0    0  501  502  0.00000000000E+00  0.00000000000E+00  0.21509479663E+03  0.21509479663E+03  0.00000000000E+00 0. -1.
         21   -1    0    0  502  503 -0.00000000000E+00 -0.00000000000E+00 -0.14713471369E+03  0.14713471369E+03  0.00000000000E+00 0. -1.
         -6    2    1    2    0  503 -0.29296476803E+02 -0.30315527614E+02  0.42701200730E+02  0.18275195652E+03  0.17261972744E+03 0.  0.
        -24    2    3    3    0    0 -0.84917612464E+02 -0.22514541014E+02  0.44742027666E+02  0.12635318793E+03  0.79027676142E+02 0.  0.
          6    2    1    2  501    0  0.29296476803E+02  0.30315527614E+02  0.25258882211E+02  0.17947755380E+03  0.17261768860E+03 0.  0.
         24    2    5    5    0    0 -0.19389908464E+02  0.66463607384E+02 -0.16450866916E+02  0.10572905582E+03  0.78196052111E+02 0.  0.
          5    1    5    5  501    0  0.48686385268E+02 -0.36148079770E+02  0.41709749127E+02  0.73748497976E+02  0.47000000000E+01 0. -1.
        -11    1    6    6    0    0 -0.10209868450E+00 -0.14051406759E+02  0.11695829750E+02  0.18282365536E+02  0.00000000000E+00 0.  1.
         12    1    6    6    0    0 -0.19287809780E+02  0.80515014143E+02 -0.28146696666E+02  0.87446690285E+02  0.00000000000E+00 0. -1.
         -5    1    3    3    0  503  0.55621135661E+02 -0.78009866003E+01 -0.20408269361E+01  0.56398768592E+02  0.47000000000E+01 0.  1.
         13    1    4    4    0    0 -0.65852118874E+02  0.20203909842E+02  0.39176756215E+02  0.79243408310E+02  0.00000000000E+00 0. -1.
        -14    1    4    4    0    0 -0.19065493590E+02 -0.42718450856E+02  0.55652714508E+01  0.47109779618E+02  0.00000000000E+00 0.  1.
</event>
<event>
12    1  0.1594900E-001  0.1963188E+03  0.7818608E-02  0.1153371E+00
         21   -1    0    0  501  502  0.00000000000E+00  0.00000000000E+00  0.82106484871E+03  0.82106484871E+03  0.00000000000E+00 0. -1.
         21   -1    0    0  502  503 -0.00000000000E+00 -0.00000000000E+00 -0.49446960890E+03  0.49446960890E+03  0.00000000000E+00 0.  1.
         -6    2    1    2    0  503  0.81959453578E+02 -0.48304636313E+02 -0.46275508332E+03  0.50267619252E+03  0.17172768404E+03 0.  0.
        -24    2    3    3    0    0  0.85346770308E+02 -0.64252528792E+02 -0.20529313623E+03  0.24465574102E+03  0.79364357081E+02 0.  0.
          6    2    1    2  501    0 -0.81959453578E+02  0.48304636313E+02  0.78935032313E+03  0.81285826509E+03  0.16915654458E+03 0.  0.
         24    2    5    5    0    0 -0.33978326640E+02 -0.29061838494E+02  0.53155038096E+03  0.53941602228E+03  0.80154353965E+02 0.  0.
          5    1    5    5  501    0 -0.47981126937E+02  0.77366474807E+02  0.25779994218E+03  0.27344224281E+03  0.47000000000E+01 0. -1.
        -13    1    6    6    0    0  0.13436448431E+02 -0.15720992263E+01  0.33758820958E+03  0.33785915540E+03  0.00000000000E+00 0.  1.
         14    1    6    6    0    0 -0.47414775072E+02 -0.27489739267E+02  0.19396217138E+03  0.20155686688E+03  0.00000000000E+00 0. -1.
         -5    1    3    3    0  503 -0.33873167298E+01  0.15947892479E+02 -0.25746194709E+03  0.25802045150E+03  0.47000000000E+01 0.  1.
         11    1    4    4    0    0  0.66916541063E+02 -0.82924618225E+02 -0.17090652513E+03  0.20140346598E+03  0.00000000000E+00 0. -1.
        -12    1    4    4    0    0  0.18430229245E+02  0.18672089433E+02 -0.34386611095E+02  0.43252275043E+02  0.00000000000E+00 0.  1.
</event>
<event>
12    1  0.1594900E-001  0.2696703E+03  0.7818608E-02  0.1101750E+00
         21   -1    0    0  503  502  0.00000000000E+00  0.00000000000E+00  0.95317116360E+03  0.95317116360E+03  0.00000000000E+00 0.  1.
         21   -1    0    0  501  503 -0.00000000000E+00 -0.00000000000E+00 -0.35557752637E+03  0.35557752637E+03  0.00000000000E+00 0. -1.
          6    2    1    2  501    0  0.20300460570E+03  0.33518947733E+02 -0.28148200584E+03  0.38981301988E+03  0.17432062719E+03 0.  0.
         24    2    3    3    0    0  0.18383995536E+03  0.81633869306E+02 -0.23589078281E+03  0.32065393431E+03  0.81934524865E+02 0.  0.
         -6    2    1    2    0  502 -0.20300460570E+03 -0.33518947733E+02  0.87907564307E+03  0.91893567008E+03  0.17127285167E+03 0.  0.
        -24    2    5    5    0    0 -0.83224541392E+02 -0.75988244633E+02  0.44798887812E+03  0.46948178602E+03  0.83776935204E+02 0.  0.
          5    1    3    3  501    0  0.19164650341E+02 -0.48114921573E+02 -0.45591223027E+02  0.69159085577E+02  0.47000000000E+01 0. -1.
        -11    1    4    4    0    0  0.52370735817E+02  0.17415621018E+02 -0.17725087323E+02  0.57967029819E+02  0.00000000000E+00 0.  1.
         12    1    4    4    0    0  0.13146921955E+03  0.64218248288E+02 -0.21816569549E+03  0.26268690449E+03  0.00000000000E+00 0. -1.
         -5    1    5    5    0  502 -0.11978006431E+03  0.42469296901E+02  0.43108676495E+03  0.44945388406E+03  0.47000000000E+01 0.  1.
         11    1    6    6    0    0 -0.49675004080E+02 -0.64480086437E+02  0.40795588248E+03  0.41599674233E+03  0.00000000000E+00 0. -1.
        -12    1    6    6    0    0 -0.33549537311E+02 -0.11508158196E+02  0.40032995645E+02  0.53485043696E+02  0.00000000000E+00 0.  1.
</event>
<event>
12    1  0.1594900E-001  0.1799086E+03  0.7818608E-02  0.1168039E+00
         21   -1    0    0  503  502  0.00000000000E+00  0.00000000000E+00  0.26491018196E+03  0.26491018196E+03  0.00000000000E+00 0. -1.
         21   -1    0    0  501  503 -0.00000000000E+00 -0.00000000000E+00 -0.12631764742E+03  0.12631764742E+03  0.00000000000E+00 0. -1.
          6    2    1    2  501    0 -0.80884875287E+01  0.50994625392E+02  0.32063912718E+02  0.18214542792E+03  0.17170610637E+03 0.  0.
         24    2    3    3    0    0  0.21231295607E+02  0.82886526154E+02  0.60134611854E+02  0.13031110370E+03  0.77742318424E+02 0.  0.
         -6    2    1    2    0  502  0.80884875287E+01 -0.50994625392E+02  0.10652862182E+03  0.20908240145E+03  0.17234044181E+03 0.  0.
        -24    2    5    5    0    0 -0.19463883374E+01 -0.78449544584E+02  0.19999281975E+02  0.11762810699E+03  0.85312840782E+02 0.  0.
          5    1    3    3  501    0 -0.29319783136E+02 -0.31891900761E+02 -0.28070699136E+02  0.51834324219E+02  0.47000000000E+01 0. -1.
        -11    1    4    4    0    0 -0.25603634949E+02  0.34431109396E+02  0.43066946884E+02  0.60793168454E+02  0.00000000000E+00 0.  1.
         12    1    4    4    0    0  0.46834930556E+02  0.48455416758E+02  0.17067664970E+02  0.69517935246E+02  0.00000000000E+00 0. -1.
         -5    1    5    5    0  502  0.10034875866E+02  0.27454919192E+02  0.86529339844E+02  0.91454294461E+02  0.47000000000E+01 0.  1.
         13    1    6    6    0    0 -0.39592094538E+02 -0.15979673313E+02  0.11369827531E+02  0.44183219520E+02  0.00000000000E+00 0. -1.
        -14    1    6    6    0    0  0.37645706200E+02 -0.62469871271E+02  0.86294544441E+01  0.73444887473E+02  0.00000000000E+00 0.  1.
</event>
<event>
12    1  0.1594900E-001  0.2316054E+03  0.7818608E-02  0.1125695E+00
         21   -1    0    0  501  502  0.00000000000E+00  0.00000000000E+00  0.12595699969E+03  0.12595699969E+03  0.00000000000E+00 0.  1.
         21   -1    0    0  502  503 -0.00000000000E+00 -0.00000000000E+00 -0.60554921015E+03  0.60554921015E+03  0.00000000000E+00 0.  1.
         -6    2    1    2    0  503 -0.15444578553E+03 -0.13065705722E+02 -0.43970130727E+03  0.49649056636E+03  0.17070861002E+03 0.  0.
        -24    2    3    3    0    0 -0.34684237968E+01 -0.62328961528E+01 -0.97814073000E+02  0.12265929158E+03  0.73667020960E+02 0.  0.
          6    2    1    2  501    0  0.15444578553E+03  0.13065705722E+02 -0.39890903189E+02  0.23501564348E+03  0.17209548277E+03 0.  0.
         24    2    5    5    0    0  0.58855335367E+02  0.39706628551E+02 -0.74399765014E+02  0.12984804165E+03  0.79275608061E+02 0.  0.
          5    1    5    5  501    0  0.95590450162E+02 -0.26640922829E+02  0.34508861825E+02  0.10516760184E+03  0.47000000000E+01 0. -1.
        -11    1    6    6    0    0  0.24545269173E+02  0.43322828126E+02 -0.22147197897E+01  0.49842177514E+02  0.00000000000E+00 0.  1.
         12    1    6    6    0    0  0.34310066194E+02 -0.36161995751E+01 -0.72185045225E+02  0.80005864133E+02  0.00000000000E+00 0. -1.
         -5    1    3    3    0  503 -0.15097736173E+03 -0.68328095694E+01 -0.34188723427E+03  0.37383127477E+03  0.47000000000E+01 0.  1.
         13    1    4    4    0    0 -0.29039032208E+02 -0.17240136666E+02 -0.18295795289E+02  0.38408642636E+02  0.00000000000E+00 0. -1.
        -14    1    4    4    0    0  0.25570608411E+02  0.11007240513E+02 -0.79518277711E+02  0.84250648949E+02  0.00000000000E+00 0.  1.
</event>
<event>
12    1  0.1594900E-001  0.2102672E+03  0.7818608E-02  0.1141488E+00
         21   -1    0    0  503  502  0.00000000000E+00  0.00000000000E+00  0.94677104059E+03  0.94677104059E+03  0.00000000000E+00 0. -1.
         21   -1    0    0  501  503 -0.00000000000E+00 -0.00000000000E+00 -0.46985652900E+02  0.46985652900E+02  0.00000000000E+00 0. -1.
          6    2    1    2  501    0 -0.35919057912E+02 -0.11426282070E+03  0.40270086310E+03  0.45429096075E+03  0.17281817312E+03 0.  0.
         24    2    3    3    0    0 -0.51534173930E+02 -0.11307364133E+01  0.16863920286E+03  0.19381130485E+03  0.80415119836E+02 0.  0.
         -6    2    1    2    0  502  0.35919057912E+02  0.11426282070E+03  0.49708452459E+03  0.53946573274E+03  0.17200023634E+03 0.  0.
        -24    2    5    5    0    0  0.53482755420E+02  0.49073136410E+02  0.42578654893E+03  0.44116176669E+03  0.89782744991E+02 0.  0.
          5    1    3    3  501    0  0.15615116018E+02 -0.11313208429E+03  0.23406166024E+03  0.26047965590E+03  0.47000000000E+01 0. -1.
        -13    1    4    4    0    0 -0.52608826449E+02 -0.30953793969E+02  0.13871007369E+03  0.15154639727E+03  0.00000000000E+00 0.  1.
         14    1    4    4    0    0  0.10746525190E+01  0.29823057556E+02  0.29929129171E+02  0.42264907582E+02  0.00000000000E+00 0. -1.
         -5    1    5    5    0  502 -0.17563697509E+02  0.65189684289E+02  0.71297975657E+02  0.98303966047E+02  0.47000000000E+01 0.  1.
         11    1    6    6    0    0  0.64005707904E+02  0.60494784075E+02  0.25718386012E+03  0.27184533738E+03  0.00000000000E+00 0. -1.
        -12    1    6    6    0    0 -0.10522952484E+02 -0.11421647665E+02  0.16860268881E+03  0.16931642932E+03  0.00000000000E+00 0.  1.
</event>
<event>
12    1  0.1594900E-001  0.3403131E+03  0.7818608E-02  0.1066690E+00
         21   -1    0    0  503  502  0.00000000000E+00  0.00000000000E+00  0.10844156395E+03  0.10844156395E+03  0.00000000000E+00 0. -1.
         21   -1    0    0  501  503 -0.00000000000E+00 -0.00000000000E+00 -0.11000771129E+04  0.11000771129E+04  0.00000000000E+00 0.  1.
          6    2    1    2  501    0  0.85750182856E+02 -0.28087803848E+03 -0.60014296617E+03  0.68979000512E+03  0.17144417448E+03 0.  0.
         24    2    3    3    0    0  0.60151227063E+02 -0.28952210044E+03 -0.49455986569E+03  0.58070330818E+03  0.72011489443E+02 0.  0.
         -6    2    1    2    0  502 -0.85750182856E+02  0.28087803848E+03 -0.39149258274E+03  0.51872867169E+03  0.17195181340E+03 0.  0.
        -24    2    5    5    0    0 -0.83220227860E+02  0.24354921760E+03 -0.39781029005E+03  0.48049459048E+03  0.79876134678E+02 0.  0.
          5    1    3    3  501    0  0.25598955793E+02  0.86440619538E+01 -0.10558310048E+03  0.10908669695E+03  0.47000000000E+01 0. -1.
        -11    1    4    4    0    0 -0.67939774723E+01 -0.14301836281E+03 -0.23988866937E+03  0.27936890293E+03  0.00000000000E+00 0.  1.
         12    1    4    4    0    0  0.66945204535E+02 -0.14650373763E+03 -0.25467119632E+03  0.30133440525E+03  0.00000000000E+00 0. -1.
         -5    1    5    5    0  502 -0.25299549958E+01  0.37328820883E+02  0.63177073040E+01  0.38234081215E+02  0.47000000000E+01 0.  1.
         11    1    6    6    0    0 -0.72618532764E+02  0.13453067011E+03 -0.17608936541E+03  0.23319394742E+03  0.00000000000E+00 0. -1.
        -12    1    6    6    0    0 -0.10601695097E+02  0.10901854749E+03 -0.22172092464E+03  0.24730064306E+03  0.00000000000E+00 0.  1.
</event>
<event>
12    1  0.1594900E-001  0.1960445E+03  0.7818608E-02  0.1153372E+00
         21   -1    0    0  501  502  0.00000000000E+00  0.00000000000E+00  0.12262209852E+03  0.12262209852E+03  0.00000000000E+00 0. -1.
         21   -1    0    0  502  503 -0.00000000000E+00 -0.00000000000E+00 -0.47308348650E+03  0.47308348650E+03  0.00000000000E+00 0. -1.
         -6    2    1    2    0  503 -0.59281335231E+02 -0.69179948816E+02 -0.34891846542E+03  0.39965500715E+03  0.17227851635E+03 0.  0.
        -24    2    3    3    0    0 -0.31710616824E+02 -0.10772218044E+03 -0.21002920197E+03  0.25282869604E+03  0.84855479965E+02 0.  0.
          6    2    1    2  501    0  0.59281335231E+02  0.69179948816E+02 -0.15429225622E+01  0.19605057788E+03  0.17358947679E+03 0.  0.
         24    2    5    5    0    0  0.61510139971E+02  0.52592191729E+02  0.62045059999E+02  0.13012908835E+03  0.80836589573E+02 0.  0.
          5    1    5    5  501    0 -0.22288047395E+01  0.16587757087E+02 -0.63587982561E+02  0.65921489530E+02  0.47000000000E+01 0. -1.
        -11    1    6    6    0    0  0.49760811763E+00  0.29650582187E+02 -0.11543991434E+02  0.31822450818E+02  0.00000000000E+00 0.  1.
         12    1    6    6    0    0  0.61012531853E+02  0.22941609542E+02  0.73589051432E+02  0.98306637529E+02  0.00000000000E+00 0. -1.
         -5    1    3    3    0  503 -0.27570718408E+02  0.38542231621E+02 -0.13888926345E+03  0.14682631111E+03  0.47000000000E+01 0.  1.
         13    1    4    4    0    0  0.50328102175E+01 -0.47525676599E+02 -0.15832661179E+03  0.16538239059E+03  0.00000000000E+00 0. -1.
        -14    1    4    4    0    0 -0.36743427041E+02 -0.60196503839E+02 -0.51702590181E+02  0.87446305448E+02  0.00000000000E+00 0.  1.
</event>
<event>
12    1  0.1594900E-001  0.1918988E+03  0.7818608E-02  0.1156878E+00
         21   -1    0    0  501  502  0.00000000000E+00  0.00000000000E+00  0.68871807180E+02  0.68871807180E+02  0.00000000000E+00 0.  1.
         21   -1    0    0  502  503 -0.00000000000E+00 -0.00000000000E+00 -0.56184250980E+03  0.56184250980E+03  0.00000000000E+00 0.  1.
         -6    2    1    2    0  503 -0.47761157234E+02 -0.69054595243E+02 -0.31799655380E+03  0.37141209589E+03  0.17255570545E+03 0.  0.
        -24    2    3    3    0    0  0.41090611894E+02 -0.39425365932E+02 -0.15884669804E+03  0.18668717961E+03  0.79856319027E+02 0.  0.
          6    2    1    2  501    0  0.47761157234E+02  0.69054595243E+02 -0.17497414882E+03  0.25930222109E+03  0.17196518206E+03 0.  0.
         24    2    5    5    0    0  0.79028427721E+02  0.38279714963E+02 -0.52264170623E+02  0.12890067122E+03  0.78568508597E+02 0.  0.
          5    1    5    5  501    0 -0.31267270486E+02  0.30774880280E+02 -0.12270997820E+03  0.13040154988E+03  0.47000000000E+01 0. -1.
        -11    1    6    6    0    0  0.31772287471E+02  0.96066139744E+01 -0.64271684510E+02  0.72336814368E+02  0.00000000000E+00 0.  1.
         12    1    6    6    0    0  0.47256140250E+02  0.28673100989E+02  0.12007513887E+02  0.56563856847E+02  0.00000000000E+00 0. -1.
         -5    1    3    3    0  503 -0.88851769128E+02 -0.29629229311E+02 -0.15914985576E+03  0.18472491628E+03  0.47000000000E+01 0.  1.
         13    1    4    4    0    0  0.31083880282E+02  0.12062652624E+02 -0.11025686654E+03  0.11518807152E+03  0.00000000000E+00 0. -1.
        -14    1    4    4    0    0  0.10006731612E+02 -0.51488018557E+02 -0.48589831500E+02  0.71499108090E+02  0.00000000000E+00 0.  1.
</event>
<event>
12    1  0.1594900E-001  0.1777727E+03  0.7818608E-02  0.1170900E+00
         21   -1    0    0  501  502  0.00000000000E+00  0.00000000000E+00  0.21584183970E+03  0.21584183970E+03  0.00000000000E+00 0.  1.
         21   -1    0    0  502  503 -0.00000000000E+00 -0.00000000000E+00 -0.21912481067E+03  0.21912481067E+03  0.00000000000E+00 0.  1.
         -6    2    1    2    0  503  0.32498771875E+02  0.37034544633E+02 -0.12949757782E+03  0.21694537473E+03  0.16693695003E+03 0.  0.
        -24    2    3    3    0    0 -0.42052214290E+02  0.56405933581E+01 -0.47407906632E+02  0.10160139426E+03  0.79215709831E+02 0.  0.
          6    2    1    2  501    0 -0.32498771875E+02 -0.37034544633E+02  0.12621460684E+03  0.21802127564E+03  0.17080814378E+03 0.  0.
         24    2    5    5    0    0 -0.21715417632E+02 -0.90017866518E+02  0.81804007475E+02  0.14789350323E+03  0.81276177346E+02 0.  0.
          5    1    5    5  501    0 -0.10783354243E+02  0.52983321885E+02  0.44410599369E+02  0.70127772409E+02  0.47000000000E+01 0. -1.
        -11    1    6    6    0    0  0.50446568658E+01 -0.73157636451E+02  0.89138119078E+02  0.11542570167E+03  0.00000000000E+00 0.  1.
         12    1    6    6    0    0 -0.26760074498E+02 -0.16860230067E+02 -0.73341116038E+01  0.32467801559E+02  0.00000000000E+00 0. -1.
         -5    1    3    3    0  503  0.74550986166E+02  0.31393951275E+02 -0.82089671185E+02  0.11534398047E+03  0.47000000000E+01 0.  1.
         11    1    4    4    0    0 -0.12139011387E+02  0.21430714039E+02  0.16255177388E+02  0.29510369256E+02  0.00000000000E+00 0. -1.
        -12    1    4    4    0    0 -0.29913202903E+02 -0.15790120681E+02 -0.63663084020E+02  0.72091025003E+02  0.00000000000E+00 0.  1.
</event>
<event>
12    1  0.1594900E-001  0.1799532E+03  0.7818608E-02  0.1168357E+00
         21   -1    0    0  503  502  0.00000000000E+00  0.00000000000E+00  0.19602791760E+03  0.19602791760E+03  0.00000000000E+00 0.  1.
         21   -1    0    0  501  503 -0.00000000000E+00 -0.00000000000E+00 -0.18943176943E+03  0.18943176943E+03  0.00000000000E+00 0.  1.
          6    2    1    2  501    0 -0.44475135136E+02  0.12144206524E+02 -0.68322993634E+02  0.19053399527E+03  0.17178373757E+03 0.  0.
         24    2    3    3    0    0 -0.89201331219E+00 -0.29220623110E+02  0.17776762564E+02  0.85435014985E+02  0.78284660027E+02 0.  0.
         -6    2    1    2    0  502  0.44475135136E+02 -0.12144206524E+02  0.74919141804E+02  0.19492569176E+03  0.17394719918E+03 0.  0.
        -24    2    5    5    0    0  0.65773780744E+00  0.55524471201E+02  0.59128269938E+02  0.11264291174E+03  0.78159284396E+02 0.  0.
          5    1    3    3  501    0 -0.43583121823E+02  0.41364829634E+02 -0.86099756198E+02  0.10509898028E+03  0.47000000000E+01 0. -1.
        -11    1    4    4    0    0 -0.23306165212E+00 -0.43319129957E+02 -0.18048957569E+02  0.46929374674E+02  0.00000000000E+00 0.  1.
         12    1    4    4    0    0 -0.65895166007E+00  0.14098506847E+02  0.35825720134E+02  0.38505640310E+02  0.00000000000E+00 0. -1.
         -5    1    5    5    0  502  0.43817397328E+02 -0.67668677726E+02  0.15790871866E+02  0.82282780021E+02  0.47000000000E+01 0.  1.
         11    1    6    6    0    0 -0.18352158704E+01 -0.10191381431E+02  0.43946618409E+02  0.45150166582E+02  0.00000000000E+00 0. -1.
        -12    1    6    6    0    0  0.24929536778E+01  0.65715852632E+02  0.15181651529E+02  0.67492745154E+02  0.00000000000E+00 0.  1.
</event>
<event>
12    1  0.1594900E-001  0.1768150E+03  0.7818608E-02  0.1171080E+00
         21   -1    0    0  501  502  0.00000000000E+00  0.00000000000E+00  0.12192750097E+03  0.12192750097E+03  0.00000000000E+00 0.  1.
         21   -1    0    0  502  503 -0.00000000000E+00 -0.00000000000E+00 -0.28910099898E+03  0.28910099898E+03  0.00000000000E+00 0.  1.
         -6    2    1    2    0  503  0.36310013989E+01 -0.46910405161E+02 -0.15379639503E+03  0.23434348972E+03  0.17043993008E+03 0.  0.
        -24    2    3    3    0    0  0.13495373262E+02 -0.16015668443E+02 -0.17665098057E+03  0.19439085940E+03  0.78381187461E+02 0.  0.
          6    2    1    2  501    0 -0.36310013989E+01  0.46910405161E+02 -0.13377102987E+02  0.17668501023E+03  0.16977890232E+03 0.  0.
         24    2    5    5    0    0 -0.40712407049E+02  0.38937309114E+02 -0.60452636270E+02  0.11604841452E+03  0.81480667353E+02 0.  0.
          5    1    5    5  501    0  0.37081405650E+02  0.79730960468E+01  0.47075533283E+02  0.60636595711E+02  0.47000000000E+01 0. -1.
        -13    1    6    6    0    0  0.57372624793E+01  0.28933602694E+02 -0.61838752775E+02  0.68513508817E+02  0.00000000000E+00 0.  1.
         14    1    6    6    0    0 -0.46449669528E+02  0.10003706420E+02  0.13861165051E+01  0.47534905705E+02  0.00000000000E+00 0. -1.
         -5    1    3    3    0  503 -0.98643718635E+01 -0.30894736718E+02  0.22854585541E+02  0.39952630319E+02  0.47000000000E+01 0.  1.
         11    1    4    4    0    0  0.27943259078E+02 -0.18710998624E+02 -0.24686965420E+02  0.41717783487E+02  0.00000000000E+00 0. -1.
        -12    1    4    4    0    0 -0.14447885815E+02  0.26953301803E+01 -0.15196401515E+03  0.15267307591E+03  0.00000000000E+00 0.  1.
</event>
<event>
12    1  0.1594900E-001  0.1770976E+03  0.7818608E-02  0.1170719E+00
         21   -1    0    0  503  502  0.00000000000E+00  0.00000000000E+00  0.14350922749E+03  0.14350922749E+03  0.00000000000E+00 0. -1.
         21   -1    0    0  501  503 -0.00000000000E+00 -0.00000000000E+00 -0.28442616445E+03  0.28442616445E+03  0.00000000000E+00 0. -1.
          6    2    1    2  501    0 -0.43577785410E+02  0.44337148431E+01  0.32865769752E+02  0.17981446863E+03  0.17127289072E+03 0.  0.
         24    2    3    3    0    0  0.34241804565E+02 -0.28812528819E+02  0.17965757302E+02  0.93760406127E+02  0.80408844817E+02 0.  0.
         -6    2    1    2    0  502  0.43577785410E+02 -0.44337148431E+01 -0.17378270672E+03  0.24812092331E+03  0.17159511130E+03 0.  0.
        -24    2    5    5    0    0  0.54322953720E+02 -0.47681124150E+02 -0.17285621046E+03  0.20330189333E+03  0.78917155515E+02 0.  0.
          5    1    3    3  501    0 -0.77819589975E+02  0.33246243662E+02  0.14900012450E+02  0.86054062498E+02  0.47000000000E+01 0. -1.
        -11    1    4    4    0    0  0.24719769157E+02  0.13572169682E+02 -0.21192031327E+02  0.35275671062E+02  0.00000000000E+00 0.  1.
         12    1    4    4    0    0  0.95220354077E+01 -0.42384698501E+02  0.39157788629E+02  0.58484735065E+02  0.00000000000E+00 0. -1.
         -5    1    5    5    0  502 -0.10745168310E+02  0.43247409307E+02 -0.92649625985E+00  0.44819029988E+02  0.47000000000E+01 0.  1.
         13    1    6    6    0    0  0.62773448216E+01 -0.88272009136E+01 -0.12415477327E+03  0.12462637064E+03  0.00000000000E+00 0. -1.
        -14    1    6    6    0    0  0.48045608898E+02 -0.38853923237E+02 -0.48701437191E+02  0.78675522685E+02  0.00000000000E+00 0.  1.
</event>
<event>
12    1  0.1594900E-001  0.1730188E+03  0.7818608E-02  0.1174868E+00
         21   -1    0    0  501  502  0.00000000000E+00  0.00000000000E+00  0.23880927068E+03  0.23880927068E+03  0.00000000000E+00 0. -1.
         21   -1    0    0  502  503 -0.00000000000E+00 -0.00000000000E+00 -0.15167695199E+03  0.15167695199E+03  0.00000000000E+00 0. -1.
         -6    2    1    2    0  503 -0.12821427516E+02  0.15064255206E+02 -0.38402140814E+02  0.17672369415E+03  0.17136282813E+03 0.  0.
        -24    2    3    3    0    0 -0.35862804937E+02  0.45771185318E+02 -0.74375890774E+02  0.12390304178E+03  0.80243681684E+02 0.  0.
          6    2    1    2  501    0  0.12821427516E+02 -0.15064255206E+02  0.12553445950E+03  0.21376252852E+03  0.17188425549E+03 0.  0.
         24    2    5    5    0    0  0.24144001578E+02  0.47326552986E+02  0.10800704274E+03  0.14780713474E+03  0.85782820934E+02 0.  0.
          5    1    5    5  501    0 -0.11322574061E+02 -0.62390808192E+02  0.17527416762E+02  0.65955393779E+02  0.47000000000E+01 0. -1.
        -11    1    6    6    0    0  0.36281674978E+02  0.16940448758E+02  0.57621546309E+01  0.40454186055E+02  0.00000000000E+00 0.  1.
         12    1    6    6    0    0 -0.12137673401E+02  0.30386104227E+02  0.10224488811E+03  0.10735294868E+03  0.00000000000E+00 0. -1.
         -5    1    3    3    0  503  0.23041377421E+02 -0.30706930112E+02  0.35973749960E+02  0.52820652368E+02  0.47000000000E+01 0.  1.
         11    1    4    4    0    0 -0.16931068516E+02  0.61699161655E+02 -0.25029314541E+02  0.68701631833E+02  0.00000000000E+00 0. -1.
        -12    1    4    4    0    0 -0.18931736421E+02 -0.15927976337E+02 -0.49346576233E+02  0.55201409946E+02  0.00000000000E+00 0.  1.
</event>
<event>
12    1  0.1594900E-001  0.1732628E+03  0.7818608E-02  0.1174863E+00
         21   -1    0    0  501  502  0.00000000000E+00  0.00000000000E+00  0.36538018095E+02  0.36538018095E+02  0.00000000000E+00 0.  1.
         21   -1    0    0  502  503 -0.00000000000E+00 -0.00000000000E+00 -0.13964012149E+04  0.13964012149E+04  0.00000000000E+00 0.  1.
         -6    2    1    2    0  503 -0.95164949236E+01 -0.26813680215E+02 -0.11406852113E+04  0.11535488248E+04  0.16941842530E+03 0.  0.
        -24    2    3    3    0    0  0.50932011539E+02 -0.92050191468E+01 -0.46900021825E+03  0.47890306090E+03  0.81903204118E+02 0.  0.
          6    2    1    2  501    0  0.95164949236E+01  0.26813680215E+02 -0.21917798546E+03  0.27939040813E+03  0.17091071858E+03 0.  0.
         24    2    5    5    0    0 -0.97148760145E+01  0.54623753187E+02 -0.59101128003E+02  0.11571409317E+03  0.82575267477E+02 0.  0.
          5    1    5    5  501    0  0.19231370938E+02 -0.27810072972E+02 -0.16007685745E+03  0.16367631496E+03  0.47000000000E+01 0. -1.
        -11    1    6    6    0    0  0.25304202642E+02 -0.90002215631E+01 -0.16168930192E+02  0.31348699544E+02  0.00000000000E+00 0.  1.
         12    1    6    6    0    0 -0.35019078657E+02  0.63623974750E+02 -0.42932197811E+02  0.84365393627E+02  0.00000000000E+00 0. -1.
         -5    1    3    3    0  503 -0.60448506463E+02 -0.17608661068E+02 -0.67168499306E+03  0.67464576392E+03  0.47000000000E+01 0.  1.
         11    1    4    4    0    0 -0.20524325751E+02  0.65873856763E+01 -0.69871123461E+02  0.73120554506E+02  0.00000000000E+00 0. -1.
        -12    1    4    4    0    0  0.71456337290E+02 -0.15792404823E+02 -0.39912909479E+03  0.40578250640E+03  0.00000000000E+00 0.  1.
</event>
<event>
12    1  0.1594900E-001  0.2615544E+03  0.7818608E-02  0.1107072E+00
         21   -1    0    0  503  502  0.00000000000E+00  0.00000000000E+00  0.52288577553E+03  0.52288577553E+03  0.00000000000E+00 0. -1.
         21   -1    0    0  501  503 -0.00000000000E+00 -0.00000000000E+00 -0.14104367719E+03  0.14104367719E+03  0.00000000000E+00 0.  1.
          6    2    1    2  501    0 -0.19130763524E+03  0.47423016051E+02  0.91883952193E+02  0.27722435744E+03  0.17193932049E+03 0.  0.
         24    2    3    3    0    0 -0.72005801682E+02 -0.39550271452E+02  0.46791304537E+02  0.12278110863E+03  0.78337187899E+02 0.  0.
         -6    2    1    2    0  502  0.19130763524E+03 -0.47423016051E+02  0.28995814615E+03  0.38670509528E+03  0.16314885978E+03 0.  0.
        -24    2    5    5    0    0  0.20475762469E+03 -0.15259051846E+02  0.25656589461E+03  0.33820194825E+03  0.79974845993E+02 0.  0.
          5    1    3    3  501    0 -0.11930183356E+03  0.86973287503E+02  0.45092647656E+02  0.15444324881E+03  0.47000000000E+01 0. -1.
        -13    1    4    4    0    0 -0.88037364442E+02 -0.24167962395E+02  0.38009985185E+02  0.98890985019E+02  0.00000000000E+00 0.  1.
         14    1    4    4    0    0  0.16031562761E+02 -0.15382309057E+02  0.87813193523E+01  0.23890123609E+02  0.00000000000E+00 0. -1.
         -5    1    5    5    0  502 -0.13449989445E+02 -0.32163964205E+02  0.33392251535E+02  0.48503147032E+02  0.47000000000E+01 0.  1.
         11    1    6    6    0    0  0.12466517567E+03 -0.47277753354E+02  0.14182524271E+03  0.19465608508E+03  0.00000000000E+00 0. -1.
        -12    1    6    6    0    0  0.80092449014E+02  0.32018701508E+02  0.11474065190E+03  0.14354586317E+03  0.00000000000E+00 0.  1.
</event>
<event>
12    1  0.1594900E-001  0.2620387E+03  0.7818608E-02  0.1106057E+00
         21   -1    0    0  503  502  0.00000000000E+00  0.00000000000E+00  0.80297804810E+02  0.80297804810E+02  0.00000000000E+00 0.  1.
         21   -1    0    0  501  503 -0.00000000000E+00 -0.00000000000E+00 -0.86108233091E+03  0.86108233091E+03  0.00000000000E+00 0.  1.
          6    2    1    2  501    0 -0.15922831987E+03  0.11705863371E+03 -0.34327821633E+03  0.43186131881E+03  0.17206941420E+03 0.  0.
         24    2    3    3    0    0 -0.16253035324E+03  0.74803629761E+02 -0.19039004741E+03  0.27313743599E+03  0.79649168444E+02 0.  0.
         -6    2    1    2    0  502  0.15922831987E+03 -0.11705863371E+03 -0.43750630976E+03  0.50951881690E+03  0.17070814897E+03 0.  0.
        -24    2    5    5    0    0  0.99084706240E+02 -0.11312145302E+03 -0.19289727040E+03  0.25754971604E+03  0.80673769975E+02 0.  0.
          5    1    3    3  501    0  0.33020333722E+01  0.42255003951E+02 -0.15288816892E+03  0.15872388282E+03  0.47000000000E+01 0. -1.
        -11    1    4    4    0    0 -0.95712447113E+02  0.24863312435E+01 -0.11152703099E+03  0.14698752674E+03  0.00000000000E+00 0.  1.
         12    1    4    4    0    0 -0.66817906127E+02  0.72317298518E+02 -0.78863016429E+02  0.12614990925E+03  0.00000000000E+00 0. -1.
         -5    1    5    5    0  502  0.60143613627E+02 -0.39371806962E+01 -0.24460903937E+03  0.25196910087E+03  0.47000000000E+01 0.  1.
         11    1    6    6    0    0  0.75288194935E+02 -0.11827159061E+03 -0.18464660916E+03  0.23184229924E+03  0.00000000000E+00 0. -1.
        -12    1    6    6    0    0  0.23796511305E+02  0.51501375958E+01 -0.82506612331E+01  0.25707416796E+02  0.00000000000E+00 0.  1.
</event>
<event>
12    1  0.1594900E-001  0.2701979E+03  0.7818608E-02  0.1101350E+00
         21   -1    0    0  501  502  0.00000000000E+00  0.00000000000E+00  0.12110260439E+04  0.12110260439E+04  0.00000000000E+00 0. -1.
         21   -1    0    0  502  503 -0.00000000000E+00 -0.00000000000E+00 -0.72560995270E+02  0.72560995270E+02  0.00000000000E+00 0.  1.
         -6    2    1    2    0  503 -0.13711864736E+03 -0.15480328298E+03  0.30332069401E+03  0.40621466679E+03  0.17390035141E+03 0.  0.
        -24    2    3    3    0    0 -0.31819121857E+02 -0.15796237584E+02  0.17121888385E+03  0.18739070331E+03  0.67360165270E+02 0.  0.
          6    2    1    2  501    0  0.13711864736E+03  0.15480328298E+03  0.83514435465E+03  0.87737237242E+03  0.17190289962E+03 0.  0.
         24    2    5    5    0    0  0.61985468033E+02  0.13868059614E+03  0.39514447661E+03  0.43068801143E+03  0.79236985088E+02 0.  0.
          5    1    5    5  501    0  0.75133179329E+02  0.16122686836E+02  0.43999987805E+03  0.44668436098E+03  0.47000000000E+01 0. -1.
        -13    1    6    6    0    0  0.45746079248E+02  0.43611415771E+02  0.85193168026E+02  0.10607796770E+03  0.00000000000E+00 0.  1.
         14    1    6    6    0    0  0.16239388785E+02  0.95069180374E+02  0.30995130858E+03  0.32461004374E+03  0.00000000000E+00 0. -1.
         -5    1    3    3    0  503 -0.10529952551E+03 -0.13900704540E+03  0.13210181017E+03  0.21882396347E+03  0.47000000000E+01 0.  1.
         11    1    4    4    0    0  0.14846285375E+02  0.12799862566E+02  0.65135479117E+02  0.68021168109E+02  0.00000000000E+00 0. -1.
        -12    1    4    4    0    0 -0.46665407232E+02 -0.28596100150E+02  0.10608340473E+03  0.11936953520E+03  0.00000000000E+00 0.  1.
</event>
<event>
12    1  0.1594900E-001  0.2377761E+03  0.7818608E-02  0.1121756E+00
         21   -1    0    0  503  502  0.00000000000E+00  0.00000000000E+00  0.11852181920E+03  0.11852181920E+03  0.00000000000E+00 0. -1.
         21   -1    0    0  501  503 -0.00000000000E+00 -0.00000000000E+00 -0.54122658715E+03  0.54122658715E+03  0.00000000000E+00 0. -1.
          6    2    1    2  501    0 -0.13149178538E+03  0.90117869918E+02 -0.33088526394E+03  0.40745864413E+03  0.17642609977E+03 0.  0.
         24    2    3    3    0    0 -0.66950113118E+02  0.83068587999E+02 -0.31430069753E+03  0.34028381493E+03  0.75002921825E+02 0.  0.
         -6    2    1    2    0  502  0.13149178538E+03 -0.90117869918E+02 -0.91819504003E+02  0.25228976222E+03  0.17264988475E+03 0.  0.
        -24    2    5    5    0    0  0.82554641692E+02 -0.10682308119E+03 -0.11516939088E+03  0.19535808973E+03  0.81696726283E+02 0.  0.
          5    1    3    3  501    0 -0.64541672262E+02  0.70492819192E+01 -0.16584566417E+02  0.67174829193E+02  0.47000000000E+01 0. -1.
        -11    1    4    4    0    0  0.16433846627E+02  0.17756494629E+02 -0.49865082766E+02  0.55424641594E+02  0.00000000000E+00 0.  1.
         12    1    4    4    0    0 -0.83383959745E+02  0.65312093370E+02 -0.26443561476E+03  0.28485917334E+03  0.00000000000E+00 0. -1.
         -5    1    5    5    0  502  0.48937143687E+02  0.16705211270E+02  0.23349886881E+02  0.56931672496E+02  0.47000000000E+01 0.  1.
         11    1    6    6    0    0  0.55511483103E+02 -0.65103557619E+02 -0.19816496736E+02  0.87821930711E+02  0.00000000000E+00 0. -1.
        -12    1    6    6    0    0  0.27043158590E+02 -0.41719523569E+02 -0.95352894148E+02  0.10753615902E+03  0.00000000000E+00 0.  1.
</event>
<event>
12    1  0.1594900E-001  0.1800974E+03  0.7818608E-02  0.1168002E+00
         21   -1    0    0  501  502  0.00000000000E+00  0.00000000000E+00  0.37067649897E+03  0.37067649897E+03  0.00000000000E+00 0.  1.
         21   -1    0    0  502  503 -0.00000000000E+00 -0.00000000000E+00 -0.87466100883E+02  0.87466100883E+02  0.00000000000E+00 0.  1.
         -6    2    1    2    0  503 -0.15198384927E+02  0.50895047101E+02  0.12390861795E+03  0.21860563638E+03  0.17208655360E+03 0.  0.
        -24    2    3    3    0    0 -0.53772733088E+02  0.65195991747E+02  0.13963548725E+03  0.17431205026E+03  0.61193115647E+02 0.  0.
          6    2    1    2  501    0  0.15198384927E+02 -0.50895047101E+02  0.15930178014E+03  0.23953696347E+03  0.17082038225E+03 0.  0.
         24    2    5    5    0    0 -0.43275867026E+02 -0.45913491845E+01  0.13220653240E+03  0.16004159863E+03  0.78999145104E+02 0.  0.
          5    1    5    5  501    0  0.58474251953E+02 -0.46303697917E+02  0.27095247734E+02  0.79495364846E+02  0.47000000000E+01 0. -1.
        -11    1    6    6    0    0 -0.39197288411E+02  0.32734028035E+02  0.90570502806E+02  0.10397576635E+03  0.00000000000E+00 0.  1.
         12    1    6    6    0    0 -0.40785786147E+01 -0.37325377219E+02  0.41636029596E+02  0.56065832274E+02  0.00000000000E+00 0. -1.
         -5    1    3    3    0  503  0.38574348161E+02 -0.14300944645E+02 -0.15726869295E+02  0.44293586123E+02  0.47000000000E+01 0.  1.
         11    1    4    4    0    0  0.51298662053E+01  0.39903515879E+02  0.54571844332E+02  0.67798910762E+02  0.00000000000E+00 0. -1.
        -12    1    4    4    0    0 -0.58902599294E+02  0.25292475867E+02  0.85063642915E+02  0.10651313949E+03  0.00000000000E+00 0.  1.
</event>
<event>
12    1  0.1594900E-001  0.2066351E+03  0.7818608E-02  0.1144308E+00
         21   -1    0    0  503  502  0.00000000000E+00  0.00000000000E+00  0.88113424359E+03  0.88113424359E+03  0.00000000000E+00 0. -1.
         21   -1    0    0  501  503 -0.00000000000E+00 -0.00000000000E+00 -0.49043399226E+02  0.49043399226E+02  0.00000000000E+00 0. -1.
          6    2    1    2  501    0 -0.10065090438E+03 -0.55083352914E+02  0.46949627428E+03  0.51295691481E+03  0.17185245001E+03 0.  0.
         24    2    3    3    0    0 -0.17653594583E+02  0.24845296112E+00  0.11052280942E+03  0.14035229776E+03  0.84686273710E+02 0.  0.
         -6    2    1    2    0  502  0.10065090438E+03  0.55083352914E+02  0.36259457008E+03  0.41722072800E+03  0.17156203921E+03 0.  0.
        -24    2    5    5    0    0  0.15720275159E+02 -0.29662292444E+02  0.15664930084E+03  0.17882907523E+03  0.79459776300E+02 0.  0.
          5    1    3    3  501    0 -0.82997309794E+02 -0.55331805875E+02  0.35897346486E+03  0.37260461705E+03  0.47000000000E+01 0. -1.
        -13    1    4    4    0    0  0.25209910254E+02 -0.24183002740E+02  0.61929306315E+02  0.71102715681E+02  0.00000000000E+00 0.  1.
         14    1    4    4    0    0 -0.42863504837E+02  0.24431455701E+02  0.48593503103E+02  0.69249582081E+02  0.00000000000E+00 0. -1.
         -5    1    5    5    0  502  0.84930629219E+02  0.84745645358E+02  0.20594526924E+03  0.23839165277E+03  0.47000000000E+01 0.  1.
         13    1    6    6    0    0  0.24769616668E+02 -0.13988377577E+02  0.15813151827E+03  0.16066980329E+03  0.00000000000E+00 0. -1.
        -14    1    6    6    0    0 -0.90493415091E+01 -0.15673914867E+02 -0.14822174310E+01  0.18159271944E+02  0.00000000000E+00 0.  1.
</event>
<event>
12    1  0.1594900E-001  0.2449672E+03  0.7818608E-02  0.1116757E+00
         21   -1    0    0  501  502  0.00000000000E+00  0.00000000000E+00  0.31595813675E+03  0.31595813675E+03  0.00000000000E+00 0.  1.
         21   -1    0    0  502  503 -0.00000000000E+00 -0.00000000000E+00 -0.23428126338E+03  0.23428126338E+03  0.00000000000E+00 0.  1.
         -6    2    1    2    0  503  0.10451066320E+03 -0.13802437788E+03 -0.80238604178E+02  0.25777349264E+03  0.17330820032E+03 0.  0.
        -24    2    3    3    0    0 -0.12662655527E+02 -0.35714188041E+02 -0.34078990188E+02  0.95447396375E+02  0.80703047216E+02 0.  0.
          6    2    1    2  501    0 -0.10451066320E+03  0.13802437788E+03  0.16191547755E+03  0.29246590748E+03  0.17130813628E+03 0.  0.
         24    2    5    5    0    0 -0.10980276545E+03  0.87023217854E+02  0.18159087760E+03  0.23734480411E+03  0.61054250150E+02 0.  0.
          5    1    5    5  501    0  0.52921022484E+01  0.51001160021E+02 -0.19675400054E+02  0.55121103373E+02  0.47000000000E+01 0. -1.
        -13    1    6    6    0    0 -0.13457700830E+02  0.42179304666E+02  0.73208587883E+02  0.85555249947E+02  0.00000000000E+00 0.  1.
         14    1    6    6    0    0 -0.96345064622E+02  0.44843913187E+02  0.10838228972E+03  0.15178955416E+03  0.00000000000E+00 0. -1.
         -5    1    3    3    0  503  0.11717331873E+03 -0.10231018983E+03 -0.46159613990E+02  0.16232609627E+03  0.47000000000E+01 0.  1.
         11    1    4    4    0    0 -0.11312887365E+01 -0.13320244705E+02  0.26587786739E+02  0.29759353772E+02  0.00000000000E+00 0. -1.
        -12    1    4    4    0    0 -0.11531366791E+02 -0.22393943336E+02 -0.60666776928E+02  0.65688042603E+02  0.00000000000E+00 0.  1.
</event>
<event>
12    1  0.1594900E-001  0.2899297E+03  0.7818608E-02  0.1090623E+00
         21   -1    0    0  501  502  0.00000000000E+00  0.00000000000E+00  0.68054459938E+02  0.68054459938E+02  0.00000000000E+00 0. -1.
         21   -1    0    0  502  503 -0.00000000000E+00 -0.00000000000E+00 -0.16170846816E+04  0.16170846816E+04  0.00000000000E+00 0.  1.
         -6    2    1    2    0  503 -0.21841374169E+03 -0.78292516867E+02 -0.11899186741E+04  0.12247308569E+04  0.17385321463E+03 0.  0.
        -24    2    3    3    0    0 -0.32953128284E+02 -0.53071490407E+02 -0.47701362760E+03  0.48765051219E+03  0.79740387316E+02 0.  0.
          6    2    1    2  501    0  0.21841374169E+03  0.78292516867E+02 -0.35911154761E+03  0.46040828463E+03  0.17082272733E+03 0.  0.
         24    2    5    5    0    0  0.99162244163E+02 -0.34734210875E+02 -0.16762031932E+03  0.20804556678E+03  0.64395421713E+02 0.  0.
          5    1    5    5  501    0  0.11925149753E+03  0.11302672774E+03 -0.19149122829E+03  0.25236271785E+03  0.47000000000E+01 0. -1.
        -11    1    6    6    0    0 -0.64677113986E+01  0.70239895225E+01 -0.15363371081E+02  0.18088695103E+02  0.00000000000E+00 0.  1.
         12    1    6    6    0    0  0.10562995556E+03 -0.41758200397E+02 -0.15225694824E+03  0.18995687168E+03  0.00000000000E+00 0. -1.
         -5    1    3    3    0  503 -0.18546061341E+03 -0.25221026460E+02 -0.71290504647E+03  0.73708034473E+03  0.47000000000E+01 0.  1.
         13    1    4    4    0    0 -0.12718923346E+02  0.20326339719E+02 -0.85280046141E+02  0.88586778739E+02  0.00000000000E+00 0. -1.
        -14    1    4    4    0    0 -0.20234204938E+02 -0.73397830126E+02 -0.39173358146E+03  0.39906373345E+03  0.00000000000E+00 0.  1.
</event>
<event>
12    1  0.1594900E-001  0.1790835E+03  0.7818608E-02  0.1168829E+00
         21   -1    0    0  503  502  0.00000000000E+00  0.00000000000E+00  0.39739012759E+03  0.39739012759E+03  0.00000000000E+00 0.  1.
         21   -1    0    0  501  503 -0.00000000000E+00 -0.00000000000E+00 -0.85681798640E+02  0.85681798640E+02  0.00000000000E+00 0.  1.
          6    2    1    2  501    0  0.46563417383E+02 -0.12031776784E+02  0.96414311485E+02  0.20338787171E+03  0.17250504749E+03 0.  0.
         24    2    3    3    0    0  0.15516979162E+02 -0.89094536384E+01 -0.18558435684E+02  0.84163491569E+02  0.80118180032E+02 0.  0.
         -6    2    1    2    0  502 -0.46563417383E+02  0.12031776784E+02  0.21529401746E+03  0.27968405452E+03  0.17192655672E+03 0.  0.
        -24    2    5    5    0    0 -0.39801827062E+02 -0.70907594375E+00  0.30499124298E+02  0.94267520814E+02  0.79821555179E+02 0.  0.
          5    1    3    3  501    0  0.31046438221E+02 -0.31223231452E+01  0.11497274717E+03  0.11922438014E+03  0.47000000000E+01 0. -1.
        -11    1    4    4    0    0  0.33878971331E+02  0.24135987868E+02  0.97972253036E+00  0.41608778702E+02  0.00000000000E+00 0.  1.
         12    1    4    4    0    0 -0.18361992169E+02 -0.33045441507E+02 -0.19538158214E+02  0.42554712867E+02  0.00000000000E+00 0. -1.
         -5    1    5    5    0  502 -0.67615903209E+01  0.12740852727E+02  0.18479489317E+03  0.18541653371E+03  0.47000000000E+01 0.  1.
         11    1    6    6    0    0  0.14845989044E+02  0.24386147939E+02  0.14602239118E+02  0.32067319646E+02  0.00000000000E+00 0. -1.
        -12    1    6    6    0    0 -0.54647816106E+02 -0.25095223883E+02  0.15896885180E+02  0.62200201168E+02  0.00000000000E+00 0.  1.
</event>
<event>
12    1  0.1594900E-001  0.1922354E+03  0.7818608E-02  0.1156920E+00
         21   -1    0    0  503  502  0.00000000000E+00  0.00000000000E+00  0.56238105908E+03  0.56238105908E+03  0.00000000000E+00 0.  1.
         21   -1    0    0  501  503 -0.00000000000E+00 -0.00000000000E+00 -0.71315254021E+02  0.71315254021E+02  0.00000000000E+00 0.  1.
          6    2    1    2  501    0  0.41818804996E+02 -0.73491034742E+02  0.15252030311E+03  0.24539132816E+03  0.17264042526E+03 0.  0.
         24    2    3    3    0    0  0.84090680564E+02 -0.81763197948E+02  0.85934678127E+02  0.16594904973E+03  0.79986593274E+02 0.  0.
         -6    2    1    2    0  502 -0.41818804996E+02  0.73491034742E+02  0.33854550195E+03  0.38830498494E+03  0.17034658729E+03 0.  0.
        -24    2    5    5    0    0 -0.89751078812E+02  0.26541199069E+02  0.21554551409E+03  0.24811626587E+03  0.79637436844E+02 0.  0.
          5    1    3    3  501    0 -0.42271875568E+02  0.82721632056E+01  0.66585624982E+02  0.79442278432E+02  0.47000000000E+01 0. -1.
        -13    1    4    4    0    0  0.44161583690E+02 -0.73500670290E+02  0.19400708476E+02  0.87914626181E+02  0.00000000000E+00 0.  1.
         14    1    4    4    0    0  0.39929096874E+02 -0.82625276579E+01  0.66533969651E+02  0.78034423545E+02  0.00000000000E+00 0. -1.
         -5    1    5    5    0  502  0.47932273816E+02  0.46949835673E+02  0.12299998785E+03  0.14018871907E+03  0.47000000000E+01 0.  1.
         13    1    6    6    0    0 -0.40711976196E+02 -0.26629132572E+02  0.65945715281E+02  0.81947623951E+02  0.00000000000E+00 0. -1.
        -14    1    6    6    0    0 -0.49039102617E+02  0.53170331641E+02  0.14959979881E+03  0.16616864192E+03  0.00000000000E+00 0.  1.
</event>
<event>
12    1  0.1594900E-001  0.2058912E+03  0.7818608E-02  0.1144902E+00
         21   -1    0    0  501  502  0.00000000000E+00  0.00000000000E+00  0.65770898441E+02  0.65770898441E+02  0.00000000000E+00 0.  1.
         21   -1    0    0  502  503 -0.00000000000E+00 -0.00000000000E+00 -0.77765880890E+03  0.77765880890E+03  0.00000000000E+00 0. -1.
         -6    2    1    2    0  503 -0.73128266771E+02  0.86767535382E+02 -0.18090887843E+03  0.27392999393E+03  0.17156127384E+03 0.  0.
        -24    2    3    3    0    0 -0.49839166258E+02  0.78819183654E+02 -0.20511328990E+03  0.23909463785E+03  0.79989861547E+02 0.  0.
          6    2    1    2  501    0  0.73128266771E+02 -0.86767535382E+02 -0.53097903203E+03  0.56949971341E+03  0.17179884320E+03 0.  0.
         24    2    5    5    0    0  0.76052425262E+02 -0.19150055631E+02 -0.44707698040E+03  0.46160013724E+03  0.83941433616E+02 0.  0.
          5    1    5    5  501    0 -0.29241584904E+01 -0.67617479750E+02 -0.83902051631E+02  0.10789957617E+03  0.47000000000E+01 0. -1.
        -13    1    6    6    0    0  0.38165620638E+01  0.68183503938E+01  0.16790905290E+00  0.78156408265E+01  0.00000000000E+00 0.  1.
         14    1    6    6    0    0  0.72235863198E+02 -0.25968406025E+02 -0.44724488945E+03  0.45378449641E+03  0.00000000000E+00 0. -1.
         -5    1    3    3    0  503 -0.23289100513E+02  0.79483517283E+01  0.24204411475E+02  0.34835356073E+02  0.47000000000E+01 0.  1.
         13    1    4    4    0    0 -0.56529776135E+02  0.48883851962E+02 -0.76780931135E+02  0.10714736562E+03  0.00000000000E+00 0. -1.
        -14    1    4    4    0    0  0.66906098766E+01  0.29935331691E+02 -0.12833235877E+03  0.13194727224E+03  0.00000000000E+00 0.  1.
</event>
<event>
12    1  0.1594900E-001  0.1943151E+03  0.7818608E-02  0.1155470E+00
         21   -1    0    0  501  502  0.00000000000E+00  0.00000000000E+00  0.92880815257E+02  0.92880815257E+02  0.00000000000E+00 0.  1.
         21   -1    0    0  502  503 -0.00000000000E+00 -0.00000000000E+00 -0.40076311475E+03  0.40076311475E+03  0.00000000000E+00 0.  1.
         -6    2    1    2    0  503  0.90259837248E+02  0.10871935723E+02 -0.17363757165E+03  0.26059236892E+03  0.17173624907E+03 0.  0.
        -24    2    3    3    0    0  0.12006989823E+03 -0.10604658298E+02 -0.17031072527E+03  0.22340309986E+03  0.79837100681E+02 0.  0.
          6    2    1    2  501    0 -0.90259837248E+02 -0.10871935723E+02 -0.13424472784E+03  0.23305156108E+03  0.16741071042E+03 0.  0.
         24    2    5    5    0    0 -0.27285254295E+02 -0.62534990033E+02 -0.94319190721E+02  0.14221650291E+03  0.81696474107E+02 0.  0.
          5    1    5    5  501    0 -0.62974582953E+02  0.51663054310E+02 -0.39925537114E+02  0.90835058169E+02  0.47000000000E+01 0. -1.
        -13    1    6    6    0    0 -0.27218098102E+02 -0.40686835725E+02 -0.10649342004E+03  0.11720534108E+03  0.00000000000E+00 0.  1.
         14    1    6    6    0    0 -0.67156193019E-01 -0.21848154308E+02  0.12174229320E+02  0.25011161831E+02  0.00000000000E+00 0. -1.
         -5    1    3    3    0  503 -0.29810060986E+02  0.21476594021E+02 -0.33268463844E+01  0.37189269065E+02  0.47000000000E+01 0.  1.
         11    1    4    4    0    0  0.12205344085E+03 -0.12375423202E+02 -0.11539385474E+03  0.16842189654E+03  0.00000000000E+00 0. -1.
        -12    1    4    4    0    0 -0.19835426149E+01  0.17707649044E+01 -0.54916870529E+02  0.54981203318E+02  0.00000000000E+00 0.  1.
</event>
<event>
12    1  0.1594900E-001  0.1905449E+03  0.7818608E-02  0.1158042E+00
         21   -1    0    0  503  502  0.00000000000E+00  0.00000000000E+00  0.93284400791E+02  0.93284400791E+02  0.00000000000E+00 0.  1.
         21   -1    0    0  501  503 -0.00000000000E+00 -0.00000000000E+00 -0.39082184076E+03  0.39082184076E+03  0.00000000000E+00 0. -1.
          6    2    1    2  501    0 -0.22595021935E+02  0.78227304792E+02 -0.13025750561E+03  0.23055165762E+03  0.17192150194E+03 0.  0.
         24    2    3    3    0    0  0.26283598034E+02  0.10538272626E+03 -0.95175550484E+02  0.16437484914E+03  0.78513432610E+02 0.  0.
         -6    2    1    2    0  502  0.22595021935E+02 -0.78227304792E+02 -0.16727993436E+03  0.25355458394E+03  0.17227102010E+03 0.  0.
        -24    2    5    5    0    0  0.56810193128E+02  0.75152013471E+01 -0.77039147825E+02  0.12437275529E+03  0.79054890208E+02 0.  0.
          5    1    3    3  501    0 -0.48878619968E+02 -0.27155421465E+02 -0.35081955131E+02  0.66176808481E+02  0.47000000000E+01 0. -1.
        -11    1    4    4    0    0  0.23271132554E+02  0.57758872240E+02 -0.51488141134E+01  0.62483143483E+02  0.00000000000E+00 0.  1.
         12    1    4    4    0    0  0.30124654795E+01  0.47623854017E+02 -0.90026736370E+02  0.10189170565E+03  0.00000000000E+00 0. -1.
         -5    1    5    5    0  502 -0.34215171193E+02 -0.85742506139E+02 -0.90240786532E+02  0.12918182865E+03  0.47000000000E+01 0.  1.
         11    1    6    6    0    0  0.56775780738E+02 -0.15824201289E+02 -0.81531844346E+02  0.10060485211E+03  0.00000000000E+00 0. -1.
        -12    1    6    6    0    0  0.34412389423E-01  0.23339402636E+02  0.44926965206E+01  0.23767903182E+02  0.00000000000E+00 0.  1.
</event>
<event>
12    1  0.1594900E-001  0.1874187E+03  0.7818608E-02  0.1160986E+00
         21   -1    0    0  501  502  0.00000000000E+00  0.00000000000E+00  0.24520365784E+03  0.24520365784E+03  0.00000000000E+00 0.  1.
         21   -1    0    0  502  503 -0.00000000000E+00 -0.00000000000E+00 -0.28489892807E+03  0.28489892807E+03  0.00000000000E+00 0.  1.
         -6    2    1    2    0  503 -0.66970461334E+02  0.29578297378E+02 -0.20714442066E+03  0.27934673046E+03  0.17252787148E+03 0.  0.
        -24    2    3    3    0    0 -0.99855402663E+02 -0.78343552253E+01 -0.10628948881E+03  0.16676372455E+03  0.80499725653E+02 0.  0.
          6    2    1    2  501    0  0.66970461334E+02 -0.29578297378E+02  0.16744915043E+03  0.25075585546E+03  0.17169555236E+03 0.  0.
         24    2    5    5    0    0  0.71317380355E+02  0.40820273885E+02  0.92421990305E+02  0.14767327062E+03  0.80703823092E+02 0.  0.
          5    1    5    5  501    0 -0.43469190208E+01 -0.70398571263E+02  0.75027160129E+02  0.10308258484E+03  0.47000000000E+01 0. -1.
        -11    1    6    6    0    0  0.55488703065E+02  0.28478555137E+02  0.10631716873E+03  0.12326136717E+03  0.00000000000E+00 0.  1.
         12    1    6    6    0    0  0.15828677290E+02  0.12341718748E+02 -0.13895178423E+02  0.24411903445E+02  0.00000000000E+00 0. -1.
         -5    1    3    3    0  503  0.32884941329E+02  0.37412652603E+02 -0.10085493185E+03  0.11258300591E+03  0.47000000000E+01 0.  1.
         13    1    4    4    0    0  0.20750099412E+01 -0.15678241563E+02 -0.44694749470E+02  0.47410268454E+02  0.00000000000E+00 0. -1.
        -14    1    4    4    0    0 -0.10193041260E+03  0.78438863378E+01 -0.61594739340E+02  0.11935345609E+03  0.00000000000E+00 0.  1.
</event>
<event>
12    1  0.1594900E-001  0.2003501E+03  0.7818608E-02  0.1153331E+00
         21   -1    0    0  503  502  0.00000000000E+00  0.00000000000E+00  0.22646137073E+02  0.22646137073E+02  0.00000000000E+00 0.  1.
         21   -1    0    0  501  503 -0.00000000000E+00 -0.00000000000E+00 -0.19359464595E+04  0.19359464595E+04  0.00000000000E+00 0.  1.
          6    2    1    2  501    0 -0.63776199407E+02 -0.52035029522E+01 -0.52482857157E+03  0.55574051691E+03  0.17119583096E+03 0.  0.
         24    2    3    3    0    0 -0.90677351746E+02 -0.34218935988E+02 -0.47756117549E+03  0.49391929010E+03  0.80611854572E+02 0.  0.
         -6    2    1    2    0  502  0.63776199407E+02  0.52035029522E+01 -0.13884717508E+04  0.14028520797E+04  0.18985698421E+03 0.  0.
        -24    2    5    5    0    0 -0.23570274803E+02 -0.45898024481E+02 -0.51424026106E+03  0.52277051503E+03  0.78637006467E+02 0.  0.
          5    1    3    3  501    0  0.26901152339E+02  0.29015433035E+02 -0.47267396079E+02  0.61821226803E+02  0.47000000000E+01 0. -1.
        -11    1    4    4    0    0 -0.19422869949E+02  0.24884817085E+02 -0.87425661255E+02  0.92950246069E+02  0.00000000000E+00 0.  1.
         12    1    4    4    0    0 -0.71254481796E+02 -0.59103753073E+02 -0.39013551424E+03  0.40096904403E+03  0.00000000000E+00 0. -1.
         -5    1    5    5    0  502  0.87346474210E+02  0.51101527433E+02 -0.87423148978E+03  0.88008156462E+03  0.47000000000E+01 0.  1.
         11    1    6    6    0    0 -0.30467164144E+02  0.39681879293E+01 -0.81275725348E+02  0.86889229121E+02  0.00000000000E+00 0. -1.
        -12    1    6    6    0    0  0.68968893414E+01 -0.49866212410E+02 -0.43296453571E+03  0.43588128591E+03  0.00000000000E+00 0.  1.
</event>
<event>
12    1  0.1594900E-001  0.2228917E+03  0.7818608E-02  0.1132239E+00
         21   -1    0    0  503  502  0.00000000000E+00  0.00000000000E+00  0.53887860959E+02  0.53887860959E+02  0.00000000000E+00 0. -1.
         21   -1    0    0  501  503 -0.00000000000E+00 -0.00000000000E+00 -0.91260138962E+03  0.91260138962E+03  0.00000000000E+00 0. -1.
          6    2    1    2  501    0 -0.11232208379E+03 -0.89101183651E+02 -0.41103292387E+03  0.46757755539E+03  0.17066175425E+03 0.  0.
         24    2    3    3    0    0  0.24576436929E+01 -0.11555238678E+02 -0.11073667832E+03  0.13683946488E+03  0.79516436477E+02 0.  0.
         -6    2    1    2    0  502  0.11232208379E+03  0.89101183651E+02 -0.44768060480E+03  0.49891169519E+03  0.16715168038E+03 0.  0.
        -24    2    5    5    0    0  0.73192278013E-01  0.76142087904E+01 -0.13904648049E+03  0.16050801111E+03  0.79818020267E+02 0.  0.
          5    1    3    3  501    0 -0.11477972748E+03 -0.77545944973E+02 -0.30029624555E+03  0.33073809051E+03  0.47000000000E+01 0. -1.
        -13    1    4    4    0    0 -0.22661098024E+02  0.16348498312E+02 -0.89379834797E+02  0.93645894886E+02  0.00000000000E+00 0.  1.
         14    1    4    4    0    0  0.25118741717E+02 -0.27903736990E+02 -0.21356843519E+02  0.43193569991E+02  0.00000000000E+00 0. -1.
         -5    1    5    5    0  502  0.11224889151E+03  0.81486974861E+02 -0.30863412431E+03  0.33840368409E+03  0.47000000000E+01 0.  1.
         13    1    6    6    0    0  0.34842174648E+02  0.23034549926E+02 -0.64976949834E+02  0.77243586363E+02  0.00000000000E+00 0. -1.
        -14    1    6    6    0    0 -0.34768982370E+02 -0.15420341135E+02 -0.74069530659E+02  0.83264424744E+02  0.00000000000E+00 0.  1.
</event>
<event>
12    1  0.1594900E-001  0.2323989E+03  0.7818608E-02  0.1124993E+00
         21   -1    0    0  501  502  0.00000000000E+00  0.00000000000E+00  0.23097759441E+03  0.23097759441E+03  0.00000000000E+00 0.  1.
         21   -1    0    0  502  503 -0.00000000000E+00 -0.00000000000E+00 -0.23461745081E+03  0.23461745081E+03  0.00000000000E+00 0. -1.
         -6    2    1    2    0  503 -0.13644626414E+03  0.76424508369E+02 -0.16730584079E+02  0.23300034843E+03  0.17190393087E+03 0.  0.
        -24    2    3    3    0    0 -0.79722102942E+02  0.10231509122E+03 -0.52889227792E+02  0.16076815160E+03  0.78899534622E+02 0.  0.
          6    2    1    2  501    0  0.13644626414E+03 -0.76424508369E+02  0.13090727676E+02  0.23259469679E+03  0.17167014110E+03 0.  0.
         24    2    5    5    0    0  0.15059077496E+03 -0.71928810578E+02  0.50833520441E+02  0.19176717065E+03  0.79619505441E+02 0.  0.
          5    1    5    5  501    0 -0.14144510815E+02 -0.44956977912E+01 -0.37742792765E+02  0.40827526138E+02  0.47000000000E+01 0. -1.
        -11    1    6    6    0    0  0.92370896871E+02 -0.26607776377E+02  0.65791800003E+02  0.11648569569E+03  0.00000000000E+00 0.  1.
         12    1    6    6    0    0  0.58219878088E+02 -0.45321034201E+02 -0.14958279562E+02  0.75281474966E+02  0.00000000000E+00 0. -1.
         -5    1    3    3    0  503 -0.56724161202E+02 -0.25890582850E+02  0.36158643713E+02  0.72232196834E+02  0.47000000000E+01 0.  1.
         11    1    4    4    0    0 -0.78470371661E+02  0.53361730020E+02 -0.58500781077E+02  0.11147831559E+03  0.00000000000E+00 0. -1.
        -12    1    4    4    0    0 -0.12517312803E+01  0.48953361199E+02  0.56115532849E+01  0.49289836012E+02  0.00000000000E+00 0.  1.
</event>
<event>
12    1  0.1594900E-001  0.1847947E+03  0.7818608E-02  0.1163257E+00
         21   -1    0    0  503  502  0.00000000000E+00  0.00000000000E+00  0.49816824745E+03  0.49816824745E+03  0.00000000000E+00 0. -1.
         21   -1    0    0  501  503 -0.00000000000E+00 -0.00000000000E+00 -0.81745398700E+02  0.81745398700E+02  0.00000000000E+00 0. -1.
          6    2    1    2  501    0  0.26026939521E+02 -0.61435825703E+02  0.91635807198E+02  0.20626734599E+03  0.17232914611E+03 0.  0.
         24    2    3    3    0    0  0.64921467405E+02 -0.87107451607E+02  0.56695755877E+02  0.14783179292E+03  0.82688120113E+02 0.  0.
         -6    2    1    2    0  502 -0.26026939521E+02  0.61435825703E+02  0.32478704155E+03  0.37364630016E+03  0.17225902881E+03 0.  0.
        -24    2    5    5    0    0 -0.43468440375E+02  0.11911603123E+02  0.77147194045E+02  0.12045775649E+03  0.80789788662E+02 0.  0.
          5    1    3    3  501    0 -0.38894527884E+02  0.25671625904E+02  0.34940051321E+02  0.58435553067E+02  0.47000000000E+01 0. -1.
        -11    1    4    4    0    0 -0.31735897845E+01 -0.17881795830E+01  0.36667262955E+02  0.36847760189E+02  0.00000000000E+00 0.  1.
         12    1    4    4    0    0  0.68095057190E+02 -0.85319272024E+02  0.20028492922E+02  0.11098403273E+03  0.00000000000E+00 0. -1.
         -5    1    5    5    0  502  0.17441500854E+02  0.49524222580E+02  0.24763984750E+03  0.25318854367E+03  0.47000000000E+01 0.  1.
         11    1    6    6    0    0  0.70762228389E+01  0.28220915283E+02  0.56354657482E+02  0.63421923725E+02  0.00000000000E+00 0. -1.
        -12    1    6    6    0    0 -0.50544663214E+02 -0.16309312160E+02  0.20792536564E+02  0.57035832766E+02  0.00000000000E+00 0.  1.
</event>
<event>
12    1  0.1594900E-001  0.1822554E+03  0.7818608E-02  0.1167044E+00
         21   -1    0    0  501  502  0.00000000000E+00  0.00000000000E+00  0.26133031804E+03  0.26133031804E+03  0.00000000000E+00 0.  1.
         21   -1    0    0  502  503 -0.00000000000E+00 -0.00000000000E+00 -0.56661218590E+03  0.56661218590E+03  0.00000000000E+00 0. -1.
         -6    2    1    2    0  503 -0.39536392108E+02 -0.45224728874E+02 -0.51834961844E+03  0.54755903052E+03  0.16591010388E+03 0.  0.
        -24    2    3    3    0    0  0.32429975953E+02 -0.51564963478E+02 -0.35392712517E+03  0.36790324019E+03  0.79860725108E+02 0.  0.
          6    2    1    2  501    0  0.39536392108E+02  0.45224728874E+02  0.21306775057E+03  0.28038347342E+03  0.17207156485E+03 0.  0.
         24    2    5    5    0    0  0.59740620697E+02  0.24791318432E+02  0.22622983734E+03  0.24842935564E+03  0.79709812496E+02 0.  0.
          5    1    5    5  501    0 -0.20204228589E+02  0.20433410442E+02 -0.13162086766E+02  0.31954117781E+02  0.47000000000E+01 0. -1.
        -13    1    6    6    0    0  0.20555968011E+02 -0.21336162943E+02  0.13986265105E+03  0.14296622269E+03  0.00000000000E+00 0.  1.
         14    1    6    6    0    0  0.39184652686E+02  0.46127481376E+02  0.86367186286E+02  0.10546313295E+03  0.00000000000E+00 0. -1.
         -5    1    3    3    0  503 -0.71966368061E+02  0.63402346039E+01 -0.16442249327E+03  0.17965579033E+03  0.47000000000E+01 0.  1.
         11    1    4    4    0    0 -0.88694627364E+01 -0.26021338973E+02 -0.26634136208E+03  0.26775641656E+03  0.00000000000E+00 0. -1.
        -12    1    4    4    0    0  0.41299438689E+02 -0.25543624504E+02 -0.87585763086E+02  0.10014682364E+03  0.00000000000E+00 0.  1.
</event>
<event>
12    1  0.1594900E-001  0.2010062E+03  0.7818608E-02  0.1148939E+00
         21   -1    0    0  503  502  0.00000000000E+00  0.00000000000E+00  0.54289996838E+03  0.54289996838E+03  0.00000000000E+00 0.  1.
         21   -1    0    0  501  503 -0.00000000000E+00 -0.00000000000E+00 -0.13543110906E+03  0.13543110906E+03  0.00000000000E+00 0.  1.
          6    2    1    2  501    0  0.17722453576E+02  0.10292455991E+03 -0.24121422491E+02  0.20222849187E+03  0.17148460428E+03 0.  0.
         24    2    3    3    0    0  0.84667998511E+01  0.12761004729E+03  0.18367338747E+02  0.15200474007E+03  0.80075408229E+02 0.  0.
         -6    2    1    2    0  502 -0.17722453576E+02 -0.10292455991E+03  0.43159028181E+03  0.47610258558E+03  0.17174385068E+03 0.  0.
        -24    2    5    5    0    0  0.49318597056E+01 -0.29582480047E+02  0.10868792552E+03  0.14416840493E+03  0.89844406942E+02 0.  0.
          5    1    3    3  501    0  0.92556537248E+01 -0.24685487375E+02 -0.42488761238E+02  0.50223751794E+02  0.47000000000E+01 0. -1.
        -13    1    4    4    0    0  0.22246034826E+02  0.48573600819E+02 -0.26975469283E+02  0.59849450332E+02  0.00000000000E+00 0.  1.
         14    1    4    4    0    0 -0.13779234975E+02  0.79036446469E+02  0.45342808030E+02  0.92155289739E+02  0.00000000000E+00 0. -1.
         -5    1    5    5    0  502 -0.22654313282E+02 -0.73342079866E+02  0.32290235629E+03  0.33193418065E+03  0.47000000000E+01 0.  1.
         13    1    6    6    0    0  0.37015495322E+02 -0.91211974941E+01  0.97216363703E+02  0.10442396521E+03  0.00000000000E+00 0. -1.
        -14    1    6    6    0    0 -0.32083635617E+02 -0.20461282553E+02  0.11471561820E+02  0.39744439720E+02  0.00000000000E+00 0.  1.
</event>
<event>
12    1  0.1594900E-001  0.1781159E+03  0.7818608E-02  0.1170302E+00
         21   -1    0    0  503  502  0.00000000000E+00  0.00000000000E+00  0.57104614020E+03  0.57104614020E+03  0.00000000000E+00 0. -1.
         21   -1    0    0  501  503 -0.00000000000E+00 -0.00000000000E+00 -0.16296298615E+03  0.16296298615E+03  0.00000000000E+00 0. -1.
          6    2    1    2  501    0  0.39518258471E+02  0.17593851453E+02 -0.94538527797E+02  0.20165023740E+03  0.17278324179E+03 0.  0.
         24    2    3    3    0    0  0.52637234170E+02 -0.24727090397E+02 -0.11502516407E+03  0.15260982643E+03  0.81712075818E+02 0.  0.
         -6    2    1    2    0  502 -0.39518258471E+02 -0.17593851453E+02  0.50262168185E+03  0.53235888894E+03  0.17001822023E+03 0.  0.
        -24    2    5    5    0    0  0.33168620338E+02 -0.44450551097E+02  0.31386948657E+03  0.32826541553E+03  0.78537376868E+02 0.  0.
          5    1    3    3  501    0 -0.13118975699E+02  0.42320941850E+02  0.20486636269E+02  0.49040410970E+02  0.47000000000E+01 0. -1.
        -11    1    4    4    0    0  0.70587734021E+02 -0.37427680827E+01 -0.95390297247E+02  0.11872634634E+03  0.00000000000E+00 0.  1.
         12    1    4    4    0    0 -0.17950499851E+02 -0.20984322315E+02 -0.19634866819E+02  0.33883480089E+02  0.00000000000E+00 0. -1.
         -5    1    5    5    0  502 -0.72686878809E+02  0.26856699644E+02  0.18875219527E+03  0.20409347341E+03  0.47000000000E+01 0.  1.
         11    1    6    6    0    0 -0.16123142531E+02 -0.41031145647E+02  0.11026552540E+03  0.11875182833E+03  0.00000000000E+00 0. -1.
        -12    1    6    6    0    0  0.49291762869E+02 -0.34194054496E+01  0.20360396117E+03  0.20951358721E+03  0.00000000000E+00 0.  1.
</event>
<event>
12    1  0.1594900E-001  0.2316197E+03  0.7818608E-02  0.1125810E+00
         21   -1    0    0  503  502  0.00000000000E+00  0.00000000000E+00  0.66874823014E+02  0.66874823014E+02  0.00000000000E+00 0.  1.
         21   -1    0    0  501  503 -0.00000000000E+00 -0.00000000000E+00 -0.81308342137E+03  0.81308342137E+03  0.00000000000E+00 0. -1.
          6    2    1    2  501    0  0.10474304789E+03  0.11152891765E+03 -0.30830700096E+03  0.38457406431E+03  0.17156397798E+03 0.  0.
         24    2    3    3    0    0  0.51712157117E+02  0.74503583670E+02 -0.78501302303E+02  0.14579404029E+03  0.82876513846E+02 0.  0.
         -6    2    1    2    0  502 -0.10474304789E+03 -0.11152891765E+03 -0.43790159739E+03  0.49538418008E+03  0.17389040030E+03 0.  0.
        -24    2    5    5    0    0 -0.71759121210E+02 -0.14043039952E+03 -0.27739085060E+03  0.32892389980E+03  0.79844719775E+02 0.  0.
          5    1    3    3  501    0  0.53030890778E+02  0.37025333978E+02 -0.22980569866E+03  0.23878002402E+03  0.47000000000E+01 0. -1.
        -13    1    4    4    0    0  0.20667300189E+02 -0.20685510415E+01  0.11397485317E+02  0.23692169003E+02  0.00000000000E+00 0.  1.
         14    1    4    4    0    0  0.31044856928E+02  0.76572134712E+02 -0.89898787621E+02  0.12210187129E+03  0.00000000000E+00 0. -1.
         -5    1    5    5    0  502 -0.32983926685E+02  0.28901481875E+02 -0.16051074679E+03  0.16646028028E+03  0.47000000000E+01 0.  1.
         13    1    6    6    0    0  0.14420601101E+02 -0.32310480409E+02 -0.84398358702E+02  0.91515047025E+02  0.00000000000E+00 0. -1.
        -14    1    6    6    0    0 -0.86179722311E+02 -0.10811991911E+03 -0.19299249190E+03  0.23740885277E+03  0.00000000000E+00 0.  1.
</event>
<event>
12    1  0.1594900E-001  0.2122219E+03  0.7818608E-02  0.1139826E+00
         21   -1    0    0  503  502  0.00000000000E+00  0.00000000000E+00  0.80660978442E+02  0.80660978442E+02  0.00000000000E+00 0. -1.
         21   -1    0    0  501  503 -0.00000000000E+00 -0.00000000000E+00 -0.56823190135E+03  0.56823190135E+03  0.00000000000E+00 0. -1.
          6    2    1    2  501    0  0.20852745244E+02 -0.12211332439E+03 -0.20078767369E+03  0.29212576639E+03  0.17226512273E+03 0.  0.
         24    2    3    3    0    0  0.44246297466E+01 -0.14903596268E+03 -0.19774403228E+03  0.26009351414E+03  0.79464698317E+02 0.  0.
         -6    2    1    2    0  502 -0.20852745244E+02  0.12211332439E+03 -0.28678324922E+03  0.35676711340E+03  0.17231262343E+03 0.  0.
        -24    2    5    5    0    0  0.99642099803E+01  0.36378671999E+02 -0.46191141160E+02  0.99460355210E+02  0.79599293213E+02 0.  0.
          5    1    3    3  501    0  0.16428115498E+02  0.26922638289E+02 -0.30436414140E+01  0.32032252251E+02  0.47000000000E+01 0. -1.
        -13    1    4    4    0    0  0.35362813612E+02 -0.33088402528E+02 -0.66370526028E+02  0.82160925589E+02  0.00000000000E+00 0.  1.
         14    1    4    4    0    0 -0.30938183865E+02 -0.11594756015E+03 -0.13137350625E+03  0.17793258855E+03  0.00000000000E+00 0. -1.
         -5    1    5    5    0  502 -0.30816955225E+02  0.85734652390E+02 -0.24059210806E+03  0.25730675819E+03  0.47000000000E+01 0.  1.
         11    1    6    6    0    0  0.35626493174E+02  0.46571554440E+02 -0.21608344578E+02  0.62490617330E+02  0.00000000000E+00 0. -1.
        -12    1    6    6    0    0 -0.25662283194E+02 -0.10192882441E+02 -0.24582796581E+02  0.36969737880E+02  0.00000000000E+00 0.  1.
</event>
<event>
12    1  0.1594900E-001  0.2024810E+03  0.7818608E-02  0.1148914E+00
         21   -1    0    0  503  502  0.00000000000E+00  0.00000000000E+00  0.19421593596E+03  0.19421593596E+03  0.00000000000E+00 0. -1.
         21   -1    0    0  501  503 -0.00000000000E+00 -0.00000000000E+00 -0.24161038267E+03  0.24161038267E+03  0.00000000000E+00 0.  1.
          6    2    1    2  501    0 -0.10768125704E+03 -0.12882866950E+01  0.61469881418E+02  0.20593504074E+03  0.16441953011E+03 0.  0.
         24    2    3    3    0    0 -0.98778854464E+01 -0.39710497956E+02  0.37575661686E+02  0.98070359074E+02  0.80816883812E+02 0.  0.
         -6    2    1    2    0  502  0.10768125704E+03  0.12882866950E+01 -0.10886432813E+03  0.22989127789E+03  0.17146907858E+03 0.  0.
        -24    2    5    5    0    0  0.38027907567E+01  0.38512578947E+02 -0.28413972530E+02  0.93250385739E+02  0.79941232482E+02 0.  0.
          5    1    3    3  501    0 -0.97803371597E+02  0.38422211261E+02  0.23894219732E+02  0.10786468166E+03  0.47000000000E+01 0. -1.
        -13    1    4    4    0    0  0.11364473216E+02 -0.22386488250E+02 -0.21430188251E+02  0.33008469764E+02  0.00000000000E+00 0.  1.
         14    1    4    4    0    0 -0.21242358663E+02 -0.17324009706E+02  0.59005849937E+02  0.65061889311E+02  0.00000000000E+00 0. -1.
         -5    1    5    5    0  502  0.10387846629E+03 -0.37224292252E+02 -0.80450355605E+02  0.13664089215E+03  0.47000000000E+01 0.  1.
         11    1    6    6    0    0 -0.18336291093E+01  0.59315845679E+02 -0.37128663207E+02  0.70001924087E+02  0.00000000000E+00 0. -1.
        -12    1    6    6    0    0  0.56364198659E+01 -0.20803266732E+02  0.87146906767E+01  0.23248461652E+02  0.00000000000E+00 0.  1.
</event>
<event>
12    1  0.1594900E-001  0.1841344E+03  0.7818608E-02  0.1164023E+00
         21   -1    0    0  501  502  0.00000000000E+00  0.00000000000E+00  0.18340950058E+03  0.18340950058E+03  0.00000000000E+00 0. -1.
         21   -1    0    0  502  503 -0.00000000000E+00 -0.00000000000E+00 -0.21708995925E+03  0.21708995925E+03  0.00000000000E+00 0. -1.
         -6    2    1    2    0  503 -0.56539053899E+02 -0.30828045720E+02 -0.94794339436E+02  0.20648818415E+03  0.17176836259E+03 0.  0.
        -24    2    3    3    0    0 -0.49445479173E+02  0.40860295451E+02 -0.86200450346E+02  0.13378686372E+03  0.79711906950E+02 0.  0.
          6    2    1    2  501    0  0.56539053899E+02  0.30828045720E+02  0.61113880767E+02  0.19401127567E+03  0.17250633509E+03 0.  0.
         24    2    5    5    0    0  0.29310609138E+02  0.28361766700E+02 -0.34071193865E+02  0.94866133741E+02  0.78582666417E+02 0.  0.
          5    1    5    5  501    0  0.27228444761E+02  0.24662790201E+01  0.95185074633E+02  0.99145141934E+02  0.47000000000E+01 0. -1.
        -11    1    6    6    0    0 -0.25805637370E+02  0.20150576201E+02 -0.14451574613E+02  0.35788610620E+02  0.00000000000E+00 0.  1.
         12    1    6    6    0    0  0.55116246508E+02  0.82111904989E+01 -0.19619619253E+02  0.59077523121E+02  0.00000000000E+00 0. -1.
         -5    1    3    3    0  503 -0.70935747252E+01 -0.71688341171E+02 -0.85938890899E+01  0.72701320427E+02  0.47000000000E+01 0.  1.
         13    1    4    4    0    0 -0.34275488510E+02  0.48317764355E+02 -0.15696147606E+02  0.61284455734E+02  0.00000000000E+00 0. -1.
        -14    1    4    4    0    0 -0.15169990663E+02 -0.74574689043E+01 -0.70504302741E+02  0.72502407988E+02  0.00000000000E+00 0.  1.
</event>
<event>
12    1  0.1594900E-001  0.1977336E+03  0.7818608E-02  0.1151900E+00
         21   -1    0    0  501  502  0.00000000000E+00  0.00000000000E+00  0.32327238392E+03  0.32327238392E+03  0.00000000000E+00 0.  1.
         21   -1    0    0  502  503 -0.00000000000E+00 -0.00000000000E+00 -0.16123631941E+03  0.16123631941E+03  0.00000000000E+00 0.  1.
         -6    2    1    2    0  503  0.78303145096E+02 -0.55812112513E+02 -0.41245674229E+02  0.20092093190E+03  0.17152737623E+03 0.  0.
        -24    2    3    3    0    0  0.11006834302E+03 -0.28708603068E+02 -0.64699055194E+02  0.15279838934E+03  0.78880644113E+02 0.  0.
          6    2    1    2  501    0 -0.78303145096E+02  0.55812112513E+02  0.20328173873E+03  0.28358777144E+03  0.17277784687E+03 0.  0.
         24    2    5    5    0    0 -0.31204377270E+02  0.99242105096E+02  0.11078080324E+03  0.17096907293E+03  0.78328340634E+02 0.  0.
          5    1    5    5  501    0 -0.47098767825E+02 -0.43429992583E+02  0.92500935496E+02  0.11261869851E+03  0.47000000000E+01 0. -1.
        -11    1    6    6    0    0 -0.30993137678E+02  0.50960007660E+02  0.10704736896E+03  0.12254238518E+03  0.00000000000E+00 0.  1.
         12    1    6    6    0    0 -0.21123959222E+00  0.48282097436E+02  0.37334342810E+01  0.48426687750E+02  0.00000000000E+00 0. -1.
         -5    1    3    3    0  503 -0.31765197927E+02 -0.27103509445E+02  0.23453380965E+02  0.48122542558E+02  0.47000000000E+01 0.  1.
         11    1    4    4    0    0  0.74005405959E+02 -0.22811590034E+02  0.11946372932E+01  0.77450603028E+02  0.00000000000E+00 0. -1.
        -12    1    4    4    0    0  0.36062937063E+02 -0.58970130345E+01 -0.65893692488E+02  0.75347786311E+02  0.00000000000E+00 0.  1.
</event>
<event>
12    1  0.1594900E-001  0.2822653E+03  0.7818608E-02  0.1094465E+00
         21   -1    0    0  501  502  0.00000000000E+00  0.00000000000E+00  0.82683954104E+02  0.82683954104E+02  0.00000000000E+00 0.  1.
         21   -1    0    0  502  503 -0.00000000000E+00 -0.00000000000E+00 -0.13435693378E+04  0.13435693378E+04  0.00000000000E+00 0.  1.
         -6    2    1    2    0  503 -0.40398346637E+02 -0.22000648249E+03 -0.10098139241E+04  0.10485217495E+04  0.17215928449E+03 0.  0.
        -24    2    3    3    0    0 -0.65799515842E+02 -0.15085205376E+03 -0.87502631487E+03  0.89484239501E+03  0.89364096747E+02 0.  0.
          6    2    1    2  501    0  0.40398346637E+02  0.22000648249E+03 -0.25107145967E+03  0.37773154242E+03  0.17207370959E+03 0.  0.
         24    2    5    5    0    0  0.72843776003E+02  0.15339373713E+03 -0.23659942376E+03  0.30209098746E+03  0.80273427059E+02 0.  0.
          5    1    5    5  501    0 -0.32445429366E+02  0.66612745357E+02 -0.14472035913E+02  0.75640554957E+02  0.47000000000E+01 0. -1.
        -11    1    6    6    0    0  0.58224783192E+02  0.47631215982E+02 -0.13587730344E+03  0.15531097741E+03  0.00000000000E+00 0.  1.
         12    1    6    6    0    0  0.14618992811E+02  0.10576252115E+03 -0.10072212032E+03  0.14678001005E+03  0.00000000000E+00 0. -1.
         -5    1    3    3    0  503  0.25401169205E+02 -0.69154428729E+02 -0.13478760919E+03  0.15367935451E+03  0.47000000000E+01 0.  1.
         13    1    4    4    0    0 -0.57645584558E+02 -0.27883939050E+02 -0.29761924200E+03  0.30443019017E+03  0.00000000000E+00 0. -1.
        -14    1    4    4    0    0 -0.81539312838E+01 -0.12296811471E+03 -0.57740707286E+03  0.59041220484E+03  0.00000000000E+00 0.  1.
</event>
<event>
12    1  0.1594900E-001  0.2226792E+03  0.7818608E-02  0.1132249E+00
         21   -1    0    0  501  502  0.00000000000E+00  0.00000000000E+00  0.93193707543E+03  0.93193707543E+03  0.00000000000E+00 0.  1.
         21   -1    0    0  502  503 -0.00000000000E+00 -0.00000000000E+00 -0.52757360345E+02  0.52757360345E+02  0.00000000000E+00 0.  1.
         -6    2    1    2    0  503 -0.12839723470E+03  0.53596963132E+02  0.43768612604E+03  0.49022239092E+03  0.17143617850E+03 0.  0.
        -24    2    3    3    0    0 -0.13660496136E+03  0.88984435078E+02  0.33150406131E+03  0.37789981609E+03  0.79587581810E+02 0.  0.
          6    2    1    2  501    0  0.12839723470E+03 -0.53596963132E+02  0.44149358904E+03  0.49447204485E+03  0.17386066156E+03 0.  0.
         24    2    5    5    0    0  0.26166791075E+02  0.14867040540E+02  0.98282731392E+02  0.12984323879E+03  0.79334995552E+02 0.  0.
          5    1    5    5  501    0  0.10223044362E+03 -0.68464003671E+02  0.34321085765E+03  0.36462880606E+03  0.47000000000E+01 0. -1.
        -13    1    6    6    0    0  0.46867363440E+02  0.32894998882E+02  0.69888874920E+02  0.90349795489E+02  0.00000000000E+00 0.  1.
         14    1    6    6    0    0 -0.20700572365E+02 -0.18027958343E+02  0.28393856471E+02  0.39493443298E+02  0.00000000000E+00 0. -1.
         -5    1    3    3    0  503  0.82077266604E+01 -0.35387471946E+02  0.10618206473E+03  0.11232257484E+03  0.47000000000E+01 0.  1.
         11    1    4    4    0    0 -0.49073653364E+02  0.47642379793E+02  0.64986722140E+02  0.94346668523E+02  0.00000000000E+00 0. -1.
        -12    1    4    4    0    0 -0.87531307995E+02  0.41342055285E+02  0.26651733917E+03  0.28355314756E+03  0.00000000000E+00 0.  1.
</event>
<event>
12    1  0.1594900E-001  0.1869069E+03  0.7818608E-02  0.1162403E+00
         21   -1    0    0  503  502  0.00000000000E+00  0.00000000000E+00  0.15514830004E+03  0.15514830004E+03  0.00000000000E+00 0. -1.
         21   -1    0    0  501  503 -0.00000000000E+00 -0.00000000000E+00 -0.48111088603E+03  0.48111088603E+03  0.00000000000E+00 0.  1.
          6    2    1    2  501    0  0.32067385728E+02 -0.55475944068E+02 -0.39663112049E+03  0.43643871082E+03  0.17045998052E+03 0.  0.
         24    2    3    3    0    0 -0.58366534647E+01 -0.94644119108E+02 -0.23279665441E+03  0.26371151435E+03  0.79736470269E+02 0.  0.
         -6    2    1    2    0  502 -0.32067385728E+02  0.55475944068E+02  0.70668534504E+02  0.19982047525E+03  0.17557984783E+03 0.  0.
        -24    2    5    5    0    0 -0.24482752689E+02 -0.39322106794E+02  0.25848301927E+02  0.94581982515E+02  0.78306982077E+02 0.  0.
          5    1    3    3  501    0  0.37904039192E+02  0.39168175040E+02 -0.16383446608E+03  0.17272719647E+03  0.47000000000E+01 0. -1.
        -11    1    4    4    0    0  0.13484860307E+02 -0.92673677220E+02 -0.22319498856E+03  0.24204597667E+03  0.00000000000E+00 0.  1.
         12    1    4    4    0    0 -0.19321513772E+02 -0.19704418877E+01 -0.96016658541E+01  0.21665537677E+02  0.00000000000E+00 0. -1.
         -5    1    5    5    0  502 -0.75846330386E+01  0.94798050862E+02  0.44820232577E+02  0.10523849274E+03  0.47000000000E+01 0.  1.
         11    1    6    6    0    0 -0.43839181261E+02 -0.79123549334E+01 -0.71081946927E+01  0.45111036410E+02  0.00000000000E+00 0. -1.
        -12    1    6    6    0    0  0.19356428572E+02 -0.31409751861E+02  0.32956496620E+02  0.49470946104E+02  0.00000000000E+00 0.  1.
</event>
<event>
12    1  0.1594900E-001  0.3242166E+03  0.7818608E-02  0.1074488E+00
         21   -1    0    0  501  502  0.00000000000E+00  0.00000000000E+00  0.64630097366E+03  0.64630097366E+03  0.00000000000E+00 0.  1.
         21   -1    0    0  502  503 -0.00000000000E+00 -0.00000000000E+00 -0.50962191056E+03  0.50962191056E+03  0.00000000000E+00 0. -1.
         -6    2    1    2    0  503 -0.84356568215E+02 -0.25289491333E+03 -0.41105652996E+03  0.51942410951E+03  0.17251685984E+03 0.  0.
        -24    2    3    3    0    0 -0.24506685892E+02 -0.10142453440E+03 -0.85016022660E+02  0.15493846301E+03  0.76750826561E+02 0.  0.
          6    2    1    2  501    0  0.84356568215E+02  0.25289491333E+03  0.54773559306E+03  0.63649877471E+03  0.18451163245E+03 0.  0.
         24    2    5    5    0    0  0.36443752843E+02  0.25858750773E+03  0.49111164512E+03  0.56195747751E+03  0.80061927765E+02 0.  0.
          5    1    5    5  501    0  0.47912815372E+02 -0.56925944051E+01  0.56623947946E+02  0.74541297205E+02  0.47000000000E+01 0. -1.
        -11    1    6    6    0    0  0.41006766000E+02  0.57467253198E+02  0.15344820513E+03  0.16890941864E+03  0.00000000000E+00 0.  1.
         12    1    6    6    0    0 -0.45630131567E+01  0.20112025454E+03  0.33766343999E+03  0.39304805887E+03  0.00000000000E+00 0. -1.
         -5    1    3    3    0  503 -0.59849882323E+02 -0.15147037893E+03 -0.32604050731E+03  0.36448564651E+03  0.47000000000E+01 0.  1.
         13    1    4    4    0    0 -0.48755056327E+02 -0.89849453716E+02 -0.72320567485E+02  0.12522078235E+03  0.00000000000E+00 0. -1.
        -14    1    4    4    0    0  0.24248370435E+02 -0.11575080686E+02 -0.12695455175E+02  0.29717680659E+02  0.00000000000E+00 0.  1.
</event>
<event>
12    1  0.1594900E-001  0.1791688E+03  0.7818608E-02  0.1168743E+00
         21   -1    0    0  503  502  0.00000000000E+00  0.00000000000E+00  0.30689415295E+03  0.30689415295E+03  0.00000000000E+00 0.  1.
         21   -1    0    0  501  503 -0.00000000000E+00 -0.00000000000E+00 -0.14663000699E+03  0.14663000699E+03  0.00000000000E+00 0.  1.
          6    2    1    2  501    0 -0.38638925942E+02 -0.29814344936E+02  0.20190710563E+03  0.26957966023E+03  0.17182797252E+03 0.  0.
         24    2    3    3    0    0  0.27742376739E+02 -0.38080718030E+02  0.18130534766E+03  0.19942744928E+03  0.68409779132E+02 0.  0.
         -6    2    1    2    0  502  0.38638925942E+02  0.29814344936E+02 -0.41642959679E+02  0.18394449971E+03  0.17239368063E+03 0.  0.
        -24    2    5    5    0    0 -0.24223279237E+02  0.45405206129E+02 -0.63145054081E+02  0.11554010032E+03  0.81937884564E+02 0.  0.
          5    1    3    3  501    0 -0.66381302680E+02  0.82663730939E+01  0.20601757970E+02  0.70152210949E+02  0.47000000000E+01 0. -1.
        -11    1    4    4    0    0  0.15983108914E+01 -0.26606931675E+01  0.13677156950E+03  0.13680678385E+03  0.00000000000E+00 0.  1.
         12    1    4    4    0    0  0.26144065847E+02 -0.35420024863E+02  0.44533778170E+02  0.62620665426E+02  0.00000000000E+00 0. -1.
         -5    1    5    5    0  502  0.62862205179E+02 -0.15590861193E+02  0.21502094401E+02  0.68404399393E+02  0.47000000000E+01 0.  1.
         11    1    6    6    0    0  0.14350599656E+02  0.53678607674E+02 -0.25970021528E+02  0.61333307839E+02  0.00000000000E+00 0. -1.
        -12    1    6    6    0    0 -0.38573878893E+02 -0.82734015444E+01 -0.37175032553E+02  0.54206792483E+02  0.00000000000E+00 0.  1.
</event>
<event>
12    1  0.1594900E-001  0.2146289E+03  0.7818608E-02  0.1139003E+00
         21   -1    0    0  503  502  0.00000000000E+00  0.00000000000E+00  0.16486849228E+03  0.16486849228E+03  0.00000000000E+00 0. -1.
         21   -1    0    0  501  503 -0.00000000000E+00 -0.00000000000E+00 -0.27243763111E+03  0.27243763111E+03  0.00000000000E+00 0.  1.
          6    2    1    2  501    0  0.94237689366E+02  0.83082490248E+02 -0.55115526189E+02  0.22159262347E+03  0.17401760620E+03 0.  0.
         24    2    3    3    0    0 -0.11511022404E+02  0.10034301265E+02 -0.39865946449E+02  0.92080200762E+02  0.81586021152E+02 0.  0.
         -6    2    1    2    0  502 -0.94237689366E+02 -0.83082490248E+02 -0.52453612644E+02  0.21571349991E+03  0.16732450592E+03 0.  0.
        -24    2    5    5    0    0 -0.25830188171E+02 -0.94962502203E+02  0.38864095547E+01  0.12617574807E+03  0.78867862757E+02 0.  0.
          5    1    3    3  501    0  0.10574871177E+03  0.73048188983E+02 -0.15249579739E+02  0.12951242271E+03  0.47000000000E+01 0. -1.
        -11    1    4    4    0    0  0.99633708105E+01  0.13361536044E+02 -0.60111847694E+02  0.62379753418E+02  0.00000000000E+00 0.  1.
         12    1    4    4    0    0 -0.21474393214E+02 -0.33272347792E+01  0.20245901245E+02  0.29700447344E+02  0.00000000000E+00 0. -1.
         -5    1    5    5    0  502 -0.68407501195E+02  0.11880011955E+02 -0.56340022199E+02  0.89537751843E+02  0.47000000000E+01 0.  1.
         11    1    6    6    0    0 -0.24073192058E+02 -0.17107504398E+02  0.31847545972E+02  0.43433299057E+02  0.00000000000E+00 0. -1.
        -12    1    6    6    0    0 -0.17569961129E+01 -0.77854997805E+02 -0.27961136417E+02  0.82742449011E+02  0.00000000000E+00 0.  1.
</event>
<event>
12    1  0.1594900E-001  0.1873799E+03  0.7818608E-02  0.1160897E+00
         21   -1    0    0  503  502  0.00000000000E+00  0.00000000000E+00  0.87545144013E+03  0.87545144013E+03  0.00000000000E+00 0. -1.
         21   -1    0    0  501  503 -0.00000000000E+00 -0.00000000000E+00 -0.49614217824E+02  0.49614217824E+02  0.00000000000E+00 0. -1.
          6    2    1    2  501    0  0.66310028178E+02 -0.31309546938E+02  0.21013424252E+03  0.28154507300E+03  0.17243526520E+03 0.  0.
         24    2    3    3    0    0  0.45407640168E+02 -0.84811830274E+02  0.14092007947E+03  0.19147790632E+03  0.86893149742E+02 0.  0.
         -6    2    1    2    0  502 -0.66310028178E+02  0.31309546938E+02  0.61570297978E+03  0.64352058495E+03  0.17219545980E+03 0.  0.
        -24    2    5    5    0    0 -0.36603222651E+02  0.69119569550E+02  0.55333194688E+03  0.56462617545E+03  0.80679388727E+02 0.  0.
          5    1    3    3  501    0  0.20902388011E+02  0.53502283336E+02  0.69214163056E+02  0.90067166683E+02  0.47000000000E+01 0. -1.
        -13    1    4    4    0    0  0.12207599705E+02 -0.12727841389E+02 -0.10496922516E+02  0.20523372512E+02  0.00000000000E+00 0.  1.
         14    1    4    4    0    0  0.33200040463E+02 -0.72083988885E+02  0.15141700198E+03  0.17095453381E+03  0.00000000000E+00 0. -1.
         -5    1    5    5    0  502 -0.29706805527E+02 -0.37810022612E+02  0.62371032903E+02  0.78894409497E+02  0.47000000000E+01 0.  1.
         11    1    6    6    0    0 -0.30605249555E+02  0.83389577878E+02  0.36477097190E+03  0.37543090568E+03  0.00000000000E+00 0. -1.
        -12    1    6    6    0    0 -0.59979730959E+01 -0.14270008328E+02  0.18856097498E+03  0.18919526977E+03  0.00000000000E+00 0.  1.
</event>
<event>
12    1  0.1594900E-001  0.1737913E+03  0.7818608E-02  0.1174271E+00
         21   -1    0    0  501  502  0.00000000000E+00  0.00000000000E+00  0.15555902483E+03  0.15555902483E+03  0.00000000000E+00 0. -1.
         21   -1    0    0  502  503 -0.00000000000E+00 -0.00000000000E+00 -0.28139649658E+03  0.28139649658E+03  0.00000000000E+00 0. -1.
         -6    2    1    2    0  503 -0.16331207147E+02 -0.36847804869E+01 -0.18538249177E+03  0.25324646021E+03  0.17171725430E+03 0.  0.
        -24    2    3    3    0    0  0.21322217082E+02  0.29935893905E+02 -0.17718200420E+03  0.20189017434E+03  0.89528683658E+02 0.  0.
          6    2    1    2  501    0  0.16331207147E+02  0.36847804869E+01  0.59545020014E+02  0.18370906119E+03  0.17298301599E+03 0.  0.
         24    2    5    5    0    0 -0.49492466553E+02 -0.21064471313E+02  0.38113354566E+02  0.11004300545E+03  0.88111401395E+02 0.  0.
          5    1    5    5  501    0  0.65823673699E+02  0.24749251800E+02  0.21431665448E+02  0.73666055736E+02  0.47000000000E+01 0. -1.
        -11    1    6    6    0    0 -0.61935079821E+02  0.14008757570E+02  0.12111660498E+02  0.64644347944E+02  0.00000000000E+00 0.  1.
         12    1    6    6    0    0  0.12442613269E+02 -0.35073228883E+02  0.26001694068E+02  0.45398657510E+02  0.00000000000E+00 0. -1.
         -5    1    3    3    0  503 -0.37653424229E+02 -0.33620674392E+02 -0.82004875704E+01  0.51356285877E+02  0.47000000000E+01 0.  1.
         11    1    4    4    0    0  0.38033294326E+02 -0.16135016041E+02 -0.11815658951E+03  0.12517128211E+03  0.00000000000E+00 0. -1.
        -12    1    4    4    0    0 -0.16711077244E+02  0.46070909947E+02 -0.59025414688E+02  0.76718892230E+02  0.00000000000E+00 0.  1.
</event>
<event>
12    1  0.1594900E-001  0.2375177E+03  0.7818608E-02  0.1121659E+00
         21   -1    0    0  501  502  0.00000000000E+00  0.00000000000E+00  0.81396839209E+02  0.81396839209E+02  0.00000000000E+00 0. -1.
         21   -1    0    0  502  503 -0.00000000000E+00 -0.00000000000E+00 -0.69462566371E+03  0.69462566371E+03  0.00000000000E+00 0. -1.
         -6    2    1    2    0  503  0.28845090448E+02  0.16078369023E+03 -0.33878983116E+03  0.41307425139E+03  0.17078745030E+03 0.  0.
        -24    2    3    3    0    0  0.18014181644E+01  0.17245713152E+03 -0.21909206454E+03  0.28971593276E+03  0.78671987591E+02 0.  0.
          6    2    1    2  501    0 -0.28845090448E+02 -0.16078369023E+03 -0.27443899334E+03  0.36294825153E+03  0.17242748601E+03 0.  0.
         24    2    5    5    0    0 -0.66813524787E+02 -0.12603246513E+03 -0.12769141084E+03  0.20736485709E+03  0.79667171373E+02 0.  0.
          5    1    5    5  501    0  0.37968434339E+02 -0.34751225106E+02 -0.14674758250E+03  0.15558339443E+03  0.47000000000E+01 0. -1.
        -13    1    6    6    0    0 -0.22289326536E+02 -0.88819032077E+01 -0.60672360663E+02  0.65244445207E+02  0.00000000000E+00 0.  1.
         14    1    6    6    0    0 -0.44524198251E+02 -0.11715056192E+03 -0.67019050178E+02  0.14212041189E+03  0.00000000000E+00 0. -1.
         -5    1    3    3    0  503  0.27043672284E+02 -0.11673441289E+02 -0.11969776662E+03  0.12335831863E+03  0.47000000000E+01 0.  1.
         11    1    4    4    0    0 -0.31354659246E+02  0.67696634297E+02 -0.56992242156E+02  0.93883249930E+02  0.00000000000E+00 0. -1.
        -12    1    4    4    0    0  0.33156077410E+02  0.10476049723E+03 -0.16209982238E+03  0.19583268283E+03  0.00000000000E+00 0.  1.
</event>
<event>
12    1  0.1594900E-001  0.1879407E+03  0.7818608E-02  0.1160734E+00
         21   -1    0    0  501  502  0.00000000000E+00  0.00000000000E+00  0.50608068026E+03  0.50608068026E+03  0.00000000000E+00 0.  1.
         21   -1    0    0  502  503 -0.00000000000E+00 -0.00000000000E+00 -0.10766187040E+03  0.10766187040E+03  0.00000000000E+00 0.  1.
         -6    2    1    2    0  503 -0.27340279086E+02 -0.67769928552E+02  0.16263071501E+02  0.18864305267E+03  0.17315155139E+03 0.  0.
        -24    2    3    3    0    0  0.44110940750E+02 -0.56032251065E+02  0.33341301550E+02  0.11409906679E+03  0.82592774508E+02 0.  0.
          6    2    1    2  501    0  0.27340279086E+02  0.67769928552E+02  0.38215573836E+03  0.42509949799E+03  0.17124929418E+03 0.  0.
         24    2    5    5    0    0  0.36419566522E+02  0.99651176785E+02  0.20147922348E+03  0.24134710896E+03  0.79986296614E+02 0.  0.
          5    1    5    5  501    0 -0.90792874365E+01 -0.31881248233E+02  0.18067651488E+03  0.18375238904E+03  0.47000000000E+01 0. -1.
        -11    1    6    6    0    0  0.49266635730E+02  0.22686148878E+02  0.71498559102E+02  0.89743560776E+02  0.00000000000E+00 0.  1.
         12    1    6    6    0    0 -0.12847069208E+02  0.76965027907E+02  0.12998066438E+03  0.15160354818E+03  0.00000000000E+00 0. -1.
         -5    1    3    3    0  503 -0.71451219836E+02 -0.11737677487E+02 -0.17078230048E+02  0.74543985877E+02  0.47000000000E+01 0.  1.
         11    1    4    4    0    0  0.45801044570E+02 -0.50094013507E+02 -0.11492610678E+02  0.68842036381E+02  0.00000000000E+00 0. -1.
        -12    1    4    4    0    0 -0.16901038195E+01 -0.59382375585E+01  0.44833912227E+02  0.45257030413E+02  0.00000000000E+00 0.  1.
</event>
<event>
12    1  0.1594900E-001  0.1957636E+03  0.7818608E-02  0.1153575E+00
         21   -1    0    0  501  502  0.00000000000E+00  0.00000000000E+00  0.57999322897E+03  0.57999322897E+03  0.00000000000E+00 0.  1.
         21   -1    0    0  502  503 -0.00000000000E+00 -0.00000000000E+00 -0.10131567762E+03  0.10131567762E+03  0.00000000000E+00 0.  1.
         -6    2    1    2    0  503 -0.34846037598E+02 -0.84205982728E+02  0.37110447149E+02  0.19829246255E+03  0.17215638691E+03 0.  0.
        -24    2    3    3    0    0 -0.12416526333E+02 -0.56873110338E+01 -0.35956530759E+02  0.88615035336E+02  0.79832554452E+02 0.  0.
          6    2    1    2  501    0  0.34846037598E+02  0.84205982728E+02  0.44156710420E+03  0.48301644404E+03  0.17325843078E+03 0.  0.
         24    2    5    5    0    0  0.73972405523E+01  0.15756133596E+02  0.37402556134E+03  0.38290266718E+03  0.80102166540E+02 0.  0.
          5    1    5    5  501    0  0.27448797046E+02  0.68449849132E+02  0.67541542867E+02  0.10011377687E+03  0.47000000000E+01 0. -1.
        -11    1    6    6    0    0  0.35076801946E+02  0.33047498871E+02  0.19073531152E+03  0.19672945453E+03  0.00000000000E+00 0.  1.
         12    1    6    6    0    0 -0.27679561394E+02 -0.17291365274E+02  0.18329024981E+03  0.18617321265E+03  0.00000000000E+00 0. -1.
         -5    1    3    3    0  503 -0.22429511265E+02 -0.78518671694E+02  0.73066977908E+02  0.10967742722E+03  0.47000000000E+01 0.  1.
         13    1    4    4    0    0  0.26934489294E+02 -0.24094433953E+02 -0.24583665888E+02  0.43707723454E+02  0.00000000000E+00 0. -1.
        -14    1    4    4    0    0 -0.39351015627E+02  0.18407122920E+02 -0.11372864872E+02  0.44907311882E+02  0.00000000000E+00 0.  1.
</event>
<event>
12    1  0.1594900E-001  0.1938701E+03  0.7818608E-02  0.1155569E+00
         21   -1    0    0  503  502  0.00000000000E+00  0.00000000000E+00  0.44034977532E+03  0.44034977532E+03  0.00000000000E+00 0.  1.
         21   -1    0    0  501  503 -0.00000000000E+00 -0.00000000000E+00 -0.94593586103E+02  0.94593586103E+02  0.00000000000E+00 0.  1.
          6    2    1    2  501    0  0.72647303931E+02  0.40319156196E+02  0.83462360787E+02  0.20877826612E+03  0.17239238270E+03 0.  0.
         24    2    3    3    0    0  0.19761718674E+02 -0.32887206505E+02  0.41515194417E+01  0.88493785733E+02  0.79635551879E+02 0.  0.
         -6    2    1    2    0  502 -0.72647303931E+02 -0.40319156196E+02  0.26229382843E+03  0.32616509530E+03  0.17516378574E+03 0.  0.
        -24    2    5    5    0    0  0.22417880302E+02  0.17021556772E+02  0.11496198656E+03  0.14162754290E+03  0.77780510423E+02 0.  0.
          5    1    3    3  501    0  0.52885585257E+02  0.73206362701E+02  0.79310841346E+02  0.12028448039E+03  0.47000000000E+01 0. -1.
        -13    1    4    4    0    0 -0.29182179431E+02 -0.21861033714E+02 -0.69273273679E+01  0.37114582793E+02  0.00000000000E+00 0.  1.
         14    1    4    4    0    0  0.48943898105E+02 -0.11026172790E+02  0.11078846810E+02  0.51379202940E+02  0.00000000000E+00 0. -1.
         -5    1    5    5    0  502 -0.95065184234E+02 -0.57340712968E+02  0.14733184187E+03  0.18453755240E+03  0.47000000000E+01 0.  1.
         11    1    6    6    0    0 -0.53605808589E+01 -0.25507795055E+02  0.66480562413E+02  0.71407622944E+02  0.00000000000E+00 0. -1.
        -12    1    6    6    0    0  0.27778461161E+02  0.42529351827E+02  0.48481424150E+02  0.70219919958E+02  0.00000000000E+00 0.  1.
</event>
<event>
12    1  0.1594900E-001  0.1811772E+03  0.7818608E-02  0.1166920E+00
         21   -1    0    0  501  502  0.00000000000E+00  0.00000000000E+00  0.16040912525E+03  0.16040912525E+03  0.00000000000E+00 0.  1.
         21   -1    0    0  502  503 -0.00000000000E+00 -0.00000000000E+00 -0.26674646592E+03  0.26674646592E+03  0.00000000000E+00 0.  1.
         -6    2    1    2    0  503  0.50004390404E+02  0.22607877374E+02  0.50982927845E+02  0.18720799792E+03  0.17156928739E+03 0.  0.
        -24    2    3    3    0    0  0.52230978333E+02  0.40045108239E+02  0.94507725686E+02  0.14003265753E+03  0.79660210701E+02 0.  0.
          6    2    1    2  501    0 -0.50004390404E+02 -0.22607877374E+02 -0.15732026852E+03  0.23994759325E+03  0.17266622553E+03 0.  0.
         24    2    5    5    0    0 -0.38268289387E+02 -0.31424454829E+02 -0.12108346321E+02  0.93919991565E+02  0.78882155339E+02 0.  0.
          5    1    5    5  501    0 -0.11736101016E+02  0.88165774557E+01 -0.14521192220E+03  0.14602760168E+03  0.47000000000E+01 0. -1.
        -11    1    6    6    0    0 -0.10476439838E+02  0.82972092545E+01 -0.37060561024E+02  0.39396505638E+02  0.00000000000E+00 0.  1.
         12    1    6    6    0    0 -0.27791849549E+02 -0.39721664084E+02  0.24952214703E+02  0.54523485926E+02  0.00000000000E+00 0. -1.
         -5    1    3    3    0  503 -0.22265879294E+01 -0.17437230865E+02 -0.43524797841E+02  0.47175340392E+02  0.47000000000E+01 0.  1.
         13    1    4    4    0    0  0.28548817596E+02 -0.21324951766E+02  0.46562323490E+02  0.58633083859E+02  0.00000000000E+00 0. -1.
        -14    1    4    4    0    0  0.23682160737E+02  0.61370060004E+02  0.47945402195E+02  0.81399573671E+02  0.00000000000E+00 0.  1.
</event>
<event>
12    1  0.1594900E-001  0.1745993E+03  0.7818608E-02  0.1173305E+00
         21   -1    0    0  501  502  0.00000000000E+00  0.00000000000E+00  0.56751197130E+02  0.56751197130E+02  0.00000000000E+00 0.  1.
         21   -1    0    0  502  503 -0.00000000000E+00 -0.00000000000E+00 -0.88269001749E+03  0.88269001749E+03  0.00000000000E+00 0.  1.
         -6    2    1    2    0  503 -0.31530926039E+02  0.32709326191E+01 -0.70724763965E+03  0.72831916470E+03  0.17101077039E+03 0.  0.
        -24    2    3    3    0    0 -0.57994566482E+02  0.28528535457E+02 -0.24274581640E+03  0.26235532000E+03  0.75680482804E+02 0.  0.
          6    2    1    2  501    0  0.31530926039E+02 -0.32709326191E+01 -0.11869118071E+03  0.21112204991E+03  0.17169748188E+03 0.  0.
         24    2    5    5    0    0  0.44450906632E+02 -0.48606011289E+02 -0.12557986538E+03  0.16324993660E+03  0.80881467445E+02 0.  0.
          5    1    5    5  501    0 -0.12919980593E+02  0.45335078670E+02  0.68886846755E+01  0.47872113314E+02  0.47000000000E+01 0. -1.
        -11    1    6    6    0    0 -0.19219508037E+02 -0.32046459249E+02 -0.34231610637E+02  0.50677097454E+02  0.00000000000E+00 0.  1.
         12    1    6    6    0    0  0.63670414669E+02 -0.16559552040E+02 -0.91348254744E+02  0.11257283914E+03  0.00000000000E+00 0. -1.
         -5    1    3    3    0  503  0.26463640444E+02 -0.25257602838E+02 -0.46450182325E+03  0.46596384470E+03  0.47000000000E+01 0.  1.
         11    1    4    4    0    0  0.10102480990E+01  0.38101316314E+02 -0.11847825814E+03  0.12445813978E+03  0.00000000000E+00 0. -1.
        -12    1    4    4    0    0 -0.59004814581E+02 -0.95727808572E+01 -0.12426755826E+03  0.13789718023E+03  0.00000000000E+00 0.  1.
</event>
<event>
12    1  0.1594900E-001  0.1996352E+03  0.7818608E-02  0.1150860E+00
         21   -1    0    0  503  502  0.00000000000E+00  0.00000000000E+00  0.30855821680E+02  0.30855821680E+02  0.00000000000E+00 0. -1.
         21   -1    0    0  501  503 -0.00000000000E+00 -0.00000000000E+00 -0.13280469759E+04  0.13280469759E+04  0.00000000000E+00 0. -1.
          6    2    1    2  501    0 -0.58055562834E+02  0.78860975246E+02 -0.80008107145E+03  0.82461137767E+03  0.17396753005E+03 0.  0.
         24    2    3    3    0    0  0.12260578539E+02  0.31491100613E+02 -0.61593365713E+03  0.62182916701E+03  0.78455285108E+02 0.  0.
         -6    2    1    2    0  502  0.58055562834E+02 -0.78860975246E+02 -0.49711008274E+03  0.53429141987E+03  0.16958592275E+03 0.  0.
        -24    2    5    5    0    0 -0.18793521227E+01 -0.69612714501E+02 -0.17943380125E+03  0.21084430800E+03  0.86077704429E+02 0.  0.
          5    1    3    3  501    0 -0.70316141373E+02  0.47369874633E+02 -0.18414741432E+03  0.20278221066E+03  0.47000000000E+01 0. -1.
        -13    1    4    4    0    0  0.23775384126E+02 -0.19708162464E+02 -0.16626251426E+03  0.16910619210E+03  0.00000000000E+00 0.  1.
         14    1    4    4    0    0 -0.11514805587E+02  0.51199263077E+02 -0.44967114286E+03  0.45272297491E+03  0.00000000000E+00 0. -1.
         -5    1    5    5    0  502  0.59934914957E+02 -0.92482607450E+01 -0.31767628149E+03  0.32344711187E+03  0.47000000000E+01 0.  1.
         13    1    6    6    0    0  0.27106455405E+02 -0.31865557225E+02 -0.23875640926E+02  0.48168660886E+02  0.00000000000E+00 0. -1.
        -14    1    6    6    0    0 -0.28985807528E+02 -0.37747157277E+02 -0.15555816032E+03  0.16267564711E+03  0.00000000000E+00 0.  1.
</event>
<event>
12    1  0.1594900E-001  0.1896311E+03  0.7818608E-02  0.1159694E+00
         21   -1    0    0  501  502  0.00000000000E+00  0.00000000000E+00  0.51457047653E+02  0.51457047653E+02  0.00000000000E+00 0. -1.
         21   -1    0    0  502  503 -0.00000000000E+00 -0.00000000000E+00 -0.89809074480E+03  0.89809074480E+03  0.00000000000E+00 0. -1.
         -6    2    1    2    0  503  0.15109296867E+02  0.78315029855E+02 -0.65826941354E+03  0.68503910397E+03  0.17204190887E+03 0.  0.
        -24    2    3    3    0    0  0.34424380419E+02  0.22055857448E+02 -0.57881835922E+03  0.58567750694E+03  0.79472953525E+02 0.  0.
          6    2    1    2  501    0 -0.15109296867E+02 -0.78315029855E+02 -0.18836428360E+03  0.26450868848E+03  0.16769677454E+03 0.  0.
         24    2    5    5    0    0 -0.61431965511E+02 -0.69507432381E+02 -0.16003788548E+03  0.20930145857E+03  0.97927556024E+02 0.  0.
          5    1    5    5  501    0  0.46322668644E+02 -0.88075974734E+01 -0.28326398123E+02  0.55207229909E+02  0.47000000000E+01 0. -1.
        -11    1    6    6    0    0 -0.66419353929E+02 -0.90951798219E+02 -0.13838510255E+03  0.17842140226E+03  0.00000000000E+00 0.  1.
         12    1    6    6    0    0  0.49873884173E+01  0.21444365838E+02 -0.21652782925E+02  0.30880056311E+02  0.00000000000E+00 0. -1.
         -5    1    3    3    0  503 -0.19315083552E+02  0.56259172407E+02 -0.79451054318E+02  0.99361597032E+02  0.47000000000E+01 0.  1.
         11    1    4    4    0    0 -0.18881653087E+02 -0.13149610187E+02 -0.22165940965E+03  0.22285044976E+03  0.00000000000E+00 0. -1.
        -12    1    4    4    0    0  0.53306033507E+02  0.35205467635E+02 -0.35715894957E+03  0.36282705717E+03  0.00000000000E+00 0.  1.
</event>
<event>
12    1  0.1594900E-001  0.1782000E+03  0.7818608E-02  0.1169981E+00
         21   -1    0    0  501  502  0.00000000000E+00  0.00000000000E+00  0.64238776126E+02  0.64238776126E+02  0.00000000000E+00 0. -1.
         21   -1    0    0  502  503 -0.00000000000E+00 -0.00000000000E+00 -0.51814977521E+03  0.51814977521E+03  0.00000000000E+00 0. -1.
         -6    2    1    2    0  503 -0.17075168480E+02 -0.35303170652E+02 -0.15752053465E+03  0.23655254040E+03  0.17206542447E+03 0.  0.
        -24    2    3    3    0    0 -0.46938620252E+02 -0.54856918070E+01 -0.21752046654E+02  0.94298963540E+02  0.78649959347E+02 0.  0.
          6    2    1    2  501    0  0.17075168480E+02  0.35303170652E+02 -0.29639046443E+03  0.34583601094E+03  0.17383142356E+03 0.  0.
         24    2    5    5    0    0  0.36928609324E+02  0.75381662993E+02 -0.13268927549E+03  0.17606965996E+03  0.79674111398E+02 0.  0.
          5    1    5    5  501    0 -0.19853440844E+02 -0.40078492341E+02 -0.16370118894E+03  0.16976635097E+03  0.47000000000E+01 0. -1.
        -11    1    6    6    0    0 -0.82405679655E+01 -0.56562406767E+01  0.40856750163E+01  0.10797812710E+02  0.00000000000E+00 0.  1.
         12    1    6    6    0    0  0.45169177289E+02  0.81037903669E+02 -0.13677495051E+03  0.16527184725E+03  0.00000000000E+00 0. -1.
         -5    1    3    3    0  503  0.29863451772E+02 -0.29817478845E+02 -0.13576848800E+03  0.14225357686E+03  0.47000000000E+01 0.  1.
         13    1    4    4    0    0 -0.51624896262E+02  0.26751980137E+02 -0.70911883658E+01  0.58575449702E+02  0.00000000000E+00 0. -1.
        -14    1    4    4    0    0  0.46862760103E+01 -0.32237671944E+02 -0.14660858288E+02  0.35723513838E+02  0.00000000000E+00 0.  1.
</event>
<event>
12    1  0.1594900E-001  0.2286659E+03  0.7818608E-02  0.1127657E+00
         21   -1    0    0  501  502  0.00000000000E+00  0.00000000000E+00  0.17455015475E+03  0.17455015475E+03  0.00000000000E+00 0. -1.
         21   -1    0    0  502  503 -0.00000000000E+00 -0.00000000000E+00 -0.29975238893E+03  0.29975238893E+03  0.00000000000E+00 0. -1.
         -6    2    1    2    0  503 -0.56430848019E+02 -0.13902220098E+03 -0.74479294833E+02  0.24048963989E+03  0.17255865253E+03 0.  0.
        -24    2    3    3    0    0 -0.25010989179E+02  0.42563905811E+01 -0.31509870548E+02  0.87569975514E+02  0.77665708193E+02 0.  0.
          6    2    1    2  501    0  0.56430848019E+02  0.13902220098E+03 -0.50722939344E+02  0.23381290379E+03  0.17200012916E+03 0.  0.
         24    2    5    5    0    0  0.87879756905E+02  0.67126506118E+02 -0.69082177315E+02  0.15308387290E+03  0.80209135534E+02 0.  0.
          5    1    5    5  501    0 -0.31448908886E+02  0.71895694860E+02  0.18359237971E+02  0.80729030890E+02  0.47000000000E+01 0. -1.
        -13    1    6    6    0    0 -0.67755799129E+01  0.31850501046E+02 -0.37395610695E+01  0.32777236263E+02  0.00000000000E+00 0.  1.
         14    1    6    6    0    0  0.94655336818E+02  0.35276005073E+02 -0.65342616246E+02  0.12030663664E+03  0.00000000000E+00 0. -1.
         -5    1    3    3    0  503 -0.31419858840E+02 -0.14327859156E+03 -0.42969424286E+02  0.15291966437E+03  0.47000000000E+01 0.  1.
         11    1    4    4    0    0 -0.16407780384E+02 -0.21777451596E+02  0.16796321592E+02  0.32024819658E+02  0.00000000000E+00 0. -1.
        -12    1    4    4    0    0 -0.86032087951E+01  0.26033842177E+02 -0.48306192139E+02  0.55545155856E+02  0.00000000000E+00 0.  1.
</event>
<event>
12    1  0.1594900E-001  0.2057095E+03  0.7818608E-02  0.1145105E+00
         21   -1    0    0  503  502  0.00000000000E+00  0.00000000000E+00  0.95611625349E+03  0.95611625349E+03  0.00000000000E+00 0. -1.
         21   -1    0    0  501  503 -0.00000000000E+00 -0.00000000000E+00 -0.45319850834E+02  0.45319850834E+02  0.00000000000E+00 0.  1.
          6    2    1    2  501    0 -0.89121967844E+02 -0.69028687919E+02  0.37572620082E+03  0.42835335446E+03  0.17207188435E+03 0.  0.
         24    2    3    3    0    0 -0.27942433622E+02 -0.99548356668E+02  0.18788660099E+03  0.22840288346E+03  0.78586560102E+02 0.  0.
         -6    2    1    2    0  502  0.89121967844E+02  0.69028687919E+02  0.53507020183E+03  0.57308274986E+03  0.17151102703E+03 0.  0.
        -24    2    5    5    0    0  0.18280187757E+01 -0.21382429782E+02  0.20983709147E+03  0.22438077135E+03  0.76515198723E+02 0.  0.
          5    1    3    3  501    0 -0.61179534222E+02  0.30519668749E+02  0.18783959983E+03  0.19995047100E+03  0.47000000000E+01 0. -1.
        -13    1    4    4    0    0 -0.37858181798E+02 -0.49364213913E+02  0.15644084503E+03  0.16835618651E+03  0.00000000000E+00 0.  1.
         14    1    4    4    0    0  0.99157481761E+01 -0.50184142756E+02  0.31445755962E+02  0.60046696945E+02  0.00000000000E+00 0. -1.
         -5    1    5    5    0  502  0.87293949068E+02  0.90411117701E+02  0.32523311036E+03  0.34870197851E+03  0.47000000000E+01 0.  1.
         11    1    6    6    0    0  0.19955414660E+02 -0.18240877608E+02  0.20293976659E+03  0.20473274544E+03  0.00000000000E+00 0. -1.
        -12    1    6    6    0    0 -0.18127395884E+02 -0.31415521741E+01  0.68973248839E+01  0.19648025910E+02  0.00000000000E+00 0.  1.
</event>
<event>
12    1  0.1594900E-001  0.2008356E+03  0.7818608E-02  0.1149105E+00
         21   -1    0    0  503  502  0.00000000000E+00  0.00000000000E+00  0.49696728595E+02  0.49696728595E+02  0.00000000000E+00 0.  1.
         21   -1    0    0  501  503 -0.00000000000E+00 -0.00000000000E+00 -0.81061056795E+03  0.81061056795E+03  0.00000000000E+00 0.  1.
          6    2    1    2  501    0 -0.42074595632E+02  0.93571044763E+02 -0.38856088989E+03  0.43724507321E+03  0.17227268174E+03 0.  0.
         24    2    3    3    0    0 -0.52405744923E+02  0.40642963660E+02 -0.10575359482E+03  0.14930381086E+03  0.81912102433E+02 0.  0.
         -6    2    1    2    0  502  0.42074595632E+02 -0.93571044763E+02 -0.37235294946E+03  0.42306222333E+03  0.17265316048E+03 0.  0.
        -24    2    5    5    0    0  0.16580238264E+02 -0.11455916619E+02 -0.67426999783E+02  0.10621086810E+03  0.79550021221E+02 0.  0.
          5    1    3    3  501    0  0.10331149291E+02  0.52928081103E+02 -0.28280729507E+03  0.28794126235E+03  0.47000000000E+01 0. -1.
        -11    1    4    4    0    0  0.73727553881E+01  0.22457062183E+02 -0.76954764294E+02  0.80502875175E+02  0.00000000000E+00 0.  1.
         12    1    4    4    0    0 -0.59778500311E+02  0.18185901476E+02 -0.28798830528E+02  0.68800935689E+02  0.00000000000E+00 0. -1.
         -5    1    5    5    0  502  0.25494357369E+02 -0.82115128144E+02 -0.30492594967E+03  0.31685135523E+03  0.47000000000E+01 0.  1.
         11    1    6    6    0    0  0.34144234290E+02  0.23199922051E+02 -0.23242272515E+02  0.47373709482E+02  0.00000000000E+00 0. -1.
        -12    1    6    6    0    0 -0.17563996026E+02 -0.34655838671E+02 -0.44184727268E+02  0.58837158617E+02  0.00000000000E+00 0.  1.
</event>
<event>
12    1  0.1594900E-001  0.2674929E+03  0.7818608E-02  0.1102761E+00
         21   -1    0    0  501  502  0.00000000000E+00  0.00000000000E+00  0.97496519141E+02  0.97496519141E+02  0.00000000000E+00 0.  1.
         21   -1    0    0  502  503 -0.00000000000E+00 -0.00000000000E+00 -0.90866510971E+03  0.90866510971E+03  0.00000000000E+00 0.  1.
         -6    2    1    2    0  503 -0.12795893250E+03  0.15992484817E+03 -0.62682489742E+03  0.68151440198E+03  0.17205517317E+03 0.  0.
        -24    2    3    3    0    0 -0.95512853308E+02  0.47158802868E+02 -0.21004989975E+03  0.24851045545E+03  0.79308437440E+02 0.  0.
          6    2    1    2  501    0  0.12795893250E+03 -0.15992484817E+03 -0.18434369315E+03  0.32464722687E+03  0.17165016528E+03 0.  0.
         24    2    5    5    0    0  0.70325583661E+02 -0.74421408195E+02 -0.21548993272E+02  0.13188663584E+03  0.80283820832E+02 0.  0.
          5    1    5    5  501    0  0.57633348837E+02 -0.85503439971E+02 -0.16279469988E+03  0.19276059103E+03  0.47000000000E+01 0. -1.
        -11    1    6    6    0    0  0.85287772441E+02 -0.73155093519E+02 -0.27589405165E+02  0.11570154326E+03  0.00000000000E+00 0.  1.
         12    1    6    6    0    0 -0.14962188780E+02 -0.12663146752E+01  0.60404118931E+01  0.16185092579E+02  0.00000000000E+00 0. -1.
         -5    1    3    3    0  503 -0.32446079190E+02  0.11276604530E+03 -0.41677499767E+03  0.43300394653E+03  0.47000000000E+01 0.  1.
         11    1    4    4    0    0 -0.54422424711E+02  0.25388890788E+02 -0.18739881402E+03  0.19678595372E+03  0.00000000000E+00 0. -1.
        -12    1    4    4    0    0 -0.41090428597E+02  0.21769912081E+02 -0.22651085728E+02  0.51724501727E+02  0.00000000000E+00 0.  1.
</event>
<event>
12    1  0.1594900E-001  0.2648334E+03  0.7818608E-02  0.1104377E+00
         21   -1    0    0  503  502  0.00000000000E+00  0.00000000000E+00  0.89028665577E+02  0.89028665577E+02  0.00000000000E+00 0. -1.
         21   -1    0    0  501  503 -0.00000000000E+00 -0.00000000000E+00 -0.14363426395E+04  0.14363426395E+04  0.00000000000E+00 0. -1.
          6    2    1    2  501    0 -0.19484175244E+03  0.47398530267E+02 -0.11874632995E+04  0.12166370984E+04  0.17299367730E+03 0.  0.
         24    2    3    3    0    0 -0.30252493227E+02  0.47480173665E+02 -0.34802380169E+03  0.36120130806E+03  0.78589046087E+02 0.  0.
         -6    2    1    2    0  502  0.19484175244E+03 -0.47398530267E+02 -0.15985067441E+03  0.30873420667E+03  0.17191463897E+03 0.  0.
        -24    2    5    5    0    0  0.20361054325E+03 -0.57537164495E+02 -0.10658037963E+03  0.25360256509E+03  0.90482623070E+02 0.  0.
          5    1    3    3  501    0 -0.16458925921E+03 -0.81643398443E-01 -0.83943949784E+03  0.85543579037E+03  0.47000000000E+01 0. -1.
        -13    1    4    4    0    0 -0.49054306850E+01  0.63518498543E+02 -0.27447027000E+03  0.28176691080E+03  0.00000000000E+00 0.  1.
         14    1    4    4    0    0 -0.25347062542E+02 -0.16038324878E+02 -0.73553531692E+02  0.79434397265E+02  0.00000000000E+00 0. -1.
         -5    1    5    5    0  502 -0.87687908154E+01  0.10138634229E+02 -0.53270294781E+02  0.55131641572E+02  0.47000000000E+01 0.  1.
         13    1    6    6    0    0  0.14626730865E+03 -0.55075453742E+02 -0.11704381111E+03  0.19526055645E+03  0.00000000000E+00 0. -1.
        -14    1    6    6    0    0  0.57343234602E+02 -0.24617107530E+01  0.10463431479E+02  0.58342008646E+02  0.00000000000E+00 0.  1.
</event>
<event>
12    1  0.1594900E-001  0.1867074E+03  0.7818608E-02  0.1162144E+00
         21   -1    0    0  501  502  0.00000000000E+00  0.00000000000E+00  0.30273150063E+03  0.30273150063E+03  0.00000000000E+00 0. -1.
         21   -1    0    0  502  503 -0.00000000000E+00 -0.00000000000E+00 -0.35332868020E+03  0.35332868020E+03  0.00000000000E+00 0. -1.
         -6    2    1    2    0  503  0.37044013074E+02  0.63122674261E+02 -0.29569559056E+03  0.34970779314E+03  0.17176416213E+03 0.  0.
        -24    2    3    3    0    0  0.25155922537E+02 -0.23706889734E+02 -0.21032333414E+03  0.22726918792E+03  0.78870411663E+02 0.  0.
          6    2    1    2  501    0 -0.37044013074E+02 -0.63122674261E+02  0.24509841100E+03  0.30635238770E+03  0.16858773224E+03 0.  0.
         24    2    5    5    0    0 -0.88434747261E+01  0.12729036926E+01  0.55935625678E+02  0.10449424401E+03  0.87809028474E+02 0.  0.
          5    1    5    5  501    0 -0.28200538348E+02 -0.64395577953E+02  0.18916278532E+03  0.20185814369E+03  0.47000000000E+01 0. -1.
        -13    1    6    6    0    0  0.59136361662E+01 -0.40901023461E+02  0.15206074199E+02  0.44035094021E+02  0.00000000000E+00 0.  1.
         14    1    6    6    0    0 -0.14757110892E+02  0.42173927153E+02  0.40729551479E+02  0.60459149987E+02  0.00000000000E+00 0. -1.
         -5    1    3    3    0  503  0.11888090536E+02  0.86829563995E+02 -0.85372256427E+02  0.12243860522E+03  0.47000000000E+01 0.  1.
         13    1    4    4    0    0  0.18019044942E+02 -0.82613413449E+01 -0.20928625625E+03  0.21022291216E+03  0.00000000000E+00 0. -1.
        -14    1    4    4    0    0  0.71368775958E+01 -0.15445548390E+02 -0.10370778895E+01  0.17046275764E+02  0.00000000000E+00 0.  1.
</event>
<event>
12    1  0.1594900E-001  0.2124041E+03  0.7818608E-02  0.1139885E+00
         21   -1    0    0  503  502  0.00000000000E+00  0.00000000000E+00  0.14921073421E+04  0.14921073421E+04  0.00000000000E+00 0.  1.
         21   -1    0    0  501  503 -0.00000000000E+00 -0.00000000000E+00 -0.11548193088E+03  0.11548193088E+03  0.00000000000E+00 0. -1.
          6    2    1    2  501    0  0.33515882588E+02  0.12260137818E+03 -0.33520165965E+01  0.21136106560E+03  0.16884268335E+03 0.  0.
         24    2    3    3    0    0  0.72360440202E+02  0.33980029915E+02 -0.12894602516E+02  0.11401737566E+03  0.80268396273E+02 0.  0.
         -6    2    1    2    0  502 -0.33515882588E+02 -0.12260137818E+03  0.13799774278E+04  0.13962282073E+04  0.17017959188E+03 0.  0.
        -24    2    5    5    0    0 -0.44877158471E+02 -0.14563742311E+02  0.85780969382E+03  0.86285925273E+03  0.80390032205E+02 0.  0.
          5    1    3    3  501    0 -0.38844557614E+02  0.88621348263E+02  0.95425859197E+01  0.97343689935E+02  0.47000000000E+01 0. -1.
        -13    1    4    4    0    0  0.96056802606E+01 -0.22905420792E+02 -0.15499246185E+02  0.29277192953E+02  0.00000000000E+00 0.  1.
         14    1    4    4    0    0  0.62754759941E+02  0.56885450707E+02  0.26046436685E+01  0.84740182712E+02  0.00000000000E+00 0. -1.
         -5    1    5    5    0  502  0.11361275883E+02 -0.10803763587E+03  0.52216773396E+03  0.53336895461E+03  0.47000000000E+01 0.  1.
         11    1    6    6    0    0 -0.25350564886E+02 -0.14575818071E+02  0.86628009626E+02  0.91430397922E+02  0.00000000000E+00 0. -1.
        -12    1    6    6    0    0 -0.19526593585E+02  0.12075760143E-01  0.77118168419E+03  0.77142885481E+03  0.00000000000E+00 0.  1.
</event>
<event>
12    1  0.1594900E-001  0.1828334E+03  0.7818608E-02  0.1165376E+00
         21   -1    0    0  503  502  0.00000000000E+00  0.00000000000E+00  0.29766759246E+03  0.29766759246E+03  0.00000000000E+00 0.  1.
         21   -1    0    0  501  503 -0.00000000000E+00 -0.00000000000E+00 -0.11178336940E+03  0.11178336940E+03  0.00000000000E+00 0.  1.
          6    2    1    2  501    0  0.25102217135E+02  0.51813422201E+02  0.10181662472E+03  0.20821624387E+03  0.17225744430E+03 0.  0.
         24    2    3    3    0    0  0.70943854134E+02  0.16397363083E+02  0.10443826183E+03  0.15003793255E+03  0.79385935246E+02 0.  0.
         -6    2    1    2    0  502 -0.25102217135E+02 -0.51813422201E+02  0.84067598352E+02  0.20123471799E+03  0.17353183745E+03 0.  0.
        -24    2    5    5    0    0  0.19390697238E+02 -0.37984230573E+02 -0.13463676133E+02  0.93043657951E+02  0.81590751917E+02 0.  0.
          5    1    3    3  501    0 -0.45841636998E+02  0.35416059118E+02 -0.26216371169E+01  0.58178311314E+02  0.47000000000E+01 0. -1.
        -13    1    4    4    0    0  0.27918931323E+01  0.36546446071E+02  0.35234342917E+02  0.50841875541E+02  0.00000000000E+00 0.  1.
         14    1    4    4    0    0  0.68151961002E+02 -0.20149082988E+02  0.69203918915E+02  0.99196057012E+02  0.00000000000E+00 0. -1.
         -5    1    5    5    0  502 -0.44492914374E+02 -0.13829191628E+02  0.97531274485E+02  0.10819106004E+03  0.47000000000E+01 0.  1.
         13    1    6    6    0    0 -0.19141952109E+02  0.12504228137E+02 -0.18387358690E+02  0.29340501213E+02  0.00000000000E+00 0. -1.
        -14    1    6    6    0    0  0.38532649347E+02 -0.50488458709E+02  0.49236825574E+01  0.63703156738E+02  0.00000000000E+00 0.  1.
</event>
<event>
12    1  0.1594900E-001  0.1984868E+03  0.7818608E-02  0.1152068E+00
         21   -1    0    0  501  502  0.00000000000E+00  0.00000000000E+00  0.91086571256E+03  0.91086571256E+03  0.00000000000E+00 0.  1.
         21   -1    0    0  502  503 -0.00000000000E+00 -0.00000000000E+00 -0.79346029941E+02  0.79346029941E+02  0.00000000000E+00 0.  1.
         -6    2    1    2    0  503  0.28570783048E+01 -0.99060830814E+02  0.79759053100E+02  0.21391242624E+03  0.17197618570E+03 0.  0.
        -24    2    3    3    0    0  0.54724672576E+02 -0.24768386485E+02  0.13712233696E+02  0.10168993752E+03  0.80898425711E+02 0.  0.
          6    2    1    2  501    0 -0.28570783048E+01  0.99060830814E+02  0.75176062952E+03  0.77629931626E+03  0.16635916940E+03 0.  0.
         24    2    5    5    0    0 -0.23902688474E+02  0.71334885793E+02  0.72182986436E+03  0.73015187389E+03  0.80146125393E+02 0.  0.
          5    1    5    5  501    0  0.21045610169E+02  0.27725945021E+02  0.29930765153E+02  0.46147442370E+02  0.47000000000E+01 0. -1.
        -13    1    6    6    0    0  0.10894246269E+01  0.82499634961E+02  0.53281111282E+03  0.53916144016E+03  0.00000000000E+00 0.  1.
         14    1    6    6    0    0 -0.24992113101E+02 -0.11164749168E+02  0.18901875154E+03  0.19099043373E+03  0.00000000000E+00 0. -1.
         -5    1    3    3    0  503 -0.51867594271E+02 -0.74292444329E+02  0.66046819404E+02  0.11222248871E+03  0.47000000000E+01 0.  1.
         13    1    4    4    0    0  0.30588962910E+02  0.24171110717E+02  0.24528869925E+02  0.46060750157E+02  0.00000000000E+00 0. -1.
        -14    1    4    4    0    0  0.24135709667E+02 -0.48939497202E+02 -0.10816636229E+02  0.55629187364E+02  0.00000000000E+00 0.  1.
</event>
<event>
12    1  0.1594900E-001  0.1988269E+03  0.7818608E-02  0.1150989E+00
         21   -1    0    0  503  502  0.00000000000E+00  0.00000000000E+00  0.60515657376E+02  0.60515657376E+02  0.00000000000E+00 0. -1.
         21   -1    0    0  501  503 -0.00000000000E+00 -0.00000000000E+00 -0.66208981070E+03  0.66208981070E+03  0.00000000000E+00 0.  1.
          6    2    1    2  501    0 -0.79254033032E+02 -0.59286578413E+02 -0.25148128480E+03  0.32058535554E+03  0.17244139136E+03 0.  0.
         24    2    3    3    0    0 -0.98899204197E+02 -0.56534694904E+02 -0.26277595410E+03  0.29727945141E+03  0.79665838729E+02 0.  0.
         -6    2    1    2    0  502  0.79254033032E+02  0.59286578413E+02 -0.35009286853E+03  0.40202011253E+03  0.17105278178E+03 0.  0.
        -24    2    5    5    0    0  0.48513147750E+02  0.46476391011E+02 -0.35333555543E+03  0.36823094345E+03  0.78958422966E+02 0.  0.
          5    1    3    3  501    0  0.19645171165E+02 -0.27518835098E+01  0.11294669300E+02  0.23305904135E+02  0.47000000000E+01 0. -1.
        -13    1    4    4    0    0  0.54595442190E+01  0.56629596701E+01 -0.62816239043E+02  0.63306837094E+02  0.00000000000E+00 0.  1.
         14    1    4    4    0    0 -0.10435874842E+03 -0.62197654574E+02 -0.19995971505E+03  0.23397261431E+03  0.00000000000E+00 0. -1.
         -5    1    5    5    0  502  0.30740885282E+02  0.12810187403E+02  0.32426868965E+01  0.33789169086E+02  0.47000000000E+01 0.  1.
         13    1    6    6    0    0  0.96250934153E+01 -0.20853230231E+02 -0.48931061914E+02  0.54053200223E+02  0.00000000000E+00 0. -1.
        -14    1    6    6    0    0  0.38888054335E+02  0.67329621242E+02 -0.30440449351E+03  0.31417774323E+03  0.00000000000E+00 0.  1.
</event>
<event>
12    1  0.1594900E-001  0.1802244E+03  0.7818608E-02  0.1168236E+00
         21   -1    0    0  503  502  0.00000000000E+00  0.00000000000E+00  0.64184757792E+02  0.64184757792E+02  0.00000000000E+00 0. -1.
         21   -1    0    0  501  503 -0.00000000000E+00 -0.00000000000E+00 -0.66911932238E+03  0.66911932238E+03  0.00000000000E+00 0. -1.
          6    2    1    2  501    0  0.91140708855E+01 -0.43151724042E+02 -0.48588414466E+03  0.51730905462E+03  0.17198871587E+03 0.  0.
         24    2    3    3    0    0 -0.53035085408E+01 -0.70413503303E+02 -0.17584141730E+03  0.20570088080E+03  0.80040362774E+02 0.  0.
         -6    2    1    2    0  502 -0.91140708855E+01  0.43151724042E+02 -0.11905041993E+03  0.21599502555E+03  0.17474470236E+03 0.  0.
        -24    2    5    5    0    0  0.50074174090E+02  0.48818864809E+02 -0.11570064610E+03  0.15625663076E+03  0.78350435080E+02 0.  0.
          5    1    3    3  501    0  0.14417579426E+02  0.27261779261E+02 -0.31004272736E+03  0.31160817382E+03  0.47000000000E+01 0. -1.
        -13    1    4    4    0    0  0.36179668110E+02 -0.37007032157E+02 -0.10508733204E+03  0.11714024146E+03  0.00000000000E+00 0.  1.
         14    1    4    4    0    0 -0.41483176650E+02 -0.33406471146E+02 -0.70754085262E+02  0.88560639342E+02  0.00000000000E+00 0. -1.
         -5    1    5    5    0  502 -0.59188244975E+02 -0.56671407669E+01 -0.33497738348E+01  0.59738394793E+02  0.47000000000E+01 0.  1.
         13    1    6    6    0    0  0.36811861401E+02  0.48262143363E+02 -0.26768459281E+02  0.66339264648E+02  0.00000000000E+00 0. -1.
        -14    1    6    6    0    0  0.13262312689E+02  0.55672144596E+00 -0.88932186816E+02  0.89917366112E+02  0.00000000000E+00 0.  1.
</event>
<event>
12    1  0.1594900E-001  0.1934675E+03  0.7818608E-02  0.1155742E+00
         21   -1    0    0  501  502  0.00000000000E+00  0.00000000000E+00  0.74834400878E+02  0.74834400878E+02  0.00000000000E+00 0. -1.
         21   -1    0    0  502  503 -0.00000000000E+00 -0.00000000000E+00 -0.64756183472E+03  0.64756183472E+03  0.00000000000E+00 0. -1.
         -6    2    1    2    0  503  0.27948067153E+02 -0.74531096992E+02 -0.11248487124E+03  0.22379123986E+03  0.17633404069E+03 0.  0.
        -24    2    3    3    0    0  0.30627920984E+02 -0.11868232734E+03 -0.98132709510E+02  0.17705167093E+03  0.81815042233E+02 0.  0.
          6    2    1    2  501    0 -0.27948067153E+02  0.74531096992E+02 -0.46024256260E+03  0.49860499573E+03  0.17449282639E+03 0.  0.
         24    2    5    5    0    0 -0.36694289229E+01  0.24891638376E+02 -0.42346079216E+03  0.43205789389E+03  0.81987333226E+02 0.  0.
          5    1    5    5  501    0 -0.24278638230E+02  0.49639458616E+02 -0.36781770440E+02  0.66547101835E+02  0.47000000000E+01 0. -1.
        -13    1    6    6    0    0  0.24007802479E+02 -0.17718757400E+02 -0.91797928411E+02  0.96525585231E+02  0.00000000000E+00 0.  1.
         14    1    6    6    0    0 -0.27677231402E+02  0.42610395775E+02 -0.33166286375E+03  0.33553230866E+03  0.00000000000E+00 0. -1.
         -5    1    3    3    0  503 -0.26798538310E+01  0.44151230351E+02 -0.14352161727E+02  0.46739568936E+02  0.47000000000E+01 0.  1.
         13    1    4    4    0    0  0.51753080457E+02 -0.65398358669E+02 -0.83236312996E+02  0.11782873357E+03  0.00000000000E+00 0. -1.
        -14    1    4    4    0    0 -0.21125159473E+02 -0.53283968674E+02 -0.14896396514E+02  0.59222937359E+02  0.00000000000E+00 0.  1.
</event>
<event>
12    1  0.1594900E-001  0.1912928E+03  0.7818608E-02  0.1161333E+00
         21   -1    0    0  503  502  0.00000000000E+00  0.00000000000E+00  0.20039200698E+03  0.20039200698E+03  0.00000000000E+00 0.  1.
         21   -1    0    0  501  503 -0.00000000000E+00 -0.00000000000E+00 -0.18204196362E+03  0.18204196362E+03  0.00000000000E+00 0.  1.
          6    2    1    2  501    0  0.28984527484E+02 -0.10281731598E+02 -0.46077915811E+02  0.19676411562E+03  0.18880446507E+03 0.  0.
         24    2    3    3    0    0 -0.61727186814E+02 -0.11532057840E+02 -0.28223403123E+02  0.10418413911E+03  0.78195526778E+02 0.  0.
         -6    2    1    2    0  502 -0.28984527484E+02  0.10281731598E+02  0.64427959175E+02  0.18566985498E+03  0.17139578842E+03 0.  0.
        -24    2    5    5    0    0  0.26119783258E+02 -0.42121563991E+02  0.15284982142E+02  0.95007224078E+02  0.79600708021E+02 0.  0.
          5    1    3    3  501    0  0.90711714299E+02  0.12503262421E+01 -0.17854512689E+02  0.92579976507E+02  0.47000000000E+01 0. -1.
        -13    1    4    4    0    0 -0.67141314722E+02 -0.11477244697E+02  0.70669622450E+01  0.68480838516E+02  0.00000000000E+00 0.  1.
         14    1    4    4    0    0  0.54141279079E+01 -0.54813142939E-01 -0.35290365368E+02  0.35703300594E+02  0.00000000000E+00 0. -1.
         -5    1    5    5    0  502 -0.55104310743E+02  0.52403295588E+02  0.49142977034E+02  0.90662630905E+02  0.47000000000E+01 0.  1.
         11    1    6    6    0    0 -0.18544680608E+02 -0.93185608103E+01 -0.20395037558E+02  0.29098080889E+02  0.00000000000E+00 0. -1.
        -12    1    6    6    0    0  0.44664463866E+02 -0.32803003180E+02  0.35680019700E+02  0.65909143189E+02  0.00000000000E+00 0.  1.
</event>
<event>
12    1  0.1594900E-001  0.1713949E+03  0.7818608E-02  0.1178350E+00
         21   -1    0    0  501  502  0.00000000000E+00  0.00000000000E+00  0.91521669145E+02  0.91521669145E+02  0.00000000000E+00 0.  1.
         21   -1    0    0  502  503 -0.00000000000E+00 -0.00000000000E+00 -0.35119989609E+03  0.35119989609E+03  0.00000000000E+00 0.  1.
         -6    2    1    2    0  503  0.39685211484E+02 -0.16366796786E+02 -0.49099524923E+02  0.17120803248E+03  0.15829920716E+03 0.  0.
        -24    2    3    3    0    0  0.46809078341E+01  0.41104979781E+02 -0.17698058432E+02  0.96800717824E+02  0.85706635904E+02 0.  0.
          6    2    1    2  501    0 -0.39685211484E+02  0.16366796786E+02 -0.21057870202E+03  0.27151353276E+03  0.16593197606E+03 0.  0.
         24    2    5    5    0    0  0.22207738629E+02  0.54970345208E+02 -0.11738259599E+03  0.15307124553E+03  0.78340346310E+02 0.  0.
          5    1    5    5  501    0 -0.61892950113E+02 -0.38603548422E+02 -0.93196106032E+02  0.11844228723E+03  0.47000000000E+01 0. -1.
        -13    1    6    6    0    0 -0.84720515253E+01 -0.13998612734E+02 -0.39744316098E+01  0.16838435858E+02  0.00000000000E+00 0.  1.
         14    1    6    6    0    0  0.30679790154E+02  0.68968957942E+02 -0.11340816438E+03  0.13623280967E+03  0.00000000000E+00 0. -1.
         -5    1    3    3    0  503  0.35004303650E+02 -0.57471776567E+02 -0.31401466492E+02  0.74407314652E+02  0.47000000000E+01 0.  1.
         11    1    4    4    0    0 -0.36752227654E+02  0.24551469581E+02  0.85747219827E+01  0.45022513848E+02  0.00000000000E+00 0. -1.
        -12    1    4    4    0    0  0.41433135488E+02  0.16553510201E+02 -0.26272780414E+02  0.51778203976E+02  0.00000000000E+00 0.  1.
</event>
<event>
12    1  0.1594900E-001  0.1904468E+03  0.7818608E-02  0.1158179E+00
         21   -1    0    0  501  502  0.00000000000E+00  0.00000000000E+00  0.40249543694E+02  0.40249543694E+02  0.00000000000E+00 0.  1.
         21   -1    0    0  502  503 -0.00000000000E+00 -0.00000000000E+00 -0.96040585279E+03  0.96040585279E+03  0.00000000000E+00 0. -1.
         -6    2    1    2    0  503 -0.70516998269E+02  0.42947878113E+02 -0.58638796278E+03  0.61637516391E+03  0.17102728586E+03 0.  0.
        -24    2    3    3    0    0 -0.11244011692E+03  0.26722263928E+02 -0.35717066493E+03  0.38274409134E+03  0.74600913478E+02 0.  0.
          6    2    1    2  501    0  0.70516998269E+02 -0.42947878113E+02 -0.33376834632E+03  0.38428023258E+03  0.17161824165E+03 0.  0.
         24    2    5    5    0    0  0.70952012803E+02 -0.87287636830E+02 -0.29263080218E+03  0.32361235823E+03  0.80242459750E+02 0.  0.
          5    1    5    5  501    0 -0.43501453444E+00  0.44339758716E+02 -0.41137544135E+02  0.60667874350E+02  0.47000000000E+01 0. -1.
        -13    1    6    6    0    0  0.58504440880E+02 -0.31927751932E+02 -0.83053650968E+02  0.10648971727E+03  0.00000000000E+00 0.  1.
         14    1    6    6    0    0  0.12447571923E+02 -0.55359884898E+02 -0.20957715121E+03  0.21712264095E+03  0.00000000000E+00 0. -1.
         -5    1    3    3    0  503  0.41923118649E+02  0.16225614185E+02 -0.22921729785E+03  0.23363107256E+03  0.47000000000E+01 0.  1.
         11    1    4    4    0    0 -0.96870571940E+02  0.48070836566E+02 -0.31430637372E+03  0.33239014666E+03  0.00000000000E+00 0. -1.
        -12    1    4    4    0    0 -0.15569544978E+02 -0.21348572637E+02 -0.42864291213E+02  0.50353944689E+02  0.00000000000E+00 0.  1.
</event>
<event>
12    1  0.1594900E-001  0.2006534E+03  0.7818608E-02  0.1149326E+00
         21   -1    0    0  501  502  0.00000000000E+00  0.00000000000E+00  0.18751188262E+03  0.18751188262E+03  0.00000000000E+00 0.  1.
         21   -1    0    0  502  503 -0.00000000000E+00 -0.00000000000E+00 -0.23841643121E+03  0.23841643121E+03  0.00000000000E+00 0.  1.
         -6    2    1    2    0  503  0.57144703356E+02  0.81588756029E+02 -0.93539259695E+02  0.22079543040E+03  0.17343236938E+03 0.  0.
        -24    2    3    3    0    0  0.61651115346E+02 -0.13268653882E+02 -0.27972920754E+02  0.10529966958E+03  0.79552617298E+02 0.  0.
          6    2    1    2  501    0 -0.57144703356E+02 -0.81588756029E+02  0.42634711111E+02  0.20513288343E+03  0.17418248776E+03 0.  0.
         24    2    5    5    0    0 -0.33884803762E+02 -0.12060230931E+03  0.96380126612E+01  0.14879504200E+03  0.79711832852E+02 0.  0.
          5    1    5    5  501    0 -0.23259899594E+02  0.39013553284E+02  0.32996698450E+02  0.56337841435E+02  0.47000000000E+01 0. -1.
        -13    1    6    6    0    0 -0.94396210846E+01 -0.46392106778E+02  0.42889116828E+02  0.63881220713E+02  0.00000000000E+00 0.  1.
         14    1    6    6    0    0 -0.24445182678E+02 -0.74210202536E+02 -0.33251104166E+02  0.84913821283E+02  0.00000000000E+00 0. -1.
         -5    1    3    3    0  503 -0.45064119901E+01  0.94857409912E+02 -0.65566338941E+02  0.11549576082E+03  0.47000000000E+01 0.  1.
         11    1    4    4    0    0 -0.17331542899E+02  0.88338086906E+01 -0.66221568790E+01  0.20549246141E+02  0.00000000000E+00 0. -1.
        -12    1    4    4    0    0  0.78982658245E+02 -0.22102462573E+02 -0.21350763875E+02  0.84750423440E+02  0.00000000000E+00 0.  1.
</event>
<event>
12    1  0.1594900E-001  0.2819247E+03  0.7818608E-02  0.1094692E+00
         21   -1    0    0  503  502  0.00000000000E+00  0.00000000000E+00  0.63226223027E+03  0.63226223027E+03  0.00000000000E+00 0.  1.
         21   -1    0    0  501  503 -0.00000000000E+00 -0.00000000000E+00 -0.12976076973E+03  0.12976076973E+03  0.00000000000E+00 0. -1.
          6    2    1    2  501    0  0.14925996217E+02 -0.22203619200E+03  0.18274200709E+03  0.33597052753E+03  0.17308581194E+03 0.  0.
         24    2    3    3    0    0  0.65319965347E+02 -0.12635685819E+03  0.15306975747E+03  0.22373586515E+03  0.79966450573E+02 0.  0.
         -6    2    1    2    0  502 -0.14925996217E+02  0.22203619200E+03  0.31975945346E+03  0.42605247247E+03  0.17248694242E+03 0.  0.
        -24    2    5    5    0    0 -0.26595585372E+01  0.24236719232E+03  0.27360876263E+03  0.37393921762E+03  0.78866053034E+02 0.  0.
          5    1    3    3  501    0 -0.50393969130E+02 -0.95679333805E+02  0.29672249616E+02  0.11223466238E+03  0.47000000000E+01 0. -1.
        -13    1    4    4    0    0  0.20912196861E+02 -0.34267116739E+02  0.10166201020E+03  0.10930105024E+03  0.00000000000E+00 0.  1.
         14    1    4    4    0    0  0.44407768486E+02 -0.92089741455E+02  0.51407747275E+02  0.11443481491E+03  0.00000000000E+00 0. -1.
         -5    1    5    5    0  502 -0.12266437680E+02 -0.20331000324E+02  0.46150690827E+02  0.52113254852E+02  0.47000000000E+01 0.  1.
         13    1    6    6    0    0 -0.10928329344E+01  0.11911111155E+03  0.76844140455E+02  0.14175215378E+03  0.00000000000E+00 0. -1.
        -14    1    6    6    0    0 -0.15667256028E+01  0.12325608077E+03  0.19676462217E+03  0.23218706384E+03  0.00000000000E+00 0.  1.
</event>
<event>
12    1  0.1594900E-001  0.1843506E+03  0.7818608E-02  0.1163697E+00
         21   -1    0    0  501  502  0.00000000000E+00  0.00000000000E+00  0.39545510007E+03  0.39545510007E+03  0.00000000000E+00 0. -1.
         21   -1    0    0  502  503 -0.00000000000E+00 -0.00000000000E+00 -0.30301286866E+03  0.30301286866E+03  0.00000000000E+00 0. -1.
         -6    2    1    2    0  503  0.64423700002E+02  0.14478443257E+01 -0.24942786379E+03  0.31006057435E+03  0.17254214313E+03 0.  0.
        -24    2    3    3    0    0  0.91709340746E+02 -0.22269181045E+01 -0.96236450580E+02  0.15434381497E+03  0.78390027784E+02 0.  0.
          6    2    1    2  501    0 -0.64423700002E+02 -0.14478443257E+01  0.34187009520E+03  0.38840739438E+03  0.17272125705E+03 0.  0.
         24    2    5    5    0    0 -0.74333876146E+02  0.36132748405E+01  0.12338602167E+03  0.16958964623E+03  0.89431296904E+02 0.  0.
          5    1    5    5  501    0  0.99101761432E+01 -0.50611191662E+01  0.21848407353E+03  0.21881774815E+03  0.47000000000E+01 0. -1.
        -11    1    6    6    0    0  0.18625989719E+02 -0.54617234029E+01  0.76435909081E+01  0.20861025802E+02  0.00000000000E+00 0.  1.
         12    1    6    6    0    0 -0.92959865865E+02  0.90749982434E+01  0.11574243076E+03  0.14872862042E+03  0.00000000000E+00 0. -1.
         -5    1    3    3    0  503 -0.27285640744E+02  0.36747624302E+01 -0.15319141321E+03  0.15571675938E+03  0.47000000000E+01 0.  1.
         13    1    4    4    0    0  0.81011251045E+01 -0.31157718130E+02 -0.25994725249E+02  0.41378223352E+02  0.00000000000E+00 0. -1.
        -14    1    4    4    0    0  0.83608215642E+02  0.28930800025E+02 -0.70241725332E+02  0.11296559162E+03  0.00000000000E+00 0.  1.
</event>
<event>
12    1  0.1594900E-001  0.1857702E+03  0.7818608E-02  0.1162671E+00
         21   -1    0    0  503  502  0.00000000000E+00  0.00000000000E+00  0.86316946983E+02  0.86316946983E+02  0.00000000000E+00 0. -1.
         21   -1    0    0  501  503 -0.00000000000E+00 -0.00000000000E+00 -0.49778456708E+03  0.49778456708E+03  0.00000000000E+00 0. -1.
          6    2    1    2  501    0 -0.32880591569E+01 -0.67308701930E+02 -0.33798984213E+03  0.38567822673E+03  0.17311640160E+03 0.  0.
         24    2    3    3    0    0 -0.64017738562E+02 -0.55035805812E+02 -0.26673589125E+03  0.29113758226E+03  0.80534746258E+02 0.  0.
         -6    2    1    2    0  502  0.32880591569E+01  0.67308701930E+02 -0.73477777959E+02  0.19842328733E+03  0.17155624270E+03 0.  0.
        -24    2    5    5    0    0  0.15730112154E+02 -0.18455646152E+02 -0.47586471150E+02  0.10785409912E+03  0.93701585666E+02 0.  0.
          5    1    3    3  501    0  0.60729679405E+02 -0.12272896117E+02 -0.71253950887E+02  0.94540644470E+02  0.47000000000E+01 0. -1.
        -11    1    4    4    0    0 -0.34185735270E+02 -0.33156748072E+02 -0.24198400171E+03  0.24662581277E+03  0.00000000000E+00 0.  1.
         12    1    4    4    0    0 -0.29832003292E+02 -0.21879057740E+02 -0.24751889533E+02  0.44511769494E+02  0.00000000000E+00 0. -1.
         -5    1    5    5    0  502 -0.12442052997E+02  0.85764348082E+02 -0.25891306809E+02  0.90569188210E+02  0.47000000000E+01 0.  1.
         13    1    6    6    0    0 -0.37530081579E+01 -0.54821345749E+02 -0.32989631774E+02  0.64091971608E+02  0.00000000000E+00 0. -1.
        -14    1    6    6    0    0  0.19483120312E+02  0.36365699597E+02 -0.14596839377E+02  0.43762127509E+02  0.00000000000E+00 0.  1.
</event>
<event>
12    1  0.1594900E-001  0.1939941E+03  0.7818608E-02  0.1154925E+00
         21   -1    0    0  501  502  0.00000000000E+00  0.00000000000E+00  0.74965184611E+03  0.74965184611E+03  0.00000000000E+00 0.  1.
         21   -1    0    0  502  503 -0.00000000000E+00 -0.00000000000E+00 -0.12868723846E+03  0.12868723846E+03  0.00000000000E+00 0.  1.
         -6    2    1    2    0  503 -0.77754227359E+02  0.43027422854E+02 -0.32510761820E+02  0.19669942931E+03  0.17244314097E+03 0.  0.
        -24    2    3    3    0    0 -0.72482908197E+02  0.92331577765E+02 -0.38583063852E+01  0.13923866270E+03  0.74790550398E+02 0.  0.
          6    2    1    2  501    0  0.77754227359E+02 -0.43027422854E+02  0.65347536947E+03  0.68163965525E+03  0.17235278390E+03 0.  0.
         24    2    5    5    0    0  0.10231428943E+03  0.14755083191E+02  0.42437715819E+03  0.44404736778E+03  0.79976034764E+02 0.  0.
          5    1    5    5  501    0 -0.24560062074E+02 -0.57782506045E+02  0.22909821129E+03  0.23759228748E+03  0.47000000000E+01 0. -1.
        -13    1    6    6    0    0  0.49094609532E+02  0.99278815795E+00  0.33877328701E+03  0.34231360812E+03  0.00000000000E+00 0.  1.
         14    1    6    6    0    0  0.53219679901E+02  0.13762295033E+02  0.85603871181E+02  0.10173375966E+03  0.00000000000E+00 0. -1.
         -5    1    3    3    0  503 -0.52713191620E+01 -0.49304154911E+02 -0.28652455435E+02  0.57460766612E+02  0.47000000000E+01 0.  1.
         11    1    4    4    0    0 -0.86935128479E+02  0.86289064783E+02  0.20253045091E+01  0.12250559629E+03  0.00000000000E+00 0. -1.
        -12    1    4    4    0    0  0.14452220282E+02  0.60425129822E+01 -0.58836108942E+01  0.16733066407E+02  0.00000000000E+00 0.  1.
</event>
<event>
12    1  0.1594900E-001  0.1997719E+03  0.7818608E-02  0.1150134E+00
         21   -1    0    0  501  502  0.00000000000E+00  0.00000000000E+00  0.38141966495E+03  0.38141966495E+03  0.00000000000E+00 0. -1.
         21   -1    0    0  502  503 -0.00000000000E+00 -0.00000000000E+00 -0.11464101825E+03  0.11464101825E+03  0.00000000000E+00 0. -1.
         -6    2    1    2    0  503  0.91942895475E+02 -0.27864590236E+02  0.58001263891E+02  0.20710253718E+03  0.17406143421E+03 0.  0.
        -24    2    3    3    0    0  0.42681604034E+02 -0.62196493076E+02  0.87481269843E+02  0.14004647752E+03  0.79182827795E+02 0.  0.
          6    2    1    2  501    0 -0.91942895475E+02  0.27864590236E+02  0.20877738281E+03  0.28895814601E+03  0.17515388423E+03 0.  0.
         24    2    5    5    0    0  0.96638534833E+01  0.23751709617E+02  0.54670345095E+02  0.10426403053E+03  0.84997692066E+02 0.  0.
          5    1    5    5  501    0 -0.10160674896E+03  0.41128806191E+01  0.15410703771E+03  0.18469411548E+03  0.47000000000E+01 0. -1.
        -11    1    6    6    0    0  0.35747802443E+02 -0.11951587265E+02  0.54254069917E+01  0.38081240246E+02  0.00000000000E+00 0.  1.
         12    1    6    6    0    0 -0.26083948959E+02  0.35703296881E+02  0.49244938103E+02  0.66182790288E+02  0.00000000000E+00 0. -1.
         -5    1    3    3    0  503  0.49261291441E+02  0.34331902841E+02 -0.29480005952E+02  0.67056059667E+02  0.47000000000E+01 0.  1.
         13    1    4    4    0    0  0.84015365228E+01  0.19245063190E+02  0.16569946053E+02  0.26749231490E+02  0.00000000000E+00 0. -1.
        -14    1    4    4    0    0  0.34280067511E+02 -0.81441556266E+02  0.70911323790E+02  0.11329724603E+03  0.00000000000E+00 0.  1.
</event>
<event>
12    1  0.1594900E-001  0.3545584E+03  0.7818608E-02  0.1060768E+00
         21   -1    0    0  503  502  0.00000000000E+00  0.00000000000E+00  0.90173585945E+03  0.90173585945E+03  0.00000000000E+00 0. -1.
         21   -1    0    0  501  503 -0.00000000000E+00 -0.00000000000E+00 -0.13964045804E+03  0.13964045804E+03  0.00000000000E+00 0. -1.
          6    2    1    2  501    0 -0.85604452049E+02  0.29889854122E+03  0.40354787686E+03  0.53712641990E+03  0.17025111418E+03 0.  0.
         24    2    3    3    0    0 -0.11297330984E+02  0.95301506963E+01  0.60213223459E+02  0.81982060489E+02  0.53637417005E+02 0.  0.
         -6    2    1    2    0  502  0.85604452049E+02 -0.29889854122E+03  0.35854752454E+03  0.50424989759E+03  0.17042057302E+03 0.  0.
        -24    2    5    5    0    0  0.38295170982E+02 -0.28834539473E+03  0.27785067787E+03  0.40999700353E+03  0.79290333134E+02 0.  0.
          5    1    3    3  501    0 -0.74307121065E+02  0.28936839053E+03  0.34333465340E+03  0.45514435941E+03  0.47000000000E+01 0. -1.
        -13    1    4    4    0    0  0.16245860518E+02 -0.31190694019E+01  0.24135176745E+01  0.16717704551E+02  0.00000000000E+00 0.  1.
         14    1    4    4    0    0 -0.27543191502E+02  0.12649220098E+02  0.57799705785E+02  0.65264355938E+02  0.00000000000E+00 0. -1.
         -5    1    5    5    0  502  0.47309281068E+02 -0.10553146496E+02  0.80696846676E+02  0.94252894064E+02  0.47000000000E+01 0.  1.
         11    1    6    6    0    0  0.49925337331E+02 -0.97450108516E+02  0.87467652260E+02  0.14014154683E+03  0.00000000000E+00 0. -1.
        -12    1    6    6    0    0 -0.11630166349E+02 -0.19089528621E+03  0.19038302561E+03  0.26985545669E+03  0.00000000000E+00 0.  1.
</event>
<event>
12    1  0.1594900E-001  0.3258205E+03  0.7818608E-02  0.1073034E+00
         21   -1    0    0  503  502  0.00000000000E+00  0.00000000000E+00  0.29983098524E+03  0.29983098524E+03  0.00000000000E+00 0. -1.
         21   -1    0    0  501  503 -0.00000000000E+00 -0.00000000000E+00 -0.41736567799E+03  0.41736567799E+03  0.00000000000E+00 0.  1.
          6    2    1    2  501    0  0.28919587785E+02  0.27466351623E+03 -0.19879396181E+03  0.38167792664E+03  0.17286587497E+03 0.  0.
         24    2    3    3    0    0 -0.45430788120E+02  0.16980127050E+03 -0.87701739011E+02  0.21171428070E+03  0.78961469420E+02 0.  0.
         -6    2    1    2    0  502 -0.28919587785E+02 -0.27466351623E+03  0.81259269059E+02  0.33551873659E+03  0.17231762558E+03 0.  0.
        -24    2    5    5    0    0 -0.24396475070E+02 -0.26557812911E+03  0.11406350307E+03  0.30086025167E+03  0.79871632312E+02 0.  0.
          5    1    3    3  501    0  0.74350375905E+02  0.10486224574E+03 -0.11109222280E+03  0.16996364595E+03  0.47000000000E+01 0. -1.
        -13    1    4    4    0    0 -0.27752764662E+02  0.11407431921E+03 -0.97283635124E+02  0.15247056081E+03  0.00000000000E+00 0.  1.
         14    1    4    4    0    0 -0.17678023458E+02  0.55726951288E+02  0.95818961132E+01  0.59243719890E+02  0.00000000000E+00 0. -1.
         -5    1    5    5    0  502 -0.45231127155E+01 -0.90853871287E+01 -0.32804234008E+02  0.34658484918E+02  0.47000000000E+01 0.  1.
         11    1    6    6    0    0 -0.28432879197E+02 -0.12502231525E+03  0.15512607689E+02  0.12914971517E+03  0.00000000000E+00 0. -1.
        -12    1    6    6    0    0  0.40364041267E+01 -0.14055581385E+03  0.98550895379E+02  0.17171053650E+03  0.00000000000E+00 0.  1.
</event>
<event>
12    1  0.1594900E-001  0.2071172E+03  0.7818608E-02  0.1144403E+00
         21   -1    0    0  503  502  0.00000000000E+00  0.00000000000E+00  0.13045094187E+03  0.13045094187E+03  0.00000000000E+00 0.  1.
         21   -1    0    0  501  503 -0.00000000000E+00 -0.00000000000E+00 -0.37642975169E+03  0.37642975169E+03  0.00000000000E+00 0.  1.
          6    2    1    2  501    0  0.12783950768E+02  0.11846214126E+03 -0.21627943558E+03  0.29764494911E+03  0.16618969032E+03 0.  0.
         24    2    3    3    0    0  0.34914657438E+02  0.12982961410E+03 -0.22195315035E+03  0.27169752812E+03  0.80508284258E+02 0.  0.
         -6    2    1    2    0  502 -0.12783950768E+02 -0.11846214126E+03 -0.29699374241E+02  0.20923574444E+03  0.16941320967E+03 0.  0.
        -24    2    5    5    0    0 -0.44193104130E+02 -0.13208918721E+03  0.47957068704E+01  0.16040714711E+03  0.79415805778E+02 0.  0.
          5    1    3    3  501    0 -0.22130706671E+02 -0.11367472844E+02  0.56737147735E+01  0.25947420988E+02  0.47000000000E+01 0. -1.
        -13    1    4    4    0    0  0.35402343780E+02  0.57084726347E+02 -0.46317048503E+02  0.81592039497E+02  0.00000000000E+00 0.  1.
         14    1    4    4    0    0 -0.48768634200E+00  0.72744887757E+02 -0.17563610185E+03  0.19010548863E+03  0.00000000000E+00 0. -1.
         -5    1    5    5    0  502  0.31409153363E+02  0.13627045954E+02 -0.34495081112E+02  0.48828597331E+02  0.47000000000E+01 0.  1.
         13    1    6    6    0    0 -0.12251243049E+02  0.75205953835E+01  0.92960095605E+01  0.17119232019E+02  0.00000000000E+00 0. -1.
        -14    1    6    6    0    0 -0.31941861081E+02 -0.13960978260E+03 -0.45003026901E+01  0.14328791509E+03  0.00000000000E+00 0.  1.
</event>
<event>
12    1  0.1594900E-001  0.1911940E+03  0.7818608E-02  0.1157804E+00
         21   -1    0    0  501  502  0.00000000000E+00  0.00000000000E+00  0.47849420826E+03  0.47849420826E+03  0.00000000000E+00 0.  1.
         21   -1    0    0  502  503 -0.00000000000E+00 -0.00000000000E+00 -0.10071188410E+03  0.10071188410E+03  0.00000000000E+00 0. -1.
         -6    2    1    2    0  503  0.81378175121E+02 -0.28255959257E+01  0.45142046722E+02  0.19645083807E+03  0.17298767591E+03 0.  0.
        -24    2    3    3    0    0 -0.53567924554E+01  0.39926582684E+02  0.36510979662E+02  0.99253674039E+02  0.83038623207E+02 0.  0.
          6    2    1    2  501    0 -0.81378175121E+02  0.28255959257E+01  0.33264027743E+03  0.38275525430E+03  0.17094337993E+03 0.  0.
         24    2    5    5    0    0 -0.45587325177E+02 -0.18013304720E+02  0.72258387757E+02  0.11905833889E+03  0.80937816225E+02 0.  0.
          5    1    5    5  501    0 -0.35790849944E+02  0.20838900646E+02  0.26038188968E+03  0.26369691540E+03  0.47000000000E+01 0. -1.
        -13    1    6    6    0    0  0.19279862807E+02  0.10410003384E+02  0.27966169347E+02  0.35527283998E+02  0.00000000000E+00 0.  1.
         14    1    6    6    0    0 -0.64867187984E+02 -0.28423308104E+02  0.44292218409E+02  0.83531054896E+02  0.00000000000E+00 0. -1.
         -5    1    3    3    0  503  0.86734967577E+02 -0.42752178609E+02  0.86310670596E+01  0.97197164027E+02  0.47000000000E+01 0.  1.
         11    1    4    4    0    0 -0.12108380758E+02  0.60094769830E+02  0.53622901035E+01  0.61536561496E+02  0.00000000000E+00 0. -1.
        -12    1    4    4    0    0  0.67515883029E+01 -0.20168187147E+02  0.31148689558E+02  0.37717112543E+02  0.00000000000E+00 0.  1.
</event>
<event>
12    1  0.1594900E-001  0.1916205E+03  0.7818608E-02  0.1157027E+00
         21   -1    0    0  503  502  0.00000000000E+00  0.00000000000E+00  0.82194418489E+02  0.82194418489E+02  0.00000000000E+00 0.  1.
         21   -1    0    0  501  503 -0.00000000000E+00 -0.00000000000E+00 -0.51985994176E+03  0.51985994176E+03  0.00000000000E+00 0.  1.
          6    2    1    2  501    0 -0.13941791857E+02  0.82395349968E+02 -0.33185273622E+03  0.38315996856E+03  0.17234255340E+03 0.  0.
         24    2    3    3    0    0 -0.53051742694E+02  0.10665562555E+03 -0.22731837517E+03  0.26884605048E+03  0.80091480851E+02 0.  0.
         -6    2    1    2    0  502  0.13941791857E+02 -0.82395349968E+02 -0.10581278705E+03  0.21889439169E+03  0.17243851528E+03 0.  0.
        -24    2    5    5    0    0 -0.45754190019E+02 -0.86161519386E+02 -0.94448086693E+02  0.15782851989E+03  0.80449656826E+02 0.  0.
          5    1    3    3  501    0  0.39109950837E+02 -0.24260275587E+02 -0.10453436104E+03  0.11431391807E+03  0.47000000000E+01 0. -1.
        -11    1    4    4    0    0 -0.35007844716E+01  0.53215055808E+02 -0.16349098147E+03  0.17196917945E+03  0.00000000000E+00 0.  1.
         12    1    4    4    0    0 -0.49550958222E+02  0.53440569747E+02 -0.63827393699E+02  0.96876871038E+02  0.00000000000E+00 0. -1.
         -5    1    5    5    0  502  0.59695981876E+02  0.37661694172E+01 -0.11364700357E+02  0.61065871798E+02  0.47000000000E+01 0.  1.
         13    1    6    6    0    0 -0.42555589522E+02 -0.10946104007E+02 -0.10715251567E+02  0.45228442474E+02  0.00000000000E+00 0. -1.
        -14    1    6    6    0    0 -0.31986004972E+01 -0.75215415378E+02 -0.83732835127E+02  0.11260007742E+03  0.00000000000E+00 0.  1.
</event>
<event>
12    1  0.1594900E-001  0.1925713E+03  0.7818608E-02  0.1156536E+00
         21   -1    0    0  503  502  0.00000000000E+00  0.00000000000E+00  0.42112670667E+03  0.42112670667E+03  0.00000000000E+00 0. -1.
         21   -1    0    0  501  503 -0.00000000000E+00 -0.00000000000E+00 -0.87388898863E+02  0.87388898863E+02  0.00000000000E+00 0. -1.
          6    2    1    2  501    0 -0.41488800641E+02  0.72917506578E+02  0.15919893912E+03  0.24985600390E+03  0.17333619681E+03 0.  0.
         24    2    3    3    0    0 -0.11302408129E+02  0.17652556769E+02  0.10472606963E+01  0.79563677712E+02  0.76745845921E+02 0.  0.
         -6    2    1    2    0  502  0.41488800641E+02 -0.72917506578E+02  0.17453886869E+03  0.25865960164E+03  0.17147212453E+03 0.  0.
        -24    2    5    5    0    0  0.35275319377E+02  0.65230023010E+01  0.15243533419E+03  0.17583413431E+03  0.79963829085E+02 0.  0.
          5    1    3    3  501    0 -0.30186392512E+02  0.55264949809E+02  0.15815167843E+03  0.17029232619E+03  0.47000000000E+01 0. -1.
        -13    1    4    4    0    0  0.19179613537E+02  0.38156030513E+02  0.26982490870E+01  0.42790428697E+02  0.00000000000E+00 0.  1.
         14    1    4    4    0    0 -0.30482021666E+02 -0.20503473744E+02 -0.16509883907E+01  0.36773249015E+02  0.00000000000E+00 0. -1.
         -5    1    5    5    0  502  0.62134812641E+01 -0.79440508879E+02  0.22103534496E+02  0.82825467325E+02  0.47000000000E+01 0.  1.
         11    1    6    6    0    0  0.38238694708E+02  0.24126653136E+02  0.35341608046E+02  0.57387476193E+02  0.00000000000E+00 0. -1.
        -12    1    6    6    0    0 -0.29633753318E+01 -0.17603650835E+02  0.11709372615E+03  0.11844665812E+03  0.00000000000E+00 0.  1.
</event>
<event>
12    1  0.1594900E-001  0.2129475E+03  0.7818608E-02  0.1139345E+00
         21   -1    0    0  501  502  0.00000000000E+00  0.00000000000E+00  0.17360655336E+03  0.17360655336E+03  0.00000000000E+00 0.  1.
         21   -1    0    0  502  503 -0.00000000000E+00 -0.00000000000E+00 -0.42377272856E+03  0.42377272856E+03  0.00000000000E+00 0.  1.
         -6    2    1    2    0  503 -0.93410112477E+02 -0.83479362910E+02 -0.31032757783E+03  0.37609660602E+03  0.17161351448E+03 0.  0.
        -24    2    3    3    0    0 -0.12459835274E+03 -0.66888569978E+02 -0.29589951747E+03  0.33764898364E+03  0.80321114401E+02 0.  0.
          6    2    1    2  501    0  0.93410112477E+02  0.83479362910E+02  0.60161402628E+02  0.22128267590E+03  0.17219865023E+03 0.  0.
         24    2    5    5    0    0  0.35207120042E+02 -0.51226057504E+01 -0.19126246660E+02  0.88819403599E+02  0.79103038836E+02 0.  0.
          5    1    5    5  501    0  0.58202992436E+02  0.88601968660E+02  0.79287649288E+02  0.13246327230E+03  0.47000000000E+01 0. -1.
        -11    1    6    6    0    0  0.31365816595E+02  0.33545290208E+02 -0.19663350792E+02  0.49957465010E+02  0.00000000000E+00 0.  1.
         12    1    6    6    0    0  0.38413034462E+01 -0.38667895959E+02  0.53710413266E+00  0.38861938589E+02  0.00000000000E+00 0. -1.
         -5    1    3    3    0  503  0.31188240260E+02 -0.16590792932E+02 -0.14428060362E+02  0.38447622377E+02  0.47000000000E+01 0.  1.
         11    1    4    4    0    0 -0.25174861642E+02 -0.16773072070E+02 -0.11729042242E+02  0.32445031010E+02  0.00000000000E+00 0. -1.
        -12    1    4    4    0    0 -0.99423491095E+02 -0.50115497908E+02 -0.28417047523E+03  0.30520395263E+03  0.00000000000E+00 0.  1.
</event>
<event>
12    1  0.1594900E-001  0.1745353E+03  0.7818608E-02  0.1173864E+00
         21   -1    0    0  501  502  0.00000000000E+00  0.00000000000E+00  0.85020011425E+03  0.85020011425E+03  0.00000000000E+00 0.  1.
         21   -1    0    0  502  503 -0.00000000000E+00 -0.00000000000E+00 -0.60218360562E+02  0.60218360562E+02  0.00000000000E+00 0.  1.
         -6    2    1    2    0  503 -0.96676768609E+01 -0.25893806117E+02  0.10038828440E+03  0.19908049068E+03  0.16967993681E+03 0.  0.
        -24    2    3    3    0    0 -0.46097766064E+02 -0.22859279103E+02  0.12445574924E+03  0.15506126059E+03  0.76858378461E+02 0.  0.
          6    2    1    2  501    0  0.96676768609E+01  0.25893806117E+02  0.68959346929E+03  0.71133798413E+03  0.17233288022E+03 0.  0.
         24    2    5    5    0    0  0.67567398324E+02 -0.21637695771E+01  0.33882856405E+03  0.35469009888E+03  0.80188747440E+02 0.  0.
          5    1    5    5  501    0 -0.57899721463E+02  0.28057575694E+02  0.35076490525E+03  0.35664788525E+03  0.47000000000E+01 0. -1.
        -13    1    6    6    0    0 -0.18050641126E+02  0.49726588125E+01  0.51846691557E+02  0.55123791652E+02  0.00000000000E+00 0.  1.
         14    1    6    6    0    0  0.85618039450E+02 -0.71364283896E+01  0.28698187249E+03  0.29956630723E+03  0.00000000000E+00 0. -1.
         -5    1    3    3    0  503  0.36430089203E+02 -0.30345270144E+01 -0.24067464848E+02  0.44019230090E+02  0.47000000000E+01 0.  1.
         13    1    4    4    0    0 -0.16162462300E+02  0.28495023996E+02  0.50206654578E+02  0.59949142980E+02  0.00000000000E+00 0. -1.
        -14    1    4    4    0    0 -0.29935303764E+02 -0.51354303098E+02  0.74249094667E+02  0.95112117614E+02  0.00000000000E+00 0.  1.
</event>
<event>
12    1  0.1594900E-001  0.1873075E+03  0.7818608E-02  0.1161840E+00
         21   -1    0    0  503  502  0.00000000000E+00  0.00000000000E+00  0.24899456378E+03  0.24899456378E+03  0.00000000000E+00 0.  1.
         21   -1    0    0  501  503 -0.00000000000E+00 -0.00000000000E+00 -0.40496021785E+03  0.40496021785E+03  0.00000000000E+00 0.  1.
          6    2    1    2  501    0  0.59015657837E+02 -0.39926691133E+02 -0.34321543995E+03  0.38910279966E+03  0.16889985774E+03 0.  0.
         24    2    3    3    0    0  0.69709472782E+02 -0.69602061097E+01 -0.33677066170E+03  0.35353916683E+03  0.81655427488E+02 0.  0.
         -6    2    1    2    0  502 -0.59015657837E+02  0.39926691133E+02  0.18724978588E+03  0.26485198198E+03  0.17322557984E+03 0.  0.
        -24    2    5    5    0    0 -0.29112804650E+02 -0.29263356783E+02  0.38662151625E+02  0.98173193848E+02  0.80245339909E+02 0.  0.
          5    1    3    3  501    0 -0.10693814945E+02 -0.32966485024E+02 -0.64447782506E+01  0.35563632823E+02  0.47000000000E+01 0. -1.
        -11    1    4    4    0    0  0.94301829692E+01  0.47899096355E+01  0.62911818043E+00  0.10595629988E+02  0.00000000000E+00 0.  1.
         12    1    4    4    0    0  0.60279289812E+02 -0.11750115745E+02 -0.33739977988E+03  0.34294353685E+03  0.00000000000E+00 0. -1.
         -5    1    5    5    0  502 -0.29902853186E+02  0.69190047916E+02  0.14858763425E+03  0.16667878813E+03  0.47000000000E+01 0.  1.
         11    1    6    6    0    0 -0.25733539236E+02 -0.19313319445E+02 -0.20456920755E+02  0.38127482953E+02  0.00000000000E+00 0. -1.
        -12    1    6    6    0    0 -0.33792654148E+01 -0.99500373382E+01  0.59119072380E+02  0.60045710895E+02  0.00000000000E+00 0.  1.
</event>
<event>
12    1  0.1594900E-001  0.1865070E+03  0.7818608E-02  0.1161662E+00
         21   -1    0    0  503  502  0.00000000000E+00  0.00000000000E+00  0.13171505294E+03  0.13171505294E+03  0.00000000000E+00 0.  1.
         21   -1    0    0  501  503 -0.00000000000E+00 -0.00000000000E+00 -0.36305590002E+03  0.36305590002E+03  0.00000000000E+00 0. -1.
          6    2    1    2  501    0 -0.19467393593E+02  0.69472113787E+02  0.13525098402E+02  0.18699678196E+03  0.17198695930E+03 0.  0.
         24    2    3    3    0    0 -0.17992129139E+02 -0.27672728294E+01 -0.45445301096E+02  0.93614217206E+02  0.79793306495E+02 0.  0.
         -6    2    1    2    0  502  0.19467393593E+02 -0.69472113787E+02 -0.24486594548E+03  0.30777417100E+03  0.17193096019E+03 0.  0.
        -24    2    5    5    0    0 -0.95530366582E+01 -0.36703009044E+02 -0.24868656942E+03  0.26358495552E+03  0.78699730516E+02 0.  0.
          5    1    3    3  501    0 -0.14752644540E+01  0.72239386616E+02  0.58970399498E+02  0.93382564758E+02  0.47000000000E+01 0. -1.
        -11    1    4    4    0    0  0.17571318146E+02  0.29112267188E+02 -0.20932521497E+02  0.39930511873E+02  0.00000000000E+00 0.  1.
         12    1    4    4    0    0 -0.35563447285E+02 -0.31879540018E+02 -0.24512779599E+02  0.53683705332E+02  0.00000000000E+00 0. -1.
         -5    1    5    5    0  502  0.29020430252E+02 -0.32769104743E+02  0.38206239424E+01  0.44189215482E+02  0.47000000000E+01 0.  1.
         11    1    6    6    0    0 -0.31695092188E+02 -0.16572859914E+02 -0.43909261266E+02  0.56632691791E+02  0.00000000000E+00 0. -1.
        -12    1    6    6    0    0  0.22142055530E+02 -0.20130149131E+02 -0.20477730816E+03  0.20695226373E+03  0.00000000000E+00 0.  1.
</event>
<event>
12    1  0.1594900E-001  0.3164387E+03  0.7818608E-02  0.1077394E+00
         21   -1    0    0  503  502  0.00000000000E+00  0.00000000000E+00  0.43100204626E+03  0.43100204626E+03  0.00000000000E+00 0. -1.
         21   -1    0    0  501  503 -0.00000000000E+00 -0.00000000000E+00 -0.69396769481E+03  0.69396769481E+03  0.00000000000E+00 0. -1.
          6    2    1    2  501    0 -0.25312390457E+03  0.80859881915E+02 -0.59060042114E+03  0.67003158941E+03  0.17182386851E+03 0.  0.
         24    2    3    3    0    0 -0.27279430859E+03  0.82474443853E+02 -0.55438154712E+03  0.62851739376E+03  0.80476367891E+02 0.  0.
         -6    2    1    2    0  502  0.25312390457E+03 -0.80859881915E+02  0.32763477260E+03  0.45493815166E+03  0.17033539283E+03 0.  0.
        -24    2    5    5    0    0  0.45126999142E+02 -0.20559184011E+02  0.65013122795E+02  0.11451032116E+03  0.80167209115E+02 0.  0.
          5    1    3    3  501    0  0.19670404024E+02 -0.16145619372E+01 -0.36218874026E+02  0.41514195650E+02  0.47000000000E+01 0. -1.
        -11    1    4    4    0    0 -0.71716366087E+01 -0.32806413565E+01 -0.62197184486E+02  0.62695173158E+02  0.00000000000E+00 0.  1.
         12    1    4    4    0    0 -0.26562267199E+03  0.85755085209E+02 -0.49218436263E+03  0.56582222060E+03  0.00000000000E+00 0. -1.
         -5    1    5    5    0  502  0.20799690543E+03 -0.60300697904E+02  0.26262164980E+03  0.34042783050E+03  0.47000000000E+01 0.  1.
         13    1    6    6    0    0  0.83886371849E+01 -0.46829067832E+02  0.23066083341E+02  0.52871306287E+02  0.00000000000E+00 0. -1.
        -14    1    6    6    0    0  0.36738361957E+02  0.26269883820E+02  0.41947039454E+02  0.61639014870E+02  0.00000000000E+00 0.  1.
</event>
<event>
12    1  0.1594900E-001  0.1917591E+03  0.7818608E-02  0.1159040E+00
         21   -1    0    0  501  502  0.00000000000E+00  0.00000000000E+00  0.30379417804E+03  0.30379417804E+03  0.00000000000E+00 0. -1.
         21   -1    0    0  502  503 -0.00000000000E+00 -0.00000000000E+00 -0.12275560846E+03  0.12275560846E+03  0.00000000000E+00 0.  1.
         -6    2    1    2    0  503 -0.42008749474E+02 -0.48868762491E+02  0.14138749676E+03  0.23073419113E+03  0.17057242373E+03 0.  0.
        -24    2    3    3    0    0 -0.69804156667E+02  0.16970070975E+02  0.58593860037E+02  0.12126176111E+03  0.78170139294E+02 0.  0.
          6    2    1    2  501    0  0.42008749474E+02  0.48868762491E+02  0.39651072812E+02  0.19581559537E+03  0.18060633664E+03 0.  0.
         24    2    5    5    0    0  0.72619573785E+02  0.49307300491E+02  0.80806677120E+02  0.14430745381E+03  0.81179491128E+02 0.  0.
          5    1    5    5  501    0 -0.30610824311E+02 -0.43853799980E+00 -0.41155604308E+02  0.51508141555E+02  0.47000000000E+01 0. -1.
        -11    1    6    6    0    0  0.51271657452E+02  0.42202334935E+02  0.65635728649E+01  0.66730056351E+02  0.00000000000E+00 0.  1.
         12    1    6    6    0    0  0.21347916333E+02  0.71049655561E+01  0.74243104255E+02  0.77577397460E+02  0.00000000000E+00 0. -1.
         -5    1    3    3    0  503  0.27795407192E+02 -0.65838833466E+02  0.82793636722E+02  0.10947243002E+03  0.47000000000E+01 0.  1.
         13    1    4    4    0    0 -0.54353363056E+02  0.64999396482E+00  0.75575661594E+02  0.93093454083E+02  0.00000000000E+00 0. -1.
        -14    1    4    4    0    0 -0.15450793611E+02  0.16320077010E+02 -0.16981801557E+02  0.28168307030E+02  0.00000000000E+00 0.  1.
</event>
<event>
12    1  0.1594900E-001  0.1926620E+03  0.7818608E-02  0.1156118E+00
         21   -1    0    0  503  502  0.00000000000E+00  0.00000000000E+00  0.94708579660E+03  0.94708579660E+03  0.00000000000E+00 0.  1.
         21   -1    0    0  501  503 -0.00000000000E+00 -0.00000000000E+00 -0.71788323054E+02  0.71788323054E+02  0.00000000000E+00 0.  1.
          6    2    1    2  501    0 -0.81976852285E+02 -0.29489377554E+02  0.94298681963E+02  0.21450148961E+03  0.17183951794E+03 0.  0.
         24    2    3    3    0    0 -0.52955872002E+02 -0.36139569525E+02 -0.20638997629E+02  0.95677238972E+02  0.67954197584E+02 0.  0.
         -6    2    1    2    0  502  0.81976852285E+02  0.29489377554E+02  0.78099879159E+03  0.80437263005E+03  0.17165776362E+03 0.  0.
        -24    2    5    5    0    0  0.47787600995E+02  0.84468964165E+02  0.53951643939E+03  0.55431768354E+03  0.82288791478E+02 0.  0.
          5    1    3    3  501    0 -0.29020980283E+02  0.66501919705E+01  0.11493767959E+03  0.11882425064E+03  0.47000000000E+01 0. -1.
        -11    1    4    4    0    0 -0.65601659738E+02 -0.18347996456E+02 -0.26474151189E+02  0.73082880455E+02  0.00000000000E+00 0.  1.
         12    1    4    4    0    0  0.12645787737E+02 -0.17791573068E+02  0.58351535606E+01  0.22594358517E+02  0.00000000000E+00 0. -1.
         -5    1    5    5    0  502  0.34189251290E+02 -0.54979586611E+02  0.24148235220E+03  0.25005494650E+03  0.47000000000E+01 0.  1.
         11    1    6    6    0    0  0.78663528553E+01 -0.16537938939E+02  0.92576691786E+02  0.94370688212E+02  0.00000000000E+00 0. -1.
        -12    1    6    6    0    0  0.39921248140E+02  0.10100690310E+03  0.44693974760E+03  0.45994699533E+03  0.00000000000E+00 0.  1.
</event>
<event>
12    1  0.1594900E-001  0.2105241E+03  0.7818608E-02  0.1141153E+00
         21   -1    0    0  503  502  0.00000000000E+00  0.00000000000E+00  0.86497403040E+03  0.86497403040E+03  0.00000000000E+00 0. -1.
         21   -1    0    0  501  503 -0.00000000000E+00 -0.00000000000E+00 -0.67544369015E+02  0.67544369015E+02  0.00000000000E+00 0. -1.
          6    2    1    2  501    0 -0.11895406446E+03 -0.25561470800E+02  0.16961215277E+03  0.27034377589E+03  0.17179643930E+03 0.  0.
         24    2    3    3    0    0 -0.32577179099E+02  0.33717097762E+02  0.12847465186E+03  0.15769698722E+03  0.78514255587E+02 0.  0.
         -6    2    1    2    0  502  0.11895406446E+03  0.25561470800E+02  0.62781750862E+03  0.66217462353E+03  0.17180497569E+03 0.  0.
        -24    2    5    5    0    0  0.12967012132E+03 -0.25735966115E+02  0.46253284107E+03  0.48871750423E+03  0.86206087687E+02 0.  0.
          5    1    3    3  501    0 -0.86376885361E+02 -0.59278568561E+02  0.41137500910E+02  0.11264678866E+03  0.47000000000E+01 0. -1.
        -13    1    4    4    0    0  0.22758469406E+02  0.24268341249E+02  0.32495336337E+02  0.46506421065E+02  0.00000000000E+00 0.  1.
         14    1    4    4    0    0 -0.55335648505E+02  0.94487565131E+01  0.95979315519E+02  0.11119056616E+03  0.00000000000E+00 0. -1.
         -5    1    5    5    0  502 -0.10716056862E+02  0.51297436914E+02  0.16528466755E+03  0.17345711930E+03  0.47000000000E+01 0.  1.
         13    1    6    6    0    0  0.70040563162E+02  0.27950244648E+02  0.18388211687E+03  0.19874488564E+03  0.00000000000E+00 0. -1.
        -14    1    6    6    0    0  0.59629558160E+02 -0.53686210763E+02  0.27865072420E+03  0.28997261859E+03  0.00000000000E+00 0.  1.
</event>
<event>
12    1  0.1594900E-001  0.1825114E+03  0.7818608E-02  0.1166097E+00
         21   -1    0    0  501  502  0.00000000000E+00  0.00000000000E+00  0.30043118459E+03  0.30043118459E+03  0.00000000000E+00 0.  1.
         21   -1    0    0  502  503 -0.00000000000E+00 -0.00000000000E+00 -0.11362974762E+03  0.11362974762E+03  0.00000000000E+00 0.  1.
         -6    2    1    2    0  503  0.49038555336E+02  0.12332228669E+02  0.13545521857E+03  0.22728509920E+03  0.17536686205E+03 0.  0.
        -24    2    3    3    0    0  0.66276540750E+02 -0.18292659333E+02  0.24027419391E+02  0.11035231365E+03  0.82904252034E+02 0.  0.
          6    2    1    2  501    0 -0.49038555336E+02 -0.12332228669E+02  0.51346218396E+02  0.18677583301E+03  0.17231341759E+03 0.  0.
         24    2    5    5    0    0 -0.62102830749E+02 -0.55612563182E+02  0.72271344021E+02  0.13673771224E+03  0.80774600047E+02 0.  0.
          5    1    5    5  501    0  0.13064275413E+02  0.43280334512E+02 -0.20925125625E+02  0.50038120768E+02  0.47000000000E+01 0. -1.
        -13    1    6    6    0    0  0.10442676927E+02  0.21000844240E+01 -0.86219012292E+01  0.13703905896E+02  0.00000000000E+00 0.  1.
         14    1    6    6    0    0 -0.72545507676E+02 -0.57712647606E+02  0.80893245250E+02  0.12303380635E+03  0.00000000000E+00 0. -1.
         -5    1    3    3    0  503 -0.17237985414E+02  0.30624888003E+02  0.11142779918E+03  0.11693278555E+03  0.47000000000E+01 0.  1.
         11    1    4    4    0    0  0.30697282623E+02  0.23024852935E+02 -0.17144400426E+02  0.42028531727E+02  0.00000000000E+00 0. -1.
        -12    1    4    4    0    0  0.35579258127E+02 -0.41317512268E+02  0.41171819817E+02  0.68323781920E+02  0.00000000000E+00 0.  1.
</event>
<event>
12    1  0.1594900E-001  0.1917821E+03  0.7818608E-02  0.1157209E+00
         21   -1    0    0  501  502  0.00000000000E+00  0.00000000000E+00  0.52836699479E+02  0.52836699479E+02  0.00000000000E+00 0.  1.
         21   -1    0    0  502  503 -0.00000000000E+00 -0.00000000000E+00 -0.79084575732E+03  0.79084575732E+03  0.00000000000E+00 0.  1.
         -6    2    1    2    0  503 -0.29121700460E+02 -0.78476165181E+02 -0.52055748728E+03  0.55476162394E+03  0.17255080381E+03 0.  0.
        -24    2    3    3    0    0  0.12510692751E+02  0.10131307910E+02 -0.14817905775E+03  0.16970016750E+03  0.81129235563E+02 0.  0.
          6    2    1    2  501    0  0.29121700460E+02  0.78476165181E+02 -0.21745157056E+03  0.28892083285E+03  0.17083173060E+03 0.  0.
         24    2    5    5    0    0  0.18613568505E+02  0.11928220647E+03 -0.19775700241E+03  0.24217128892E+03  0.70458437835E+02 0.  0.
          5    1    5    5  501    0  0.10508131956E+02 -0.40806041293E+02 -0.19694568144E+02  0.46749543929E+02  0.47000000000E+01 0. -1.
        -11    1    6    6    0    0  0.31549987256E+02  0.19634644213E+02 -0.35963258935E+02  0.51713411631E+02  0.00000000000E+00 0.  1.
         12    1    6    6    0    0 -0.12936418752E+02  0.99647562260E+02 -0.16179374348E+03  0.19045787729E+03  0.00000000000E+00 0. -1.
         -5    1    3    3    0  503 -0.41632393212E+02 -0.88607473091E+02 -0.37237842953E+03  0.38506145644E+03  0.47000000000E+01 0.  1.
         11    1    4    4    0    0  0.10057783423E+02  0.45708148253E+02 -0.77531702300E+02  0.90562457374E+02  0.00000000000E+00 0. -1.
        -12    1    4    4    0    0  0.24529093284E+01 -0.35576840343E+02 -0.70647355446E+02  0.79137710129E+02  0.00000000000E+00 0.  1.
</event>
<event>
12    1  0.1594900E-001  0.1889014E+03  0.7818608E-02  0.1159898E+00
         21   -1    0    0  503  502  0.00000000000E+00  0.00000000000E+00  0.22724105041E+02  0.22724105041E+02  0.00000000000E+00 0. -1.
         21   -1    0    0  501  503 -0.00000000000E+00 -0.00000000000E+00 -0.18300085418E+04  0.18300085418E+04  0.00000000000E+00 0. -1.
          6    2    1    2  501    0  0.12267551968E+02 -0.71948848115E+02 -0.12671739871E+04  0.12811766691E+04  0.17423149624E+03 0.  0.
         24    2    3    3    0    0  0.36081675671E+01 -0.70243110388E+02 -0.12667504428E+04  0.12711684790E+04  0.79154938725E+02 0.  0.
         -6    2    1    2    0  502 -0.12267551968E+02  0.71948848115E+02 -0.54011044964E+03  0.57155597772E+03  0.17213311211E+03 0.  0.
        -24    2    5    5    0    0  0.55540851233E+02  0.62020280615E+02 -0.39028894022E+03  0.40673749975E+03  0.78604296824E+02 0.  0.
          5    1    3    3  501    0  0.86593844013E+01 -0.17057377275E+01 -0.42354434300E+00  0.10008190107E+02  0.47000000000E+01 0. -1.
        -11    1    4    4    0    0  0.21102874449E+02  0.92568805037E+01 -0.20179232270E+03  0.20310382233E+03  0.00000000000E+00 0.  1.
         12    1    4    4    0    0 -0.17494706882E+02 -0.79499990892E+02 -0.10649581201E+04  0.10680646567E+04  0.00000000000E+00 0. -1.
         -5    1    5    5    0  502 -0.67808403202E+02  0.99285675000E+01 -0.14982150941E+03  0.16481847797E+03  0.47000000000E+01 0.  1.
         11    1    6    6    0    0  0.36691758142E+02  0.16274764399E+02 -0.56528771283E+02  0.69330044386E+02  0.00000000000E+00 0. -1.
        -12    1    6    6    0    0  0.18849093091E+02  0.45745516217E+02 -0.33376016894E+03  0.33740745536E+03  0.00000000000E+00 0.  1.
</event>
<event>
12    1  0.1594900E-001  0.2073063E+03  0.7818608E-02  0.1144360E+00
         21   -1    0    0  501  502  0.00000000000E+00  0.00000000000E+00  0.18086618460E+04  0.18086618460E+04  0.00000000000E+00 0.  1.
         21   -1    0    0  502  503 -0.00000000000E+00 -0.00000000000E+00 -0.51963493445E+02  0.51963493445E+02  0.00000000000E+00 0.  1.
         -6    2    1    2    0  503 -0.33028924273E+02  0.10176765323E+03  0.19165674564E+03  0.28232642906E+03  0.17756221251E+03 0.  0.
        -24    2    3    3    0    0 -0.36034098848E+02 -0.38036859435E-01  0.13917058042E+03  0.16765159682E+03  0.86256302582E+02 0.  0.
          6    2    1    2  501    0  0.33028924273E+02 -0.10176765323E+03  0.15650416069E+04  0.15782989104E+04  0.17385239167E+03 0.  0.
         24    2    5    5    0    0 -0.64355285998E+00 -0.12623659181E+03  0.14132891475E+04  0.14208712648E+04  0.74517416080E+02 0.  0.
          5    1    5    5  501    0  0.33672477133E+02  0.24468938580E+02  0.15175245937E+03  0.15742764559E+03  0.47000000000E+01 0. -1.
        -11    1    6    6    0    0  0.17708432247E+02 -0.48338636868E+02  0.89101686780E+03  0.89250281293E+03  0.00000000000E+00 0.  1.
         12    1    6    6    0    0 -0.18351985107E+02 -0.77897954941E+02  0.52227227971E+03  0.52836845184E+03  0.00000000000E+00 0. -1.
         -5    1    3    3    0  503  0.30051745753E+01  0.10180569009E+03  0.52486165228E+02  0.11467483224E+03  0.47000000000E+01 0.  1.
         13    1    4    4    0    0  0.23797343509E+02 -0.28855492313E+01  0.11414615379E+02  0.26550581852E+02  0.00000000000E+00 0. -1.
        -14    1    4    4    0    0 -0.59831442357E+02  0.28475123719E+01  0.12775596504E+03  0.14110101496E+03  0.00000000000E+00 0.  1.
</event>
<event>
12    1  0.1594900E-001  0.4165534E+03  0.7818608E-02  0.1038504E+00
         21   -1    0    0  501  502  0.00000000000E+00  0.00000000000E+00  0.26271084901E+03  0.26271084901E+03  0.00000000000E+00 0.  1.
         21   -1    0    0  502  503 -0.00000000000E+00 -0.00000000000E+00 -0.72289776878E+03  0.72289776878E+03  0.00000000000E+00 0.  1.
         -6    2    1    2    0  503  0.31863952829E+03 -0.20040873713E+03 -0.38255811490E+03  0.56556826880E+03  0.17838706368E+03 0.  0.
        -24    2    3    3    0    0  0.24750087067E+03 -0.85575635123E+02 -0.20245127558E+03  0.34038409197E+03  0.79340662793E+02 0.  0.
          6    2    1    2  501    0 -0.31863952829E+03  0.20040873713E+03 -0.77628804871E+02  0.42004034899E+03  0.16944867223E+03 0.  0.
         24    2    5    5    0    0 -0.20570417466E+03  0.20017265364E+03 -0.73085794219E+02  0.30691573282E+03  0.80451444975E+02 0.  0.
          5    1    5    5  501    0 -0.11293535364E+03  0.23608348808E+00 -0.45430106518E+01  0.11312461616E+03  0.47000000000E+01 0. -1.
        -13    1    6    6    0    0 -0.81979496387E+02  0.37741586894E+02 -0.44874202125E+02  0.10079067033E+03  0.00000000000E+00 0.  1.
         14    1    6    6    0    0 -0.12372467827E+03  0.16243106675E+03 -0.28211592093E+02  0.20612506249E+03  0.00000000000E+00 0. -1.
         -5    1    3    3    0  503  0.71138657625E+02 -0.11483310201E+03 -0.18010683932E+03  0.22518417683E+03  0.47000000000E+01 0.  1.
         13    1    4    4    0    0  0.11621650091E+03 -0.36407584148E+02 -0.45672126825E+02  0.13006817611E+03  0.00000000000E+00 0. -1.
        -14    1    4    4    0    0  0.13128436976E+03 -0.49168050975E+02 -0.15677914875E+03  0.21031591586E+03  0.00000000000E+00 0.  1.
</event>
<event>
12    1  0.1594900E-001  0.1843269E+03  0.7818608E-02  0.1165574E+00
         21   -1    0    0  503  502  0.00000000000E+00  0.00000000000E+00  0.59282714182E+03  0.59282714182E+03  0.00000000000E+00 0.  1.
         21   -1    0    0  501  503 -0.00000000000E+00 -0.00000000000E+00 -0.93171864959E+02  0.93171864959E+02  0.00000000000E+00 0.  1.
          6    2    1    2  501    0 -0.40871953089E+02 -0.56033859922E+02  0.33204461103E+02  0.18729373188E+03  0.17078084131E+03 0.  0.
         24    2    3    3    0    0 -0.85578891811E+02 -0.37594740878E+02 -0.67179485511E+01  0.12440811927E+03  0.81823823194E+02 0.  0.
         -6    2    1    2    0  502  0.40871953089E+02  0.56033859922E+02  0.46645081575E+03  0.49870527489E+03  0.16223525413E+03 0.  0.
        -24    2    5    5    0    0  0.55077245681E+02  0.52399729485E+02  0.46966238999E+03  0.48297627458E+03  0.83090833432E+02 0.  0.
          5    1    3    3  501    0  0.44706938723E+02 -0.18439119044E+02  0.39922409654E+02  0.62885612613E+02  0.47000000000E+01 0. -1.
        -11    1    4    4    0    0 -0.46599990524E+02 -0.61967882867E+02 -0.10677529753E+02  0.78266131024E+02  0.00000000000E+00 0.  1.
         12    1    4    4    0    0 -0.38978901287E+02  0.24373141989E+02  0.39595812023E+01  0.46141988245E+02  0.00000000000E+00 0. -1.
         -5    1    5    5    0  502 -0.14205292592E+02  0.36341304374E+01 -0.32115742338E+01  0.15729000309E+02  0.47000000000E+01 0.  1.
         13    1    6    6    0    0  0.35952697762E+02 -0.16931917556E+02  0.19843768635E+03  0.20237786853E+03  0.00000000000E+00 0. -1.
        -14    1    6    6    0    0  0.19124547918E+02  0.69331647041E+02  0.27122470364E+03  0.28059840605E+03  0.00000000000E+00 0.  1.
</event>
<event>
12    1  0.1594900E-001  0.2016742E+03  0.7818608E-02  0.1148609E+00
         21   -1    0    0  501  502  0.00000000000E+00  0.00000000000E+00  0.94745901481E+03  0.94745901481E+03  0.00000000000E+00 0.  1.
         21   -1    0    0  502  503 -0.00000000000E+00 -0.00000000000E+00 -0.66259553760E+02  0.66259553760E+02  0.00000000000E+00 0.  1.
         -6    2    1    2    0  503  0.39184784079E+02  0.97190111804E+02  0.13896476909E+03  0.24491565770E+03  0.17231107684E+03 0.  0.
        -24    2    3    3    0    0 -0.39965083744E+02  0.79177856750E+02  0.87852066798E+02  0.14887534718E+03  0.81114378752E+02 0.  0.
          6    2    1    2  501    0 -0.39184784079E+02 -0.97190111804E+02  0.74223469195E+03  0.76880291086E+03  0.17077532807E+03 0.  0.
         24    2    5    5    0    0 -0.71886525009E+02 -0.11553772842E+03  0.51109261774E+03  0.53459192187E+03  0.77821718370E+02 0.  0.
          5    1    5    5  501    0  0.32701740930E+02  0.18347616619E+02  0.23114207421E+03  0.23421098900E+03  0.47000000000E+01 0. -1.
        -11    1    6    6    0    0  0.13169497746E+02 -0.35337481765E+02  0.90211666115E+02  0.97776878614E+02  0.00000000000E+00 0.  1.
         12    1    6    6    0    0 -0.85056022754E+02 -0.80200246658E+02  0.42088095163E+03  0.43681504325E+03  0.00000000000E+00 0. -1.
         -5    1    3    3    0  503  0.79149867823E+02  0.18012255054E+02  0.51112702295E+02  0.96040310518E+02  0.47000000000E+01 0.  1.
         13    1    4    4    0    0 -0.45692963012E+01 -0.14289396914E+02  0.29622576834E+02  0.33204854933E+02  0.00000000000E+00 0. -1.
        -14    1    4    4    0    0 -0.35395787443E+02  0.93467253663E+02  0.58229489964E+02  0.11567049225E+03  0.00000000000E+00 0.  1.
</event>
<event>
12    1  0.1594900E-001  0.2849998E+03  0.7818608E-02  0.1093078E+00
         21   -1    0    0  503  502  0.00000000000E+00  0.00000000000E+00  0.46711563965E+02  0.46711563965E+02  0.00000000000E+00 0.  1.
         21   -1    0    0  501  503 -0.00000000000E+00 -0.00000000000E+00 -0.19340064036E+04  0.19340064036E+04  0.00000000000E+00 0. -1.
          6    2    1    2  501    0  0.40599580703E+02  0.22336622353E+03 -0.12624687585E+04  0.12942381051E+04  0.17229077389E+03 0.  0.
         24    2    3    3    0    0 -0.95222074410E+01  0.17336274524E+03 -0.64243597536E+03  0.67015855598E+03  0.79013883802E+02 0.  0.
         -6    2    1    2    0  502 -0.40599580703E+02 -0.22336622353E+03 -0.62482608117E+03  0.68647986248E+03  0.17119046154E+03 0.  0.
        -24    2    5    5    0    0 -0.75046240396E+02 -0.16422851949E+03 -0.33651783717E+03  0.39012268953E+03  0.79677558593E+02 0.  0.
          5    1    3    3  501    0  0.50121788144E+02  0.50003478287E+02 -0.62003278310E+03  0.62407954910E+03  0.47000000000E+01 0. -1.
        -11    1    4    4    0    0  0.33949126977E+02  0.64927781346E+02 -0.22089705819E+03  0.23273089681E+03  0.00000000000E+00 0.  1.
         12    1    4    4    0    0 -0.43471334418E+02  0.10843496390E+03 -0.42153891717E+03  0.43742765917E+03  0.00000000000E+00 0. -1.
         -5    1    5    5    0  502  0.34446659693E+02 -0.59137704044E+02 -0.28830824400E+03  0.29635717295E+03  0.47000000000E+01 0.  1.
         13    1    6    6    0    0 -0.34158527012E+02 -0.91869212066E+02 -0.25717138707E+03  0.27521605952E+03  0.00000000000E+00 0. -1.
        -14    1    6    6    0    0 -0.40887713383E+02 -0.72359307419E+02 -0.79346450105E+02  0.11490663001E+03  0.00000000000E+00 0.  1.
</event>
<event>
12    1  0.1594900E-001  0.2580090E+03  0.7818608E-02  0.1108361E+00
         21   -1    0    0  503  502  0.00000000000E+00  0.00000000000E+00  0.77183861468E+03  0.77183861468E+03  0.00000000000E+00 0. -1.
         21   -1    0    0  501  503 -0.00000000000E+00 -0.00000000000E+00 -0.91148009916E+02  0.91148009916E+02  0.00000000000E+00 0. -1.
          6    2    1    2  501    0 -0.80019144658E+02  0.17479489351E+03  0.44081287185E+03  0.51076868683E+03  0.17208237896E+03 0.  0.
         24    2    3    3    0    0 -0.29827573467E+02  0.20228800269E+02  0.97676579836E+02  0.13106554503E+03  0.79615164041E+02 0.  0.
         -6    2    1    2    0  502  0.80019144658E+02 -0.17479489351E+03  0.23987773291E+03  0.35221793776E+03  0.17192972584E+03 0.  0.
        -24    2    5    5    0    0  0.63932335975E+02 -0.25853785527E+02  0.12101424172E+03  0.16092533832E+03  0.80602456586E+02 0.  0.
          5    1    3    3  501    0 -0.50191571191E+02  0.15456609324E+03  0.34313629202E+03  0.37970314181E+03  0.47000000000E+01 0. -1.
        -11    1    4    4    0    0  0.52290744281E+01  0.28479117917E+02  0.22189667547E+01  0.29040096249E+02  0.00000000000E+00 0.  1.
         12    1    4    4    0    0 -0.35056647895E+02 -0.82503176478E+01  0.95457613081E+02  0.10202544878E+03  0.00000000000E+00 0. -1.
         -5    1    5    5    0  502  0.16086808683E+02 -0.14894110798E+03  0.11886349119E+03  0.19129259944E+03  0.47000000000E+01 0.  1.
         11    1    6    6    0    0  0.26273696551E+02 -0.49872059580E+02  0.91228473205E+02  0.10723881658E+03  0.00000000000E+00 0. -1.
        -12    1    6    6    0    0  0.37658639424E+02  0.24018274053E+02  0.29785768510E+02  0.53686521749E+02  0.00000000000E+00 0.  1.
</event>
<event>
12    1  0.1594900E-001  0.1829496E+03  0.7818608E-02  0.1165131E+00
         21   -1    0    0  501  502  0.00000000000E+00  0.00000000000E+00  0.12057270214E+03  0.12057270214E+03  0.00000000000E+00 0.  1.
         21   -1    0    0  502  503 -0.00000000000E+00 -0.00000000000E+00 -0.54756956056E+03  0.54756956056E+03  0.00000000000E+00 0.  1.
         -6    2    1    2    0  503 -0.43848455209E+02 -0.42313909986E+02 -0.44830464941E+03  0.48395595895E+03  0.17182304128E+03 0.  0.
        -24    2    3    3    0    0 -0.13270492989E+01 -0.23981772222E+02 -0.41874101310E+03  0.42881762539E+03  0.89239191703E+02 0.  0.
          6    2    1    2  501    0  0.43848455209E+02  0.42313909986E+02  0.21307790995E+02  0.18418630375E+03  0.17250338701E+03 0.  0.
         24    2    5    5    0    0  0.96514847067E+02  0.29357785392E+02  0.14120745679E+02  0.12927406817E+03  0.79595188147E+02 0.  0.
          5    1    5    5  501    0 -0.52666391858E+02  0.12956124593E+02  0.71870453169E+01  0.54912235579E+02  0.47000000000E+01 0. -1.
        -11    1    6    6    0    0  0.88081727853E+02  0.28956319808E+02  0.40793936829E+02  0.10129661653E+03  0.00000000000E+00 0.  1.
         12    1    6    6    0    0  0.84331192144E+01  0.40146558400E+00 -0.26673191151E+02  0.27977451644E+02  0.00000000000E+00 0. -1.
         -5    1    3    3    0  503 -0.42521405910E+02 -0.18332137764E+02 -0.29563636311E+02  0.55138333557E+02  0.47000000000E+01 0.  1.
         11    1    4    4    0    0 -0.72385016875E+01  0.53377687877E+01  0.16060711303E-01  0.89937723041E+01  0.00000000000E+00 0. -1.
        -12    1    4    4    0    0  0.59114523886E+01 -0.29319541009E+02 -0.41875707381E+03  0.41982385309E+03  0.00000000000E+00 0.  1.
</event>
<event>
12    1  0.1594900E-001  0.2413578E+03  0.7818608E-02  0.1118923E+00
         21   -1    0    0  503  502  0.00000000000E+00  0.00000000000E+00  0.15035822639E+03  0.15035822639E+03  0.00000000000E+00 0.  1.
         21   -1    0    0  501  503 -0.00000000000E+00 -0.00000000000E+00 -0.45821624526E+03  0.45821624526E+03  0.00000000000E+00 0. -1.
          6    2    1    2  501    0 -0.91266526156E+02 -0.14226047265E+03 -0.27382978189E+03  0.36501554044E+03  0.17229618231E+03 0.  0.
         24    2    3    3    0    0 -0.21630999561E+02 -0.99190987321E+02 -0.73510364825E+02  0.14855758613E+03  0.79742275816E+02 0.  0.
         -6    2    1    2    0  502  0.91266526156E+02  0.14226047265E+03 -0.34028236984E+02  0.24355893121E+03  0.17203316885E+03 0.  0.
        -24    2    5    5    0    0  0.25703368713E+02  0.34391011005E+01 -0.30486069763E+02  0.89921247806E+02  0.80522914613E+02 0.  0.
          5    1    3    3  501    0 -0.69635526594E+02 -0.43069485331E+02 -0.20031941707E+03  0.21645795431E+03  0.47000000000E+01 0. -1.
        -13    1    4    4    0    0  0.23330539666E+02 -0.94499548550E+01 -0.18730129265E+01  0.25241313462E+02  0.00000000000E+00 0.  1.
         14    1    4    4    0    0 -0.44961539227E+02 -0.89741032466E+02 -0.71637351898E+02  0.12331627267E+03  0.00000000000E+00 0. -1.
         -5    1    5    5    0  502  0.65563157442E+02  0.13882137155E+03 -0.35421672205E+01  0.15363768340E+03  0.47000000000E+01 0.  1.
         11    1    6    6    0    0  0.39118408227E+02 -0.22625570448E+02  0.31546451846E+01  0.45300310005E+02  0.00000000000E+00 0. -1.
        -12    1    6    6    0    0 -0.13415039513E+02  0.26064671549E+02 -0.33640714948E+02  0.44620937802E+02  0.00000000000E+00 0.  1.
</event>
<event>
12    1  0.1594900E-001  0.1826760E+03  0.7818608E-02  0.1165677E+00
         21   -1    0    0  503  502  0.00000000000E+00  0.00000000000E+00  0.39269717611E+03  0.39269717611E+03  0.00000000000E+00 0. -1.
         21   -1    0    0  501  503 -0.00000000000E+00 -0.00000000000E+00 -0.10329788551E+03  0.10329788551E+03  0.00000000000E+00 0. -1.
          6    2    1    2  501    0  0.44609714334E+02 -0.43131466870E+02  0.38453233274E+02  0.18667937302E+03  0.17181439729E+03 0.  0.
         24    2    3    3    0    0 -0.13263943733E+02 -0.40585165216E+02 -0.32058545583E+02  0.95301887241E+02  0.78940556926E+02 0.  0.
         -6    2    1    2    0  502 -0.44609714334E+02  0.43131466870E+02  0.25094605733E+03  0.30931568861E+03  0.16985853374E+03 0.  0.
        -24    2    5    5    0    0 -0.76753994224E+02 -0.21462878509E+02  0.13900791689E+03  0.17605683723E+03  0.72945035443E+02 0.  0.
          5    1    3    3  501    0  0.57873658067E+02 -0.25463016538E+01  0.70511778857E+02  0.91377485782E+02  0.47000000000E+01 0. -1.
        -11    1    4    4    0    0 -0.28596651671E+02 -0.32602686225E+02  0.14428990398E+02  0.45704478990E+02  0.00000000000E+00 0.  1.
         12    1    4    4    0    0  0.15332707938E+02 -0.79824789908E+01 -0.46487535981E+02  0.49597408250E+02  0.00000000000E+00 0. -1.
         -5    1    5    5    0  502  0.32144279889E+02  0.64594345379E+02  0.11193814044E+03  0.13325885137E+03  0.47000000000E+01 0.  1.
         11    1    6    6    0    0  0.12409256703E+02 -0.91933881161E+01  0.36565256461E+02  0.39692896304E+02  0.00000000000E+00 0. -1.
        -12    1    6    6    0    0 -0.89163250926E+02 -0.12269490393E+02  0.10244266043E+03  0.13636394093E+03  0.00000000000E+00 0.  1.
</event>
<event>
12    1  0.1594900E-001  0.2421283E+03  0.7818608E-02  0.1118710E+00
         21   -1    0    0  501  502  0.00000000000E+00  0.00000000000E+00  0.17813246073E+03  0.17813246073E+03  0.00000000000E+00 0.  1.
         21   -1    0    0  502  503 -0.00000000000E+00 -0.00000000000E+00 -0.13527062473E+04  0.13527062473E+04  0.00000000000E+00 0.  1.
         -6    2    1    2    0  503  0.63627703799E+02  0.15616725799E+03 -0.12545632238E+04  0.12777147620E+04  0.17375106673E+03 0.  0.
        -24    2    3    3    0    0  0.10249122529E+03  0.15269126490E+03 -0.95622046013E+03  0.97679458902E+03  0.77142900742E+02 0.  0.
          6    2    1    2  501    0 -0.63627703799E+02 -0.15616725799E+03  0.79989437327E+02  0.25312394601E+03  0.17098749895E+03 0.  0.
         24    2    5    5    0    0  0.28471777151E+02 -0.53077432953E+02  0.17205184979E+02  0.10122339051E+03  0.79512894629E+02 0.  0.
          5    1    5    5  501    0 -0.92099480950E+02 -0.10308982504E+03  0.62784252348E+02  0.15190055550E+03  0.47000000000E+01 0. -1.
        -11    1    6    6    0    0 -0.25499971361E+02 -0.12973489204E+02  0.18320820824E+02  0.33973702142E+02  0.00000000000E+00 0.  1.
         12    1    6    6    0    0  0.53971748512E+02 -0.40103943749E+02 -0.11156358451E+01  0.67249688363E+02  0.00000000000E+00 0. -1.
         -5    1    3    3    0  503 -0.38863521487E+02  0.34759930962E+01 -0.29834276372E+03  0.30092017296E+03  0.47000000000E+01 0.  1.
         13    1    4    4    0    0  0.17367606374E+02  0.94813660057E+00 -0.20283728615E+03  0.20358167248E+03  0.00000000000E+00 0. -1.
        -14    1    4    4    0    0  0.85123618912E+02  0.15174312830E+03 -0.75338317397E+03  0.77321291654E+03  0.00000000000E+00 0.  1.
</event>
<event>
12    1  0.1594900E-001  0.3302961E+03  0.7818608E-02  0.1071118E+00
         21   -1    0    0  501  502  0.00000000000E+00  0.00000000000E+00  0.38595985937E+03  0.38595985937E+03  0.00000000000E+00 0. -1.
         21   -1    0    0  502  503 -0.00000000000E+00 -0.00000000000E+00 -0.69959761579E+03  0.69959761579E+03  0.00000000000E+00 0.  1.
         -6    2    1    2    0  503  0.11183563384E+03  0.25757532161E+03 -0.57617523863E+03  0.66363158078E+03  0.17197881877E+03 0.  0.
        -24    2    3    3    0    0  0.35961859468E+01  0.54038882162E+02 -0.13938529993E+03  0.16971822723E+03  0.80267561822E+02 0.  0.
          6    2    1    2  501    0 -0.11183563384E+03 -0.25757532161E+03  0.26253748221E+03  0.42192589438E+03  0.17390593860E+03 0.  0.
         24    2    5    5    0    0 -0.71334986677E+02 -0.59593393979E+02  0.13374549882E+03  0.18224566767E+03  0.81765347180E+02 0.  0.
          5    1    5    5  501    0 -0.40500647164E+02 -0.19798192763E+03  0.12879198340E+03  0.23968022671E+03  0.47000000000E+01 0. -1.
        -11    1    6    6    0    0 -0.53768895036E+02  0.64787588238E+01  0.46335279562E+02  0.71274304777E+02  0.00000000000E+00 0.  1.
         12    1    6    6    0    0 -0.17566091641E+02 -0.66072152803E+02  0.87410219254E+02  0.11097136289E+03  0.00000000000E+00 0. -1.
         -5    1    3    3    0  503  0.10823944789E+03  0.20353643945E+03 -0.43678993870E+03  0.49391335355E+03  0.47000000000E+01 0.  1.
         11    1    4    4    0    0  0.14434518343E+02  0.60957465143E+01 -0.11270899293E+03  0.11379292831E+03  0.00000000000E+00 0. -1.
        -12    1    4    4    0    0 -0.10838332396E+02  0.47943135647E+02 -0.26676306994E+02  0.55925298923E+02  0.00000000000E+00 0.  1.
</event>
<event>
12    1  0.1594900E-001  0.2196217E+03  0.7818608E-02  0.1134251E+00
         21   -1    0    0  503  502  0.00000000000E+00  0.00000000000E+00  0.62516189588E+03  0.62516189588E+03  0.00000000000E+00 0.  1.
         21   -1    0    0  501  503 -0.00000000000E+00 -0.00000000000E+00 -0.76996301231E+02  0.76996301231E+02  0.00000000000E+00 0. -1.
          6    2    1    2  501    0  0.60638995672E+01 -0.13658875570E+03  0.27605196467E+03  0.35247328361E+03  0.17128768023E+03 0.  0.
         24    2    3    3    0    0  0.90783663824E+01 -0.82362493799E+01  0.15823515284E+03  0.17815649142E+03  0.80938985052E+02 0.  0.
         -6    2    1    2    0  502 -0.60638995672E+01  0.13658875570E+03  0.27211362997E+03  0.34968491349E+03  0.17187336049E+03 0.  0.
        -24    2    5    5    0    0  0.33160128122E+02  0.15016602089E+03  0.18707414519E+03  0.25493962100E+03  0.79674629777E+02 0.  0.
          5    1    3    3  501    0 -0.30144668152E+01 -0.12835250632E+03  0.11781681184E+03  0.17431679220E+03  0.47000000000E+01 0. -1.
        -11    1    4    4    0    0  0.85225793621E+01 -0.44075448260E+02  0.73105343256E+02  0.85788523189E+02  0.00000000000E+00 0.  1.
         12    1    4    4    0    0  0.55578702029E+00  0.35839198880E+02  0.85129809582E+02  0.92367968231E+02  0.00000000000E+00 0. -1.
         -5    1    5    5    0  502 -0.39224027689E+02 -0.13577265182E+02  0.85039484783E+02  0.94745292496E+02  0.47000000000E+01 0.  1.
         11    1    6    6    0    0 -0.21885805724E+02  0.75987679125E+02  0.10444951162E+03  0.13100693244E+03  0.00000000000E+00 0. -1.
        -12    1    6    6    0    0  0.55045933846E+02  0.74178341763E+02  0.82624633572E+02  0.12393268856E+03  0.00000000000E+00 0.  1.
</event>
<event>
12    1  0.1594900E-001  0.1789601E+03  0.7818608E-02  0.1169178E+00
         21   -1    0    0  501  502  0.00000000000E+00  0.00000000000E+00  0.12972969012E+03  0.12972969012E+03  0.00000000000E+00 0.  1.
         21   -1    0    0  502  503 -0.00000000000E+00 -0.00000000000E+00 -0.42358869648E+03  0.42358869648E+03  0.00000000000E+00 0.  1.
         -6    2    1    2    0  503  0.32863363917E+02 -0.32912853357E+02 -0.32701317501E+03  0.37277919110E+03  0.17281045131E+03 0.  0.
        -24    2    3    3    0    0 -0.50378881347E+02 -0.90243569423E+01 -0.19514691767E+03  0.21494785238E+03  0.74167304540E+02 0.  0.
          6    2    1    2  501    0 -0.32863363917E+02  0.32912853357E+02  0.33154168651E+02  0.18053919550E+03  0.17126571638E+03 0.  0.
         24    2    5    5    0    0 -0.82547998265E+02  0.21837837613E+02  0.53061175046E+02  0.12567939448E+03  0.75423860485E+02 0.  0.
          5    1    5    5  501    0  0.49684634348E+02  0.11075015744E+02 -0.19907006395E+02  0.54859801017E+02  0.47000000000E+01 0. -1.
        -13    1    6    6    0    0 -0.46206062226E+02  0.32483739563E+02  0.64868426771E+02  0.86012245141E+02  0.00000000000E+00 0.  1.
         14    1    6    6    0    0 -0.36341936039E+02 -0.10645901950E+02 -0.11807251725E+02  0.39667149339E+02  0.00000000000E+00 0. -1.
         -5    1    3    3    0  503  0.83242245264E+02 -0.23888496414E+02 -0.13186625734E+03  0.15783133872E+03  0.47000000000E+01 0.  1.
         11    1    4    4    0    0 -0.67203363236E+02 -0.13875957255E+02 -0.17649094546E+03  0.18936179142E+03  0.00000000000E+00 0. -1.
        -12    1    4    4    0    0  0.16824481889E+02  0.48516003128E+01 -0.18655972209E+02  0.25586060961E+02  0.00000000000E+00 0.  1.
</event>
<event>
12    1  0.1594900E-001  0.1804625E+03  0.7818608E-02  0.1167492E+00
         21   -1    0    0  503  502  0.00000000000E+00  0.00000000000E+00  0.99619649548E+02  0.99619649548E+02  0.00000000000E+00 0.  1.
         21   -1    0    0  501  503 -0.00000000000E+00 -0.00000000000E+00 -0.33047284422E+03  0.33047284422E+03  0.00000000000E+00 0.  1.
          6    2    1    2  501    0 -0.26968553335E+02 -0.43214840372E+02 -0.14055855416E+03  0.22830092654E+03  0.17253921472E+03 0.  0.
         24    2    3    3    0    0 -0.30354631343E+02 -0.74615632814E+02 -0.34280675848E+02  0.11732997219E+03  0.78116972126E+02 0.  0.
         -6    2    1    2    0  502  0.26968553335E+02  0.43214840372E+02 -0.90294640509E+02  0.20179156723E+03  0.17312391285E+03 0.  0.
        -24    2    5    5    0    0  0.16061023056E+02  0.71317968752E+02 -0.57264557932E+01  0.11188813065E+03  0.84510072515E+02 0.  0.
          5    1    3    3  501    0  0.33860780076E+01  0.31400792442E+02 -0.10627787832E+03  0.11097095435E+03  0.47000000000E+01 0. -1.
        -11    1    4    4    0    0  0.11998843358E+02 -0.63496015484E+02 -0.35092380733E+02  0.73533607349E+02  0.00000000000E+00 0.  1.
         12    1    4    4    0    0 -0.42353474700E+02 -0.11119617330E+02  0.81170488494E+00  0.43796364844E+02  0.00000000000E+00 0. -1.
         -5    1    5    5    0  502  0.10907530279E+02 -0.28103128380E+02 -0.84568184716E+02  0.89903436573E+02  0.47000000000E+01 0.  1.
         13    1    6    6    0    0  0.24802822476E+02  0.33997338319E+01 -0.30146141905E+02  0.39185814585E+02  0.00000000000E+00 0. -1.
        -14    1    6    6    0    0 -0.87417994204E+01  0.67918234920E+02  0.24419686112E+02  0.72702316067E+02  0.00000000000E+00 0.  1.
</event>
<event>
12    1  0.1594900E-001  0.2204727E+03  0.7818608E-02  0.1134447E+00
         21   -1    0    0  501  502  0.00000000000E+00  0.00000000000E+00  0.32558521735E+03  0.32558521735E+03  0.00000000000E+00 0.  1.
         21   -1    0    0  502  503 -0.00000000000E+00 -0.00000000000E+00 -0.15835678818E+03  0.15835678818E+03  0.00000000000E+00 0.  1.
         -6    2    1    2    0  503 -0.13071105002E+03 -0.46774537620E+01  0.16927013569E+02  0.22112150049E+03  0.17748503322E+03 0.  0.
        -24    2    3    3    0    0 -0.16459256142E+02  0.26047647582E+02 -0.30153136428E+02  0.93700408112E+02  0.83193556160E+02 0.  0.
          6    2    1    2  501    0  0.13071105002E+03  0.46774537620E+01  0.15030141560E+03  0.26282050505E+03  0.17139674784E+03 0.  0.
         24    2    5    5    0    0  0.13545944436E+03 -0.31200209439E+02  0.71025992386E+02  0.17554830620E+03  0.80310659824E+02 0.  0.
          5    1    5    5  501    0 -0.47483943357E+01  0.35877663201E+02  0.79275423217E+02  0.87272198848E+02  0.47000000000E+01 0. -1.
        -11    1    6    6    0    0  0.51764247162E+02 -0.49181635630E+02  0.50674851606E+02  0.87557473426E+02  0.00000000000E+00 0.  1.
         12    1    6    6    0    0  0.83695197198E+02  0.17981426191E+02  0.20351140780E+02  0.87990832778E+02  0.00000000000E+00 0. -1.
         -5    1    3    3    0  503 -0.11425179388E+03 -0.30725101344E+02  0.47080149996E+02  0.12742109237E+03  0.47000000000E+01 0.  1.
         11    1    4    4    0    0  0.17393179795E+02 -0.23167287013E+02 -0.91012349671E+01  0.30365743345E+02  0.00000000000E+00 0. -1.
        -12    1    4    4    0    0 -0.33852435937E+02  0.49214934595E+02 -0.21051901461E+02  0.63334664767E+02  0.00000000000E+00 0.  1.
</event>
<event>
12    1  0.1594900E-001  0.2035271E+03  0.7818608E-02  0.1146874E+00
         21   -1    0    0  501  502  0.00000000000E+00  0.00000000000E+00  0.15113839183E+04  0.15113839183E+04  0.00000000000E+00 0.  1.
         21   -1    0    0  502  503 -0.00000000000E+00 -0.00000000000E+00 -0.30908738351E+02  0.30908738351E+02  0.00000000000E+00 0.  1.
         -6    2    1    2    0  503  0.10477681685E+03 -0.29057101713E+02  0.47823797495E+03  0.51959882063E+03  0.17160675163E+03 0.  0.
        -24    2    3    3    0    0  0.82021784573E+02 -0.14573828634E+02  0.47648520299E+03  0.49216309752E+03  0.90809670556E+02 0.  0.
          6    2    1    2  501    0 -0.10477681685E+03  0.29057101713E+02  0.10022372050E+04  0.10226938360E+04  0.17204874496E+03 0.  0.
         24    2    5    5    0    0 -0.13124846153E+03  0.42214877818E+02  0.94206219110E+03  0.95548522540E+03  0.80390232548E+02 0.  0.
          5    1    5    5  501    0  0.26471644683E+02 -0.13157776105E+02  0.60175013909E+02  0.67208610632E+02  0.47000000000E+01 0. -1.
        -11    1    6    6    0    0 -0.33521596261E+02  0.48861697003E+02  0.27864736326E+03  0.28487807199E+03  0.00000000000E+00 0.  1.
         12    1    6    6    0    0 -0.97726865273E+02 -0.66468191859E+01  0.66341482785E+03  0.67060715341E+03  0.00000000000E+00 0. -1.
         -5    1    3    3    0  503  0.22755032279E+02 -0.14483273079E+02  0.17527719610E+01  0.27435723111E+02  0.47000000000E+01 0.  1.
         13    1    4    4    0    0 -0.72409590415E+01  0.11530060664E+02  0.11072116197E+02  0.17548947086E+02  0.00000000000E+00 0. -1.
        -14    1    4    4    0    0  0.89262743615E+02 -0.26103889298E+02  0.46541308679E+03  0.47461415043E+03  0.00000000000E+00 0.  1.
</event>
<event>
12    1  0.1594900E-001  0.2216849E+03  0.7818608E-02  0.1132802E+00
         21   -1    0    0  501  502  0.00000000000E+00  0.00000000000E+00  0.30775518452E+03  0.30775518452E+03  0.00000000000E+00 0. -1.
         21   -1    0    0  502  503 -0.00000000000E+00 -0.00000000000E+00 -0.21045031688E+03  0.21045031688E+03  0.00000000000E+00 0.  1.
         -6    2    1    2    0  503 -0.97661959803E+02  0.97910919158E+02 -0.79346401512E+02  0.23545713147E+03  0.17326223721E+03 0.  0.
        -24    2    3    3    0    0 -0.21848517867E+02  0.36073786533E+02  0.23884861718E+02  0.93153608471E+02  0.79551444639E+02 0.  0.
          6    2    1    2  501    0  0.97661959803E+02 -0.97910919158E+02  0.17665126916E+03  0.28274836992E+03  0.17209463477E+03 0.  0.
         24    2    5    5    0    0 -0.18182055964E+02 -0.68016861016E+02  0.39163449314E+02  0.10043413212E+03  0.59969647249E+02 0.  0.
          5    1    5    5  501    0  0.11584401577E+03 -0.29894058142E+02  0.13748781984E+03  0.18231423780E+03  0.47000000000E+01 0. -1.
        -11    1    6    6    0    0 -0.71934380601E+01 -0.77574081668E+02  0.32366079482E+02  0.84362591228E+02  0.00000000000E+00 0.  1.
         12    1    6    6    0    0 -0.10988617904E+02  0.95572206519E+01  0.67973698316E+01  0.16071540892E+02  0.00000000000E+00 0. -1.
         -5    1    3    3    0  503 -0.75813441936E+02  0.61837132625E+02 -0.10323126323E+03  0.14230352300E+03  0.47000000000E+01 0.  1.
         13    1    4    4    0    0 -0.31675840229E+02 -0.11208569369E+01 -0.17863234348E+02  0.36382829960E+02  0.00000000000E+00 0. -1.
        -14    1    4    4    0    0  0.98273223620E+01  0.37194643470E+02  0.41748096067E+02  0.56770778512E+02  0.00000000000E+00 0.  1.
</event>
<event>
12    1  0.1594900E-001  0.1723854E+03  0.7818608E-02  0.1175419E+00
         21   -1    0    0  503  502  0.00000000000E+00  0.00000000000E+00  0.26844367717E+03  0.26844367717E+03  0.00000000000E+00 0.  1.
         21   -1    0    0  501  503 -0.00000000000E+00 -0.00000000000E+00 -0.23497615490E+03  0.23497615490E+03  0.00000000000E+00 0.  1.
          6    2    1    2  501    0 -0.96975290260E+01  0.31176785749E+01 -0.16639201930E+03  0.23948697656E+03  0.17194169322E+03 0.  0.
         24    2    3    3    0    0  0.42210650611E+02 -0.44209521697E+02 -0.78426027115E+02  0.12681742087E+03  0.78713376708E+02 0.  0.
         -6    2    1    2    0  502  0.96975290260E+01 -0.31176785749E+01  0.19985954157E+03  0.26393285551E+03  0.17208414765E+03 0.  0.
        -24    2    5    5    0    0  0.36060600496E+02 -0.42733600587E+01  0.33981892566E+02  0.95903597415E+02  0.82000624756E+02 0.  0.
          5    1    3    3  501    0 -0.51908179637E+02  0.47327200272E+02 -0.87965992183E+02  0.11266955569E+03  0.47000000000E+01 0. -1.
        -11    1    4    4    0    0 -0.75593501653E+01 -0.46779950985E+02 -0.52203533654E+02  0.70503308539E+02  0.00000000000E+00 0.  1.
         12    1    4    4    0    0  0.49770000776E+02  0.25704292873E+01 -0.26222493462E+02  0.56314112328E+02  0.00000000000E+00 0. -1.
         -5    1    5    5    0  502 -0.26363071470E+02  0.11556814838E+01  0.16587764901E+03  0.16802925810E+03  0.47000000000E+01 0.  1.
         11    1    6    6    0    0  0.60768610433E+02 -0.80189496194E+01  0.35559961237E+02  0.70863519600E+02  0.00000000000E+00 0. -1.
        -12    1    6    6    0    0 -0.24708009937E+02  0.37455895607E+01 -0.15780686709E+01  0.25040077814E+02  0.00000000000E+00 0.  1.
</event>
<event>
12    1  0.1594900E-001  0.2193671E+03  0.7818608E-02  0.1135380E+00
         21   -1    0    0  501  502  0.00000000000E+00  0.00000000000E+00  0.37423576688E+03  0.37423576688E+03  0.00000000000E+00 0.  1.
         21   -1    0    0  502  503 -0.00000000000E+00 -0.00000000000E+00 -0.14178239011E+03  0.14178239011E+03  0.00000000000E+00 0. -1.
         -6    2    1    2    0  503  0.11238983378E+02  0.12683492721E+03  0.27359499637E+02  0.21570929751E+03  0.17195506769E+03 0.  0.
        -24    2    3    3    0    0  0.42456441610E+02  0.61243451858E+02  0.71535357852E+02  0.13056020599E+03  0.79845789714E+02 0.  0.
          6    2    1    2  501    0 -0.11238983378E+02 -0.12683492721E+03  0.20509387714E+03  0.30030885948E+03  0.17862950242E+03 0.  0.
         24    2    5    5    0    0 -0.71932473304E+01  0.12107610454E+02  0.69735682504E+02  0.10623328758E+03  0.78893022109E+02 0.  0.
          5    1    5    5  501    0 -0.40457360473E+01 -0.13894253767E+03  0.13535819463E+03  0.19407557190E+03  0.47000000000E+01 0. -1.
        -13    1    6    6    0    0 -0.42483573470E+02  0.13946162417E+02  0.36472753442E+02  0.57702783335E+02  0.00000000000E+00 0.  1.
         14    1    6    6    0    0  0.35290326140E+02 -0.18385519629E+01  0.33262929062E+02  0.48530504244E+02  0.00000000000E+00 0. -1.
         -5    1    3    3    0  503 -0.31217458232E+02  0.65591475357E+02 -0.44175858215E+02  0.85149091522E+02  0.47000000000E+01 0.  1.
         11    1    4    4    0    0  0.16410939177E+02 -0.64573970299E+01 -0.10917169117E+02  0.20741298961E+02  0.00000000000E+00 0. -1.
        -12    1    4    4    0    0  0.26045502433E+02  0.67700848888E+02  0.82452526969E+02  0.10981890703E+03  0.00000000000E+00 0.  1.
</event>
<event>
12    1  0.1594900E-001  0.1830931E+03  0.7818608E-02  0.1166612E+00
         21   -1    0    0  501  502  0.00000000000E+00  0.00000000000E+00  0.38854944930E+02  0.38854944930E+02  0.00000000000E+00 0.  1.
         21   -1    0    0  502  503 -0.00000000000E+00 -0.00000000000E+00 -0.83535603358E+03  0.83535603358E+03  0.00000000000E+00 0.  1.
         -6    2    1    2    0  503  0.51698229812E+02 -0.15366526336E+02 -0.44545722767E+03  0.48161730060E+03  0.17496927005E+03 0.  0.
        -24    2    3    3    0    0  0.58999252194E+02  0.71117643411E+01 -0.12283411064E+03  0.15809551753E+03  0.79840371845E+02 0.  0.
          6    2    1    2  501    0 -0.51698229812E+02  0.15366526336E+02 -0.35104386099E+03  0.39259367791E+03  0.16729963090E+03 0.  0.
         24    2    5    5    0    0  0.34347262380E+02  0.42582014050E+01 -0.16984458231E+03  0.19163972746E+03  0.81735771163E+02 0.  0.
          5    1    5    5  501    0 -0.86045492192E+02  0.11108324931E+02 -0.18119927867E+03  0.20095395045E+03  0.47000000000E+01 0. -1.
        -11    1    6    6    0    0 -0.34879324147E+01  0.17825035900E+02 -0.11243273959E+01  0.18197848484E+02  0.00000000000E+00 0.  1.
         12    1    6    6    0    0  0.37835194794E+02 -0.13566834495E+02 -0.16872025492E+03  0.17344187897E+03  0.00000000000E+00 0. -1.
         -5    1    3    3    0  503 -0.73010223817E+01 -0.22478290677E+02 -0.32262311703E+03  0.32352178307E+03  0.47000000000E+01 0.  1.
         11    1    4    4    0    0  0.54630897599E+02  0.17720538010E+02 -0.13164620325E+03  0.14362894997E+03  0.00000000000E+00 0. -1.
        -12    1    4    4    0    0  0.43683545953E+01 -0.10608773669E+02  0.88120926159E+01  0.14466567558E+02  0.00000000000E+00 0.  1.
</event>
<event>
12    1  0.1594900E-001  0.2176621E+03  0.7818608E-02  0.1135693E+00
         21   -1    0    0  503  502  0.00000000000E+00  0.00000000000E+00  0.28015848703E+03  0.28015848703E+03  0.00000000000E+00 0. -1.
         21   -1    0    0  501  503 -0.00000000000E+00 -0.00000000000E+00 -0.17656914954E+03  0.17656914954E+03  0.00000000000E+00 0.  1.
          6    2    1    2  501    0  0.86575199334E+02 -0.10130259133E+03  0.41779329120E+01  0.21770216656E+03  0.17210258003E+03 0.  0.
         24    2    3    3    0    0  0.96269368855E+02 -0.62624905858E+02 -0.46874651879E+02  0.15275298111E+03  0.89143536147E+02 0.  0.
         -6    2    1    2    0  502 -0.86575199334E+02  0.10130259133E+03  0.99411404571E+02  0.23902547001E+03  0.17173545878E+03 0.  0.
        -24    2    5    5    0    0 -0.10455163870E+03  0.64282921435E+02  0.12313338636E+03  0.19129255943E+03  0.79797702452E+02 0.  0.
          5    1    3    3  501    0 -0.96941695218E+01 -0.38677685477E+02  0.51052584791E+02  0.64949185448E+02  0.47000000000E+01 0. -1.
        -11    1    4    4    0    0  0.59039594997E+02  0.22065388077E+01  0.85389908350E+01  0.59694697883E+02  0.00000000000E+00 0.  1.
         12    1    4    4    0    0  0.37229773859E+02 -0.64831444666E+02 -0.55413642714E+02  0.93058283231E+02  0.00000000000E+00 0. -1.
         -5    1    5    5    0  502  0.17976439363E+02  0.37019669900E+02 -0.23721981787E+02  0.47732910571E+02  0.47000000000E+01 0.  1.
         13    1    6    6    0    0 -0.58591466042E+02  0.20402498928E+02  0.11017221619E+03  0.12644025892E+03  0.00000000000E+00 0. -1.
        -14    1    6    6    0    0 -0.45960172655E+02  0.43880422506E+02  0.12961170167E+02  0.64852300513E+02  0.00000000000E+00 0.  1.
</event>
<event>
12    1  0.1594900E-001  0.2485128E+03  0.7818608E-02  0.1114742E+00
         21   -1    0    0  501  502  0.00000000000E+00  0.00000000000E+00  0.87898802988E+02  0.87898802988E+02  0.00000000000E+00 0.  1.
         21   -1    0    0  502  503 -0.00000000000E+00 -0.00000000000E+00 -0.86917218115E+03  0.86917218115E+03  0.00000000000E+00 0.  1.
         -6    2    1    2    0  503  0.15685019164E+03 -0.74989087103E+02 -0.60745377430E+03  0.65632211471E+03  0.17757613731E+03 0.  0.
        -24    2    3    3    0    0  0.25023609706E+02  0.58932978834E+01 -0.13745445820E+03  0.16150734629E+03  0.80808309135E+02 0.  0.
          6    2    1    2  501    0 -0.15685019164E+03  0.74989087103E+02 -0.17381960387E+03  0.30074886943E+03  0.17323764595E+03 0.  0.
         24    2    5    5    0    0 -0.12777361218E+03  0.10137250044E+03 -0.78652612627E+02  0.19769365028E+03  0.79335150304E+02 0.  0.
          5    1    5    5  501    0 -0.29076579459E+02 -0.26383413339E+02 -0.95166991239E+02  0.10305521915E+03  0.47000000000E+01 0. -1.
        -13    1    6    6    0    0 -0.10243368001E+03  0.43773520684E+02 -0.23122941669E+02  0.11376928560E+03  0.00000000000E+00 0.  1.
         14    1    6    6    0    0 -0.25339932172E+02  0.57598979759E+02 -0.55529670958E+02  0.83924364689E+02  0.00000000000E+00 0. -1.
         -5    1    3    3    0  503  0.13182658194E+03 -0.80882384987E+02 -0.46999931610E+03  0.49481476841E+03  0.47000000000E+01 0.  1.
         11    1    4    4    0    0  0.51416694556E+02  0.13291576473E+02 -0.11264702072E+03  0.12453792098E+03  0.00000000000E+00 0. -1.
        -12    1    4    4    0    0 -0.26393084850E+02 -0.73982785898E+01 -0.24807437482E+02  0.36969425319E+02  0.00000000000E+00 0.  1.
</event>
<event>
12    1  0.1594900E-001  0.2019164E+03  0.7818608E-02  0.1148167E+00
         21   -1    0    0  501  502  0.00000000000E+00  0.00000000000E+00  0.51544983273E+03  0.51544983273E+03  0.00000000000E+00 0. -1.
         21   -1    0    0  502  503 -0.00000000000E+00 -0.00000000000E+00 -0.16010969056E+03  0.16010969056E+03  0.00000000000E+00 0. -1.
         -6    2    1    2    0  503  0.60550443057E+02 -0.87470625498E+02 -0.62663151932E+02  0.21141640469E+03  0.17161806164E+03 0.  0.
        -24    2    3    3    0    0  0.72407942738E+02 -0.54558669736E+02  0.18105638055E+02  0.12327172495E+03  0.81538613104E+02 0.  0.
          6    2    1    2  501    0 -0.60550443057E+02  0.87470625498E+02  0.41800329411E+03  0.46414311860E+03  0.17141941016E+03 0.  0.
         24    2    5    5    0    0 -0.40038722593E+01  0.11372967947E+03  0.30129081429E+03  0.33173864160E+03  0.79522956256E+02 0.  0.
          5    1    5    5  501    0 -0.56546570798E+02 -0.26259053967E+02  0.11671247982E+03  0.13240447700E+03  0.47000000000E+01 0. -1.
        -11    1    6    6    0    0 -0.21387287994E+02  0.64912862928E+02  0.83683363868E+02  0.10804629216E+03  0.00000000000E+00 0.  1.
         12    1    6    6    0    0  0.17383415735E+02  0.48816816538E+02  0.21760745042E+03  0.22369234944E+03  0.00000000000E+00 0. -1.
         -5    1    3    3    0  503 -0.11857499681E+02 -0.32911955762E+02 -0.80768789988E+02  0.88144679742E+02  0.47000000000E+01 0.  1.
         13    1    4    4    0    0  0.55854611773E+02 -0.15496279293E+02 -0.24696646908E+02  0.63006322673E+02  0.00000000000E+00 0. -1.
        -14    1    4    4    0    0  0.16553330965E+02 -0.39062390443E+02  0.42802284963E+02  0.60265402274E+02  0.00000000000E+00 0.  1.
</event>
<event>
12    1  0.1594900E-001  0.2269456E+03  0.7818608E-02  0.1129278E+00
         21   -1    0    0  501  502  0.00000000000E+00  0.00000000000E+00  0.17908063238E+04  0.17908063238E+04  0.00000000000E+00 0. -1.
         21   -1    0    0  502  503 -0.00000000000E+00 -0.00000000000E+00 -0.34531763614E+02  0.34531763614E+02  0.00000000000E+00 0. -1.
         -6    2    1    2    0  503 -0.10157531971E+03  0.10289693540E+03  0.49035839992E+03  0.53924010013E+03  0.17153192217E+03 0.  0.
        -24    2    3    3    0    0 -0.74878158282E+02 -0.86642307317E+01  0.24478326934E+03  0.26815364348E+03  0.79408564282E+02 0.  0.
          6    2    1    2  501    0  0.10157531971E+03 -0.10289693540E+03  0.12659161603E+04  0.12860979873E+04  0.17492565050E+03 0.  0.
         24    2    5    5    0    0  0.27855934143E+01 -0.18798820946E+02  0.73220234213E+03  0.73682170658E+03  0.80154864335E+02 0.  0.
          5    1    5    5  501    0  0.98789726292E+02 -0.84098114451E+02  0.53371381815E+03  0.54927628072E+03  0.47000000000E+01 0. -1.
        -13    1    6    6    0    0 -0.32303231791E+01  0.29991995903E+02  0.18814891495E+03  0.19055174889E+03  0.00000000000E+00 0.  1.
         14    1    6    6    0    0  0.60159165934E+01 -0.48790816849E+02  0.54405342717E+03  0.54626995769E+03  0.00000000000E+00 0. -1.
         -5    1    3    3    0  503 -0.26697161425E+02  0.11156116613E+03  0.24557513058E+03  0.27108645664E+03  0.47000000000E+01 0.  1.
         11    1    4    4    0    0 -0.58626493987E+02 -0.29986346808E+02  0.92597962351E+02  0.11362495071E+03  0.00000000000E+00 0. -1.
        -12    1    4    4    0    0 -0.16251664295E+02  0.21322116076E+02  0.15218530699E+03  0.15452869278E+03  0.00000000000E+00 0.  1.
</event>
<event>
12    1  0.1594900E-001  0.2437830E+03  0.7818608E-02  0.1117588E+00
         21   -1    0    0  503  502  0.00000000000E+00  0.00000000000E+00  0.69940017267E+03  0.69940017267E+03  0.00000000000E+00 0. -1.
         21   -1    0    0  501  503 -0.00000000000E+00 -0.00000000000E+00 -0.11499834351E+03  0.11499834351E+03  0.00000000000E+00 0.  1.
          6    2    1    2  501    0 -0.80854091525E+02  0.15212204094E+03  0.81230072297E+02  0.25528136497E+03  0.16997573708E+03 0.  0.
         24    2    3    3    0    0  0.62336541435E+01  0.18326084241E+02  0.19496220777E+02  0.84054054358E+02  0.79437255880E+02 0.  0.
         -6    2    1    2    0  502  0.80854091525E+02 -0.15212204094E+03  0.50317175687E+03  0.55911715122E+03  0.17248673116E+03 0.  0.
        -24    2    5    5    0    0  0.53544756740E+02 -0.12745866879E+03  0.49037108049E+03  0.51987394789E+03  0.10340392588E+03 0.  0.
          5    1    3    3  501    0 -0.87087745668E+02  0.13379595670E+03  0.61733851520E+02  0.17122731061E+03  0.47000000000E+01 0. -1.
        -13    1    4    4    0    0 -0.20828134044E+02  0.25724637642E+02  0.38040112098E+02  0.50424381781E+02  0.00000000000E+00 0.  1.
         14    1    4    4    0    0  0.27061788187E+02 -0.73985534010E+01 -0.18543891321E+02  0.33629672577E+02  0.00000000000E+00 0. -1.
         -5    1    5    5    0  502  0.27309334785E+02 -0.24663372146E+02  0.12800676371E+02  0.39243203329E+02  0.47000000000E+01 0.  1.
         11    1    6    6    0    0  0.38196181763E+02 -0.13045456608E+03  0.30590868088E+03  0.33474985161E+03  0.00000000000E+00 0. -1.
        -12    1    6    6    0    0  0.15348574977E+02  0.29958972868E+01  0.18446239961E+03  0.18512409628E+03  0.00000000000E+00 0.  1.
</event>
<event>
12    1  0.1594900E-001  0.2849493E+03  0.7818608E-02  0.1093067E+00
         21   -1    0    0  501  502  0.00000000000E+00  0.00000000000E+00  0.62150034375E+03  0.62150034375E+03  0.00000000000E+00 0.  1.
         21   -1    0    0  502  503 -0.00000000000E+00 -0.00000000000E+00 -0.26341527274E+03  0.26341527274E+03  0.00000000000E+00 0. -1.
         -6    2    1    2    0  503  0.19700449630E+03 -0.11232173250E+03  0.49343458414E+03  0.56980155345E+03  0.17253746936E+03 0.  0.
        -24    2    3    3    0    0  0.17117090599E+02 -0.16747591079E+02  0.10554218274E+03  0.13165032350E+03  0.74961181577E+02 0.  0.
          6    2    1    2  501    0 -0.19700449630E+03  0.11232173250E+03 -0.13534951313E+03  0.31511406305E+03  0.17190241089E+03 0.  0.
         24    2    5    5    0    0 -0.65112677009E+02 -0.86158406065E+01 -0.69695663378E+02  0.12444716353E+03  0.79471489227E+02 0.  0.
          5    1    5    5  501    0 -0.13189181929E+03  0.12093757311E+03 -0.65653849751E+02  0.19066689952E+03  0.47000000000E+01 0. -1.
        -13    1    6    6    0    0  0.24356727871E+01 -0.31475759123E+02 -0.17707815318E+02  0.36196997633E+02  0.00000000000E+00 0.  1.
         14    1    6    6    0    0 -0.67548349797E+02  0.22859918516E+02 -0.51987848060E+02  0.88250165896E+02  0.00000000000E+00 0. -1.
         -5    1    3    3    0  503  0.17988740570E+03 -0.95574141422E+02  0.38789240140E+03  0.43815122995E+03  0.47000000000E+01 0.  1.
         13    1    4    4    0    0 -0.19825022012E+02 -0.31180075100E+02  0.35963897060E+02  0.51561909127E+02  0.00000000000E+00 0. -1.
        -14    1    4    4    0    0  0.36942112611E+02  0.14432484021E+02  0.69578285676E+02  0.80088414373E+02  0.00000000000E+00 0.  1.
</event>
<event>
12    1  0.1594900E-001  0.1714677E+03  0.7818608E-02  0.1176353E+00
         21   -1    0    0  501  502  0.00000000000E+00  0.00000000000E+00  0.86981697975E+02  0.86981697975E+02  0.00000000000E+00 0.  1.
         21   -1    0    0  502  503 -0.00000000000E+00 -0.00000000000E+00 -0.98803187346E+03  0.98803187346E+03  0.00000000000E+00 0.  1.
         -6    2    1    2    0  503 -0.11727020625E+01  0.60967725625E+01 -0.88661574275E+03  0.90304410116E+03  0.17135526685E+03 0.  0.
        -24    2    3    3    0    0 -0.13752309690E+02  0.19665867695E+01 -0.18125240140E+03  0.19754084937E+03  0.77310805655E+02 0.  0.
          6    2    1    2  501    0  0.11727020625E+01 -0.60967725625E+01 -0.14434432738E+02  0.17196947028E+03  0.17125010947E+03 0.  0.
         24    2    5    5    0    0 -0.39637183394E+01 -0.60532030117E+02 -0.41809693552E+02  0.11064186651E+03  0.82545347638E+02 0.  0.
          5    1    5    5  501    0  0.51364204020E+01  0.54435257554E+02  0.27375260814E+02  0.61327603770E+02  0.47000000000E+01 0. -1.
        -13    1    6    6    0    0 -0.50255627188E+01 -0.48000790409E+01  0.23658319782E+02  0.24657922345E+02  0.00000000000E+00 0.  1.
         14    1    6    6    0    0  0.10618443793E+01 -0.55731951076E+02 -0.65468013334E+02  0.85983944165E+02  0.00000000000E+00 0. -1.
         -5    1    3    3    0  503  0.12579607627E+02  0.41301857929E+01 -0.70536334135E+03  0.70550325179E+03  0.47000000000E+01 0.  1.
         11    1    4    4    0    0 -0.13673946324E+02  0.35513270163E+02 -0.54821502140E+02  0.66735045236E+02  0.00000000000E+00 0. -1.
        -12    1    4    4    0    0 -0.78363366438E-01 -0.33546683393E+02 -0.12643089926E+03  0.13080580413E+03  0.00000000000E+00 0.  1.
</event>
<event>
12    1  0.1594900E-001  0.2112440E+03  0.7818608E-02  0.1140736E+00
         21   -1    0    0  503  502  0.00000000000E+00  0.00000000000E+00  0.68583629893E+03  0.68583629893E+03  0.00000000000E+00 0.  1.
         21   -1    0    0  501  503 -0.00000000000E+00 -0.00000000000E+00 -0.90159113671E+02  0.90159113671E+02  0.00000000000E+00 0. -1.
          6    2    1    2  501    0  0.93523688815E+02 -0.79346908071E+02  0.91787620538E+02  0.22961759371E+03  0.17104578295E+03 0.  0.
         24    2    3    3    0    0  0.10829998114E+03 -0.20479146167E+02  0.98552941963E+02  0.16836719142E+03  0.80539104999E+02 0.  0.
         -6    2    1    2    0  502 -0.93523688815E+02  0.79346908071E+02  0.50388956473E+03  0.54637781890E+03  0.17199248633E+03 0.  0.
        -24    2    5    5    0    0 -0.59312279658E+01  0.84008936334E+02  0.35257614215E+03  0.37141492124E+03  0.80909992323E+02 0.  0.
          5    1    3    3  501    0 -0.14776292326E+02 -0.58867761903E+02 -0.67653214256E+01  0.61250402288E+02  0.47000000000E+01 0. -1.
        -13    1    4    4    0    0  0.25896473173E+02 -0.14171383937E+02  0.77719597651E+02  0.83137183646E+02  0.00000000000E+00 0.  1.
         14    1    4    4    0    0  0.82403507969E+02 -0.63077622304E+01  0.20833344312E+02  0.85230007774E+02  0.00000000000E+00 0. -1.
         -5    1    5    5    0  502 -0.87592460849E+02 -0.46620282635E+01  0.15131342258E+03  0.17496289766E+03  0.47000000000E+01 0.  1.
         11    1    6    6    0    0 -0.13789854266E+02  0.92374785321E+02  0.22910359208E+03  0.24741001788E+03  0.00000000000E+00 0. -1.
        -12    1    6    6    0    0  0.78586263005E+01 -0.83658489870E+01  0.12347255006E+03  0.12400490335E+03  0.00000000000E+00 0.  1.
</event>
<event>
12    1  0.1594900E-001  0.2772687E+03  0.7818608E-02  0.1097248E+00
         21   -1    0    0  503  502  0.00000000000E+00  0.00000000000E+00  0.49331833893E+03  0.49331833893E+03  0.00000000000E+00 0.  1.
         21   -1    0    0  501  503 -0.00000000000E+00 -0.00000000000E+00 -0.16350758161E+03  0.16350758161E+03  0.00000000000E+00 0.  1.
          6    2    1    2  501    0 -0.21273910089E+03 -0.42002001056E+02  0.92584094234E+02  0.29192262237E+03  0.17211888276E+03 0.  0.
         24    2    3    3    0    0 -0.22828254204E+03 -0.42529434700E+02  0.11001036569E+03  0.26809739024E+03  0.76500054089E+02 0.  0.
         -6    2    1    2    0  502  0.21273910089E+03  0.42002001056E+02  0.23722666309E+03  0.36490329818E+03  0.17278840875E+03 0.  0.
        -24    2    5    5    0    0  0.17571601894E+03  0.32621796324E+02  0.94200879024E+02  0.21679130763E+03  0.78640730829E+02 0.  0.
          5    1    3    3  501    0  0.15543441150E+02  0.52743364413E+00 -0.17426271458E+02  0.23825232128E+02  0.47000000000E+01 0. -1.
        -13    1    4    4    0    0 -0.12796873094E+03  0.54272956826E+00  0.26588718246E+02  0.13070290965E+03  0.00000000000E+00 0.  1.
         14    1    4    4    0    0 -0.10031381110E+03 -0.43072164269E+02  0.83421647445E+02  0.13739448058E+03  0.00000000000E+00 0. -1.
         -5    1    5    5    0  502  0.37023081950E+02  0.93802047322E+01  0.14302578406E+03  0.14811199055E+03  0.47000000000E+01 0.  1.
         11    1    6    6    0    0  0.12426138586E+02 -0.20028283327E+02  0.89699979426E+01  0.25219078419E+02  0.00000000000E+00 0. -1.
        -12    1    6    6    0    0  0.16328988036E+03  0.52650079651E+02  0.85230881082E+02  0.19157222921E+03  0.00000000000E+00 0.  1.
</event>
<event>
12    1  0.1594900E-001  0.2207767E+03  0.7818608E-02  0.1133822E+00
         21   -1    0    0  503  502  0.00000000000E+00  0.00000000000E+00  0.19429756347E+04  0.19429756347E+04  0.00000000000E+00 0. -1.
         21   -1    0    0  501  503 -0.00000000000E+00 -0.00000000000E+00 -0.25342033206E+02  0.25342033206E+02  0.00000000000E+00 0.  1.
          6    2    1    2  501    0  0.90662751821E+02  0.10038337696E+03  0.81729876565E+03  0.84659294989E+03  0.17448723029E+03 0.  0.
         24    2    3    3    0    0  0.12882869771E+03  0.10942849288E+03  0.71786585702E+03  0.73960020777E+03  0.55728361268E+02 0.  0.
         -6    2    1    2    0  502 -0.90662751821E+02 -0.10038337696E+03  0.11003348358E+04  0.11217247180E+04  0.17097670921E+03 0.  0.
        -24    2    5    5    0    0 -0.12418019474E+03 -0.73822248643E+02  0.70605672643E+03  0.72510622363E+03  0.79953045368E+02 0.  0.
          5    1    3    3  501    0 -0.38165945892E+02 -0.90451159240E+01  0.99432908627E+02  0.10699274212E+03  0.47000000000E+01 0. -1.
        -11    1    4    4    0    0  0.76326819907E+02  0.65948826271E+02  0.30780847557E+03  0.32391524935E+03  0.00000000000E+00 0.  1.
         12    1    4    4    0    0  0.52501877807E+02  0.43479666611E+02  0.41005738145E+03  0.41568495843E+03  0.00000000000E+00 0. -1.
         -5    1    5    5    0  502  0.33517442914E+02 -0.26561128315E+02  0.39427810937E+03  0.39661849434E+03  0.47000000000E+01 0.  1.
         11    1    6    6    0    0  0.63971542713E+01 -0.23528107137E+02  0.81653807388E+02  0.85216428400E+02  0.00000000000E+00 0. -1.
        -12    1    6    6    0    0 -0.13057734901E+03 -0.50294141507E+02  0.62440291904E+03  0.63988979523E+03  0.00000000000E+00 0.  1.
</event>
<event>
12    1  0.1594900E-001  0.2134865E+03  0.7818608E-02  0.1138980E+00
         21   -1    0    0  501  502  0.00000000000E+00  0.00000000000E+00  0.64825422131E+02  0.64825422131E+02  0.00000000000E+00 0.  1.
         21   -1    0    0  502  503 -0.00000000000E+00 -0.00000000000E+00 -0.99057337831E+03  0.99057337831E+03  0.00000000000E+00 0. -1.
         -6    2    1    2    0  503 -0.62966103619E+02  0.10924411286E+03 -0.74780905756E+03  0.77748021243E+03  0.17134201982E+03 0.  0.
        -24    2    3    3    0    0 -0.65896291701E+02  0.35645910065E+02 -0.62713853152E+03  0.63602793316E+03  0.74938920977E+02 0.  0.
          6    2    1    2  501    0  0.62966103619E+02 -0.10924411286E+03 -0.17793889862E+03  0.27791858801E+03  0.17227154007E+03 0.  0.
         24    2    5    5    0    0  0.10980139594E+03 -0.89351799739E+02 -0.13234774261E+03  0.20943580014E+03  0.79418755597E+02 0.  0.
          5    1    5    5  501    0 -0.46835292318E+02 -0.19892313121E+02 -0.45591156012E+02  0.68482787869E+02  0.47000000000E+01 0. -1.
        -11    1    6    6    0    0 -0.55351845353E+01  0.90479269233E+01 -0.10584256963E+02  0.14984316632E+02  0.00000000000E+00 0.  1.
         12    1    6    6    0    0  0.11533658047E+03 -0.98399726663E+02 -0.12176348565E+03  0.19445148351E+03  0.00000000000E+00 0. -1.
         -5    1    3    3    0  503  0.29301880818E+01  0.73598202796E+02 -0.12067052604E+03  0.14145227927E+03  0.47000000000E+01 0.  1.
         11    1    4    4    0    0 -0.79742908253E+02  0.42607049735E+02 -0.52780411741E+03  0.53549180989E+03  0.00000000000E+00 0. -1.
        -12    1    4    4    0    0  0.13846616552E+02 -0.69611396707E+01 -0.99334414110E+02  0.10053612327E+03  0.00000000000E+00 0.  1.
</event>
<event>
12    1  0.1594900E-001  0.2301079E+03  0.7818608E-02  0.1126826E+00
         21   -1    0    0  503  502  0.00000000000E+00  0.00000000000E+00  0.90331332787E+02  0.90331332787E+02  0.00000000000E+00 0. -1.
         21   -1    0    0  501  503 -0.00000000000E+00 -0.00000000000E+00 -0.18367349017E+04  0.18367349017E+04  0.00000000000E+00 0. -1.
          6    2    1    2  501    0 -0.14969063527E+03 -0.18574271039E+02 -0.16703518268E+04  0.16861271782E+04  0.17377383581E+03 0.  0.
         24    2    3    3    0    0 -0.10780758625E+02 -0.12328106614E+01 -0.38961758489E+03  0.39775651398E+03  0.79313538439E+02 0.  0.
         -6    2    1    2    0  502  0.14969063527E+03  0.18574271039E+02 -0.76051742075E+02  0.24093905623E+03  0.17180067378E+03 0.  0.
        -24    2    5    5    0    0  0.60548327448E+02  0.46243699433E+02  0.13555260735E+02  0.11146530111E+03  0.80225859698E+02 0.  0.
          5    1    3    3  501    0 -0.13890987664E+03 -0.17341460377E+02 -0.12807342419E+04  0.12883706643E+04  0.47000000000E+01 0. -1.
        -13    1    4    4    0    0 -0.33411107171E+02  0.36514995509E+01 -0.73817347113E+02  0.81108792779E+02  0.00000000000E+00 0.  1.
         14    1    4    4    0    0  0.22630348547E+02 -0.48843102123E+01 -0.31580023778E+03  0.31664772120E+03  0.00000000000E+00 0. -1.
         -5    1    5    5    0  502  0.89142307821E+02 -0.27669428394E+02 -0.89607002809E+02  0.12947375512E+03  0.47000000000E+01 0.  1.
         11    1    6    6    0    0  0.44047611745E+02 -0.14477655493E+02 -0.28023011181E+01  0.46450484396E+02  0.00000000000E+00 0. -1.
        -12    1    6    6    0    0  0.16500715702E+02  0.60721354926E+02  0.16357561853E+02  0.65014816716E+02  0.00000000000E+00 0.  1.
</event>
<event>
12    1  0.1594900E-001  0.1819610E+03  0.7818608E-02  0.1166251E+00
         21   -1    0    0  501  502  0.00000000000E+00  0.00000000000E+00  0.11135084267E+03  0.11135084267E+03  0.00000000000E+00 0.  1.
         21   -1    0    0  502  503 -0.00000000000E+00 -0.00000000000E+00 -0.33991585238E+03  0.33991585238E+03  0.00000000000E+00 0.  1.
         -6    2    1    2    0  503  0.57039531710E+02 -0.14285291150E+02 -0.19660242317E+03  0.26788493078E+03  0.17219827416E+03 0.  0.
        -24    2    3    3    0    0  0.85897180842E+02  0.17738016619E+02 -0.79742675449E+02  0.14323924577E+03  0.80409106023E+02 0.  0.
          6    2    1    2  501    0 -0.57039531710E+02  0.14285291150E+02 -0.31962586536E+02  0.18338176427E+03  0.17073279359E+03 0.  0.
         24    2    5    5    0    0 -0.37158624744E+02  0.72332147166E+02 -0.33404009021E+02  0.12182808319E+03  0.84341870554E+02 0.  0.
          5    1    5    5  501    0 -0.19880906966E+02 -0.58046856017E+02  0.14414224851E+01  0.61553681076E+02  0.47000000000E+01 0. -1.
        -11    1    6    6    0    0 -0.50071754294E+02  0.72832798960E+01 -0.10586223331E+02  0.51694244056E+02  0.00000000000E+00 0.  1.
         12    1    6    6    0    0  0.12913129550E+02  0.65048867270E+02 -0.22817785690E+02  0.70133839134E+02  0.00000000000E+00 0. -1.
         -5    1    3    3    0  503 -0.28857649132E+02 -0.32023307769E+02 -0.11685974772E+03  0.12464568501E+03  0.47000000000E+01 0.  1.
         13    1    4    4    0    0 -0.20586735800E+01  0.28451594612E+02 -0.91721561808E+01  0.29964309134E+02  0.00000000000E+00 0. -1.
        -14    1    4    4    0    0  0.87955854422E+02 -0.10713577993E+02 -0.70570519268E+02  0.11327493664E+03  0.00000000000E+00 0.  1.
</event>
<event>
12    1  0.1594900E-001  0.2177813E+03  0.7818608E-02  0.1136170E+00
         21   -1    0    0  501  502  0.00000000000E+00  0.00000000000E+00  0.15382336702E+03  0.15382336702E+03  0.00000000000E+00 0.  1.
         21   -1    0    0  502  503 -0.00000000000E+00 -0.00000000000E+00 -0.35886626265E+03  0.35886626265E+03  0.00000000000E+00 0.  1.
         -6    2    1    2    0  503  0.10099436602E+03 -0.79779340879E+02 -0.20234987864E+03  0.29489165499E+03  0.17161296454E+03 0.  0.
        -24    2    3    3    0    0 -0.11375644062E+02 -0.33969141059E+02 -0.50602905409E+02  0.10053418161E+03  0.79140127710E+02 0.  0.
          6    2    1    2  501    0 -0.10099436602E+03  0.79779340879E+02 -0.26930169937E+01  0.21779797468E+03  0.17568181532E+03 0.  0.
         24    2    5    5    0    0 -0.15028020059E+02  0.94633602077E+02  0.26214061326E+02  0.12577313623E+03  0.77138477801E+02 0.  0.
          5    1    5    5  501    0 -0.85966345966E+02 -0.14854261198E+02 -0.28907078320E+02  0.92024838448E+02  0.47000000000E+01 0. -1.
        -11    1    6    6    0    0 -0.35150207042E+02  0.48743011200E+02  0.41908000466E+02  0.73264580112E+02  0.00000000000E+00 0.  1.
         12    1    6    6    0    0  0.20122186984E+02  0.45890590877E+02 -0.15693939140E+02  0.52508556120E+02  0.00000000000E+00 0. -1.
         -5    1    3    3    0  503  0.11237001009E+03 -0.45810199820E+02 -0.15174697323E+03  0.19435747338E+03  0.47000000000E+01 0.  1.
         11    1    4    4    0    0 -0.30126232914E+01 -0.18233708829E+02  0.20284717509E+02  0.27441096938E+02  0.00000000000E+00 0. -1.
        -12    1    4    4    0    0 -0.83630207703E+01 -0.15735432230E+02 -0.70887622917E+02  0.73093084671E+02  0.00000000000E+00 0.  1.
</event>
<event>
12    1  0.1594900E-001  0.1889718E+03  0.7818608E-02  0.1159439E+00
         21   -1    0    0  503  502  0.00000000000E+00  0.00000000000E+00  0.62843497950E+03  0.62843497950E+03  0.00000000000E+00 0.  1.
         21   -1    0    0  501  503 -0.00000000000E+00 -0.00000000000E+00 -0.18628007467E+03  0.18628007467E+03  0.00000000000E+00 0.  1.
          6    2    1    2  501    0 -0.55477436728E+02  0.55745037969E+02 -0.11862899469E+03  0.22294743357E+03  0.17160263549E+03 0.  0.
         24    2    3    3    0    0 -0.81938252277E+02  0.50786158137E+02 -0.14041784635E+03  0.18799590563E+03  0.79574982977E+02 0.  0.
         -6    2    1    2    0  502  0.55477436728E+02 -0.55745037969E+02  0.56078389953E+03  0.59176762060E+03  0.17182863433E+03 0.  0.
        -24    2    5    5    0    0 -0.28770794718E+02 -0.45191385077E+02  0.20917668663E+03  0.23002342057E+03  0.79283465290E+02 0.  0.
          5    1    3    3  501    0  0.26460815549E+02  0.49588798315E+01  0.21788851655E+02  0.34951527937E+02  0.47000000000E+01 0. -1.
        -13    1    4    4    0    0 -0.59974595654E+02  0.17921379347E+02 -0.27518837109E+02  0.68377001670E+02  0.00000000000E+00 0.  1.
         14    1    4    4    0    0 -0.21963656623E+02  0.32864778790E+02 -0.11289900924E+03  0.11961890396E+03  0.00000000000E+00 0. -1.
         -5    1    5    5    0  502  0.84248231446E+02 -0.10553652892E+02  0.35160721290E+03  0.36174420003E+03  0.47000000000E+01 0.  1.
         11    1    6    6    0    0 -0.92232736521E+01  0.20975114588E+02  0.84259753455E+02  0.87319701449E+02  0.00000000000E+00 0. -1.
        -12    1    6    6    0    0 -0.19547521066E+02 -0.66166499665E+02  0.12491693317E+03  0.14270371912E+03  0.00000000000E+00 0.  1.
</event>
<event>
12    1  0.1594900E-001  0.1884239E+03  0.7818608E-02  0.1160059E+00
         21   -1    0    0  501  502  0.00000000000E+00  0.00000000000E+00  0.27271870834E+03  0.27271870834E+03  0.00000000000E+00 0.  1.
         21   -1    0    0  502  503 -0.00000000000E+00 -0.00000000000E+00 -0.32039043931E+03  0.32039043931E+03  0.00000000000E+00 0.  1.
         -6    2    1    2    0  503 -0.73845081976E+02 -0.23862646040E+02 -0.25265601570E+03  0.31518031100E+03  0.17170044893E+03 0.  0.
        -24    2    3    3    0    0  0.20024528726E+02 -0.20866712720E+01 -0.65339108149E+02  0.10447812604E+03  0.79000910243E+02 0.  0.
          6    2    1    2  501    0  0.73845081976E+02  0.23862646040E+02  0.20498428473E+03  0.27792883665E+03  0.17088990387E+03 0.  0.
         24    2    5    5    0    0  0.81791153197E+02 -0.39612525085E+02  0.15313657319E+03  0.19545149073E+03  0.80570033484E+02 0.  0.
          5    1    5    5  501    0 -0.79460712209E+01  0.63475171125E+02  0.51847711540E+02  0.82477345914E+02  0.47000000000E+01 0. -1.
        -13    1    6    6    0    0  0.69894686835E+02  0.50677812101E+01  0.11853578705E+03  0.13770142507E+03  0.00000000000E+00 0.  1.
         14    1    6    6    0    0  0.11896466362E+02 -0.44680306295E+02  0.34600786139E+02  0.57750065662E+02  0.00000000000E+00 0. -1.
         -5    1    3    3    0  503 -0.93869610702E+02 -0.21775974768E+02 -0.18731690755E+03  0.21070218496E+03  0.47000000000E+01 0.  1.
         13    1    4    4    0    0 -0.15513952865E+02 -0.25083914737E+02 -0.37306649119E+01  0.29728830665E+02  0.00000000000E+00 0. -1.
        -14    1    4    4    0    0  0.35538481592E+02  0.22997243465E+02 -0.61608443237E+02  0.74749295374E+02  0.00000000000E+00 0.  1.
</event>
<event>
12    1  0.1594900E-001  0.2039314E+03  0.7818608E-02  0.1146688E+00
         21   -1    0    0  501  502  0.00000000000E+00  0.00000000000E+00  0.12376622691E+04  0.12376622691E+04  0.00000000000E+00 0.  1.
         21   -1    0    0  502  503 -0.00000000000E+00 -0.00000000000E+00 -0.52811866883E+02  0.52811866883E+02  0.00000000000E+00 0.  1.
         -6    2    1    2    0  503  0.74808179480E+02  0.78831636638E+02  0.20247231392E+03  0.28737264892E+03  0.17256103497E+03 0.  0.
        -24    2    3    3    0    0  0.11481261119E+03  0.83296051646E+02  0.17044092693E+03  0.23571623296E+03  0.79949140089E+02 0.  0.
          6    2    1    2  501    0 -0.74808179480E+02 -0.78831636638E+02  0.98237808835E+03  0.10031014871E+04  0.17127520056E+03 0.  0.
         24    2    5    5    0    0 -0.10971413797E+03 -0.32252626171E+02  0.77552155823E+03  0.78816022954E+03  0.81764516633E+02 0.  0.
          5    1    5    5  501    0  0.34905958493E+02 -0.46579010468E+02  0.20685653012E+03  0.21494125757E+03  0.47000000000E+01 0. -1.
        -13    1    6    6    0    0 -0.51247410562E+02  0.90135082855E+01  0.52634923066E+03  0.52891497714E+03  0.00000000000E+00 0.  1.
         14    1    6    6    0    0 -0.58466727412E+02 -0.41266134456E+02  0.24917232757E+03  0.25924525240E+03  0.00000000000E+00 0. -1.
         -5    1    3    3    0  503 -0.40004431705E+02 -0.44644150080E+01  0.32031386983E+02  0.51656415957E+02  0.47000000000E+01 0.  1.
         13    1    4    4    0    0  0.29647043205E+02 -0.36797057207E+01  0.75959421903E+02  0.81623043198E+02  0.00000000000E+00 0. -1.
        -14    1    4    4    0    0  0.85165567980E+02  0.86975757367E+02  0.94481505028E+02  0.15409318976E+03  0.00000000000E+00 0.  1.
</event>
<event>
12    1  0.1594900E-001  0.2818616E+03  0.7818608E-02  0.1095080E+00
         21   -1    0    0  501  502  0.00000000000E+00  0.00000000000E+00  0.21232051654E+03  0.21232051654E+03  0.00000000000E+00 0.  1.
         21   -1    0    0  502  503 -0.00000000000E+00 -0.00000000000E+00 -0.52390700300E+03  0.52390700300E+03  0.00000000000E+00 0.  1.
         -6    2    1    2    0  503 -0.10871950687E+03  0.19255750642E+03 -0.35456420203E+03  0.45110814358E+03  0.16995428617E+03 0.  0.
        -24    2    3    3    0    0 -0.77034312851E+02  0.20554694560E+03 -0.34201864461E+03  0.41433644167E+03  0.80709983502E+02 0.  0.
          6    2    1    2  501    0  0.10871950687E+03 -0.19255750642E+03  0.42977715569E+02  0.28511937596E+03  0.17477886045E+03 0.  0.
         24    2    5    5    0    0  0.10384386298E+03 -0.10062232134E+03 -0.29679278476E+02  0.16774399974E+03  0.79679297489E+02 0.  0.
          5    1    5    5  501    0  0.48756438916E+01 -0.91935185082E+02  0.72656994045E+02  0.11737537622E+03  0.47000000000E+01 0. -1.
        -13    1    6    6    0    0  0.51394965749E+02 -0.66143876268E+02 -0.54843085813E+02  0.10012102144E+03  0.00000000000E+00 0.  1.
         14    1    6    6    0    0  0.52448897228E+02 -0.34478445073E+02  0.25163807337E+02  0.67622978304E+02  0.00000000000E+00 0. -1.
         -5    1    3    3    0  503 -0.31685194018E+02 -0.12989439176E+02 -0.12545557422E+02  0.36771701907E+02  0.47000000000E+01 0.  1.
         13    1    4    4    0    0  0.14309321385E+02  0.84644942931E+01 -0.22673715304E+02  0.28115862210E+02  0.00000000000E+00 0. -1.
        -14    1    4    4    0    0 -0.91343634236E+02  0.19708245131E+03 -0.31934492930E+03  0.38622057946E+03  0.00000000000E+00 0.  1.
</event>
<event>
12    1  0.1594900E-001  0.1708379E+03  0.7818608E-02  0.1177265E+00
         21   -1    0    0  501  502  0.00000000000E+00  0.00000000000E+00  0.24484783362E+02  0.24484783362E+02  0.00000000000E+00 0. -1.
         21   -1    0    0  502  503 -0.00000000000E+00 -0.00000000000E+00 -0.15726746843E+04  0.15726746843E+04  0.00000000000E+00 0. -1.
         -6    2    1    2    0  503 -0.12341232930E+02  0.89964003206E+01 -0.11728569437E+04  0.11852337376E+04  0.17015393404E+03 0.  0.
        -24    2    3    3    0    0  0.56377142805E+01 -0.57850439682E+02 -0.79995128633E+03  0.80592850193E+03  0.78868450739E+02 0.  0.
          6    2    1    2  501    0  0.12341232930E+02 -0.89964003206E+01 -0.37533295731E+03  0.41192573006E+03  0.16904063712E+03 0.  0.
         24    2    5    5    0    0  0.56461100437E+02  0.37357907744E+02 -0.22096554798E+03  0.24475314964E+03  0.80590704975E+02 0.  0.
          5    1    5    5  501    0 -0.44119867507E+02 -0.46354308065E+02 -0.15436740932E+03  0.16717258043E+03  0.47000000000E+01 0. -1.
        -11    1    6    6    0    0  0.29037175662E+02 -0.22263486570E+02 -0.52827993303E+02  0.64262098325E+02  0.00000000000E+00 0.  1.
         12    1    6    6    0    0  0.27423924775E+02  0.59621394314E+02 -0.16813755468E+03  0.18049105131E+03  0.00000000000E+00 0. -1.
         -5    1    3    3    0  503 -0.17978947211E+02  0.66846840003E+02 -0.37290565734E+03  0.37930523571E+03  0.47000000000E+01 0.  1.
         11    1    4    4    0    0  0.13277166743E+02 -0.20432174198E+02 -0.67096488481E+03  0.67140720398E+03  0.00000000000E+00 0. -1.
        -12    1    4    4    0    0 -0.76394524625E+01 -0.37418265484E+02 -0.12898640152E+03  0.13452129795E+03  0.00000000000E+00 0.  1.
</event>
<event>
12    1  0.1594900E-001  0.2566025E+03  0.7818608E-02  0.1109235E+00
         21   -1    0    0  503  502  0.00000000000E+00  0.00000000000E+00  0.17014099983E+03  0.17014099983E+03  0.00000000000E+00 0. -1.
         21   -1    0    0  501  503 -0.00000000000E+00 -0.00000000000E+00 -0.38671173048E+03  0.38671173048E+03  0.00000000000E+00 0. -1.
          6    2    1    2  501    0  0.15549191516E+02  0.18964752400E+03 -0.11091604129E+03  0.27954823122E+03  0.17215366579E+03 0.  0.
         24    2    3    3    0    0 -0.15801439754E+02  0.75421563493E+02 -0.11612259507E+03  0.16089061310E+03  0.80394244566E+02 0.  0.
         -6    2    1    2    0  502 -0.15549191516E+02 -0.18964752400E+03 -0.10565468936E+03  0.27730449910E+03  0.17183396381E+03 0.  0.
        -24    2    5    5    0    0 -0.50234239148E+02 -0.19217842934E+03 -0.11276479108E+03  0.24149805334E+03  0.78418009249E+02 0.  0.
          5    1    3    3  501    0  0.31350631270E+02  0.11422596051E+03  0.52065537808E+01  0.11865761812E+03  0.47000000000E+01 0. -1.
        -11    1    4    4    0    0  0.25706161460E+02  0.53144582056E+01 -0.47920183244E+02  0.54638760648E+02  0.00000000000E+00 0.  1.
         12    1    4    4    0    0 -0.41507601214E+02  0.70107105287E+02 -0.68202411826E+02  0.10625185245E+03  0.00000000000E+00 0. -1.
         -5    1    5    5    0  502  0.34685047632E+02  0.25309053352E+01  0.71101017219E+01  0.35806445754E+02  0.47000000000E+01 0.  1.
         11    1    6    6    0    0 -0.60988679334E+01 -0.14761227721E+03 -0.59716590698E+02  0.15935071941E+03  0.00000000000E+00 0. -1.
        -12    1    6    6    0    0 -0.44135371215E+02 -0.44566152132E+02 -0.53048200384E+02  0.82147333932E+02  0.00000000000E+00 0.  1.
</event>
<event>
12    1  0.1594900E-001  0.2389347E+03  0.7818608E-02  0.1120864E+00
         21   -1    0    0  503  502  0.00000000000E+00  0.00000000000E+00  0.56450280195E+03  0.56450280195E+03  0.00000000000E+00 0.  1.
         21   -1    0    0  501  503 -0.00000000000E+00 -0.00000000000E+00 -0.13336948100E+03  0.13336948100E+03  0.00000000000E+00 0.  1.
          6    2    1    2  501    0  0.16166496441E+03 -0.20991357537E+02  0.42359618136E+02  0.24266047364E+03  0.17468133961E+03 0.  0.
         24    2    3    3    0    0  0.11341065350E+03 -0.13465022598E+00 -0.40757974325E+02  0.14420182781E+03  0.79189394584E+02 0.  0.
         -6    2    1    2    0  502 -0.16166496441E+03  0.20991357537E+02  0.38877370282E+03  0.45521180931E+03  0.17174574674E+03 0.  0.
        -24    2    5    5    0    0 -0.50011758130E+02 -0.33887938631E+01  0.13193075420E+03  0.17405132042E+03  0.10186009210E+03 0.  0.
          5    1    3    3  501    0  0.48254310913E+02 -0.20856707311E+02  0.83117592461E+02  0.98458645827E+02  0.47000000000E+01 0. -1.
        -11    1    4    4    0    0  0.95004419696E+02 -0.15721414600E+02  0.63034180684E+00  0.96298494119E+02  0.00000000000E+00 0.  1.
         12    1    4    4    0    0  0.18406233805E+02  0.15586764374E+02 -0.41388316132E+02  0.47903333691E+02  0.00000000000E+00 0. -1.
         -5    1    5    5    0  502 -0.11165320628E+03  0.24380151400E+02  0.25684294862E+03  0.28116048889E+03  0.47000000000E+01 0.  1.
         11    1    6    6    0    0 -0.10509820004E+02  0.44564135182E+02  0.83679678008E+02  0.95387142596E+02  0.00000000000E+00 0. -1.
        -12    1    6    6    0    0 -0.39501938126E+02 -0.47952929045E+02  0.48251076190E+02  0.78664177827E+02  0.00000000000E+00 0.  1.
</event>
<event>
12    1  0.1594900E-001  0.2247861E+03  0.7818608E-02  0.1130551E+00
         21   -1    0    0  503  502  0.00000000000E+00  0.00000000000E+00  0.22817241141E+03  0.22817241141E+03  0.00000000000E+00 0. -1.
         21   -1    0    0  501  503 -0.00000000000E+00 -0.00000000000E+00 -0.22680767374E+03  0.22680767374E+03  0.00000000000E+00 0. -1.
          6    2    1    2  501    0  0.14227080730E+03  0.25733934767E+02 -0.37438601142E+02  0.22686942193E+03  0.17077724597E+03 0.  0.
         24    2    3    3    0    0  0.41005636673E+02  0.46418403642E+02 -0.63842179526E+02  0.12009058045E+03  0.80683289414E+02 0.  0.
         -6    2    1    2    0  502 -0.14227080730E+03 -0.25733934767E+02  0.38803338810E+02  0.22811066322E+03  0.17212076448E+03 0.  0.
        -24    2    5    5    0    0 -0.12961493632E+03  0.37962506349E+02  0.14325332107E+02  0.15855011051E+03  0.81803048830E+02 0.  0.
          5    1    3    3  501    0  0.10126517063E+03 -0.20684468874E+02  0.26403578384E+02  0.10677884148E+03  0.47000000000E+01 0. -1.
        -13    1    4    4    0    0 -0.96916963277E+00  0.57259075389E+02 -0.27534612694E+02  0.63542866637E+02  0.00000000000E+00 0.  1.
         14    1    4    4    0    0  0.41974806306E+02 -0.10840671747E+02 -0.36307566831E+02  0.56547713814E+02  0.00000000000E+00 0. -1.
         -5    1    5    5    0  502 -0.12655870983E+02 -0.63696441116E+02  0.24478006703E+02  0.69560552710E+02  0.47000000000E+01 0.  1.
         11    1    6    6    0    0 -0.30146977028E+02  0.38952561930E+02 -0.20226767507E+02  0.53247201135E+02  0.00000000000E+00 0. -1.
        -12    1    6    6    0    0 -0.99467959292E+02 -0.99005558136E+00  0.34552099614E+02  0.10530290938E+03  0.00000000000E+00 0.  1.
</event>
<event>
12    1  0.1594900E-001  0.2073196E+03  0.7818608E-02  0.1145040E+00
         21   -1    0    0  503  502  0.00000000000E+00  0.00000000000E+00  0.15574360906E+03  0.15574360906E+03  0.00000000000E+00 0. -1.
         21   -1    0    0  501  503 -0.00000000000E+00 -0.00000000000E+00 -0.46585658244E+03  0.46585658244E+03  0.00000000000E+00 0. -1.
          6    2    1    2  501    0  0.15692391676E+02 -0.11268902765E+03 -0.35932944764E+03  0.41484824438E+03  0.17330997033E+03 0.  0.
         24    2    3    3    0    0 -0.82754386083E+01 -0.12516815822E+03 -0.35670405536E+03  0.38729523596E+03  0.83810894135E+02 0.  0.
         -6    2    1    2    0  502 -0.15692391676E+02  0.11268902765E+03  0.49216474254E+02  0.20675194712E+03  0.16546612399E+03 0.  0.
        -24    2    5    5    0    0 -0.12024881556E+02  0.89654007234E+02  0.95031707279E+02  0.15512648467E+03  0.82769330473E+02 0.  0.
          5    1    3    3  501    0  0.23967830284E+02  0.12479130572E+02 -0.26253922842E+01  0.27553008420E+02  0.47000000000E+01 0. -1.
        -11    1    4    4    0    0 -0.30897717761E+02 -0.21312349979E+02 -0.48829380014E+02  0.61588907906E+02  0.00000000000E+00 0.  1.
         12    1    4    4    0    0  0.22622279153E+02 -0.10385580825E+03 -0.30787467534E+03  0.32570632806E+03  0.00000000000E+00 0. -1.
         -5    1    5    5    0  502 -0.36675101197E+01  0.23035020419E+02 -0.45815233025E+02  0.51625462451E+02  0.47000000000E+01 0.  1.
         13    1    6    6    0    0 -0.89988340859E+01  0.56091300151E+01  0.64948653210E+02  0.65808577771E+02  0.00000000000E+00 0. -1.
        -14    1    6    6    0    0 -0.30260474701E+01  0.84044877219E+02  0.30083054069E+02  0.89317906895E+02  0.00000000000E+00 0.  1.
</event>
<event>
12    1  0.1594900E-001  0.1911933E+03  0.7818608E-02  0.1157555E+00
         21   -1    0    0  501  502  0.00000000000E+00  0.00000000000E+00  0.83377945222E+02  0.83377945222E+02  0.00000000000E+00 0.  1.
         21   -1    0    0  502  503 -0.00000000000E+00 -0.00000000000E+00 -0.57385586735E+03  0.57385586735E+03  0.00000000000E+00 0.  1.
         -6    2    1    2    0  503  0.36160121364E+02 -0.76011960764E+02 -0.40551277116E+03  0.44801156088E+03  0.17084606683E+03 0.  0.
        -24    2    3    3    0    0  0.52302765875E+02 -0.26393132392E+02 -0.74621852421E+02  0.11299886977E+03  0.61385234010E+02 0.  0.
          6    2    1    2  501    0 -0.36160121364E+02  0.76011960764E+02 -0.84965150973E+02  0.20922225170E+03  0.17166683189E+03 0.  0.
         24    2    5    5    0    0  0.13224104776E+02  0.57884100839E+01 -0.92998860348E+02  0.12286960641E+03  0.78992211740E+02 0.  0.
          5    1    5    5  501    0 -0.49384226140E+02  0.70223550680E+02  0.80337093749E+01  0.86352645286E+02  0.47000000000E+01 0. -1.
        -13    1    6    6    0    0  0.28998478183E+02  0.34694447179E+02 -0.67387733481E+02  0.81152467773E+02  0.00000000000E+00 0.  1.
         14    1    6    6    0    0 -0.15774373407E+02 -0.28906037095E+02 -0.25611126867E+02  0.41717138640E+02  0.00000000000E+00 0. -1.
         -5    1    3    3    0  503 -0.16142644511E+02 -0.49618828372E+02 -0.33089091874E+03  0.33501269111E+03  0.47000000000E+01 0.  1.
         13    1    4    4    0    0 -0.10976625640E+02  0.71946961034E+01 -0.13485604363E+02  0.18817850236E+02  0.00000000000E+00 0. -1.
        -14    1    4    4    0    0  0.63279391515E+02 -0.33587828495E+02 -0.61136248059E+02  0.94181019533E+02  0.00000000000E+00 0.  1.
</event>
<event>
12    1  0.1594900E-001  0.2039871E+03  0.7818608E-02  0.1147072E+00
         21   -1    0    0  501  502  0.00000000000E+00  0.00000000000E+00  0.22485467977E+03  0.22485467977E+03  0.00000000000E+00 0.  1.
         21   -1    0    0  502  503 -0.00000000000E+00 -0.00000000000E+00 -0.23089407359E+03  0.23089407359E+03  0.00000000000E+00 0.  1.
         -6    2    1    2    0  503 -0.14689858427E+02 -0.10527347737E+03 -0.10764135632E+03  0.22785913670E+03  0.17039609035E+03 0.  0.
        -24    2    3    3    0    0 -0.61565912794E+02 -0.11194869999E+03 -0.66569269510E+02  0.16500271789E+03  0.80445983244E+02 0.  0.
          6    2    1    2  501    0  0.14689858427E+02  0.10527347737E+03  0.10160196251E+03  0.22788961666E+03  0.17410462836E+03 0.  0.
         24    2    5    5    0    0  0.46700115845E+02  0.26189000739E+02  0.10396663061E+03  0.14241042224E+03  0.81270557405E+02 0.  0.
          5    1    5    5  501    0 -0.32010257418E+02  0.79084476629E+02 -0.23646681059E+01  0.85479194421E+02  0.47000000000E+01 0. -1.
        -11    1    6    6    0    0  0.23013588149E+02 -0.24948155853E+02  0.15028179407E+02  0.37119831576E+02  0.00000000000E+00 0.  1.
         12    1    6    6    0    0  0.23686527696E+02  0.51137156592E+02  0.88938451207E+02  0.10529059066E+03  0.00000000000E+00 0. -1.
         -5    1    3    3    0  503  0.46876054368E+02  0.66752226217E+01 -0.41072086814E+02  0.62856418808E+02  0.47000000000E+01 0.  1.
         13    1    4    4    0    0 -0.21810234572E+01 -0.85292244909E+02 -0.30661542351E+02  0.90662307958E+02  0.00000000000E+00 0. -1.
        -14    1    4    4    0    0 -0.59384889337E+02 -0.26656455081E+02 -0.35907727159E+02  0.74340409932E+02  0.00000000000E+00 0.  1.
</event>
<event>
12    1  0.1594900E-001  0.2425059E+03  0.7818608E-02  0.1119618E+00
         21   -1    0    0  503  502  0.00000000000E+00  0.00000000000E+00  0.53464168207E+03  0.53464168207E+03  0.00000000000E+00 0. -1.
         21   -1    0    0  501  503 -0.00000000000E+00 -0.00000000000E+00 -0.20017147972E+03  0.20017147972E+03  0.00000000000E+00 0.  1.
          6    2    1    2  501    0  0.14089285691E+03 -0.10139458534E+03 -0.86363080823E+02  0.24910773509E+03  0.15641107023E+03 0.  0.
         24    2    3    3    0    0  0.14208357180E+03 -0.36347691528E+02 -0.73687426214E+02  0.18266017369E+03  0.80162374069E+02 0.  0.
         -6    2    1    2    0  502 -0.14089285691E+03  0.10139458534E+03  0.42083328317E+03  0.48570542670E+03  0.16934417685E+03 0.  0.
        -24    2    5    5    0    0 -0.15896573806E+02  0.34673706179E+02  0.84439384152E+02  0.12065927646E+03  0.77289614054E+02 0.  0.
          5    1    3    3  501    0 -0.11907148926E+01 -0.65046893809E+02 -0.12675654609E+02  0.66447561399E+02  0.47000000000E+01 0. -1.
        -11    1    4    4    0    0  0.72755808760E+02  0.60048698600E+00 -0.74448184919E+02  0.10409755295E+03  0.00000000000E+00 0.  1.
         12    1    4    4    0    0  0.69327763043E+02 -0.36948178514E+02  0.76075870524E+00  0.78562620742E+02  0.00000000000E+00 0. -1.
         -5    1    5    5    0  502 -0.12499628310E+03  0.66720879158E+02  0.33639389902E+03  0.36504615024E+03  0.47000000000E+01 0.  1.
         13    1    6    6    0    0 -0.67103659786E+01  0.29468201884E+02  0.98524679349E+02  0.10305588957E+03  0.00000000000E+00 0. -1.
        -14    1    6    6    0    0 -0.91862078272E+01  0.52055042945E+01 -0.14085295197E+02  0.17603386890E+02  0.00000000000E+00 0.  1.
</event>
<event>
12    1  0.1594900E-001  0.1767050E+03  0.7818608E-02  0.1172696E+00
         21   -1    0    0  501  502  0.00000000000E+00  0.00000000000E+00  0.10106955763E+03  0.10106955763E+03  0.00000000000E+00 0. -1.
         21   -1    0    0  502  503 -0.00000000000E+00 -0.00000000000E+00 -0.72413154215E+03  0.72413154215E+03  0.00000000000E+00 0.  1.
         -6    2    1    2    0  503  0.27689603635E+02  0.86054376839E+01 -0.62576317241E+03  0.64847543369E+03  0.16763076222E+03 0.  0.
        -24    2    3    3    0    0 -0.48707532654E+02 -0.32201246580E+01 -0.33587078066E+03  0.34841534778E+03  0.78748208425E+02 0.  0.
          6    2    1    2  501    0 -0.27689603635E+02 -0.86054376839E+01  0.27011878919E+01  0.17672566609E+03  0.17430977291E+03 0.  0.
         24    2    5    5    0    0 -0.34507991914E+02 -0.43226799249E+01 -0.62516443854E+02  0.11084500183E+03  0.84668893999E+02 0.  0.
          5    1    5    5  501    0  0.68183882796E+01 -0.42827577590E+01  0.65217631746E+02  0.65880664260E+02  0.47000000000E+01 0. -1.
        -11    1    6    6    0    0  0.12802839160E+01  0.13572332203E+02 -0.68979303548E+02  0.70313523922E+02  0.00000000000E+00 0.  1.
         12    1    6    6    0    0 -0.35788275830E+02 -0.17895012128E+02  0.64628596946E+01  0.40531477908E+02  0.00000000000E+00 0. -1.
         -5    1    3    3    0  503  0.76397136289E+02  0.11825562342E+02 -0.28989239175E+03  0.30006008590E+03  0.47000000000E+01 0.  1.
         11    1    4    4    0    0 -0.27641658379E+02  0.32260768812E+02 -0.24444395219E+03  0.24810817045E+03  0.00000000000E+00 0. -1.
        -12    1    4    4    0    0 -0.21065874275E+02 -0.35480893469E+02 -0.91426828465E+02  0.10030717733E+03  0.00000000000E+00 0.  1.
</event>
<event>
12    1  0.1594900E-001  0.1963619E+03  0.7818608E-02  0.1153283E+00
         21   -1    0    0  503  502  0.00000000000E+00  0.00000000000E+00  0.55932886464E+03  0.55932886464E+03  0.00000000000E+00 0.  1.
         21   -1    0    0  501  503 -0.00000000000E+00 -0.00000000000E+00 -0.85199320499E+02  0.85199320499E+02  0.00000000000E+00 0. -1.
          6    2    1    2  501    0 -0.13386436570E+02 -0.90321553277E+02  0.94227446480E+02  0.21779991867E+03  0.17384134500E+03 0.  0.
         24    2    3    3    0    0 -0.72940338470E+02 -0.34945614967E+02  0.66315474155E+02  0.13169341500E+03  0.80024524115E+02 0.  0.
         -6    2    1    2    0  502  0.13386436570E+02  0.90321553277E+02  0.37990209766E+03  0.42672826647E+03  0.17156406945E+03 0.  0.
        -24    2    5    5    0    0  0.67911650269E+02  0.89201873347E+02  0.26424436633E+03  0.29877103366E+03  0.82885939491E+02 0.  0.
          5    1    3    3  501    0  0.59553901900E+02 -0.55375938310E+02  0.27911972325E+02  0.86106503671E+02  0.47000000000E+01 0. -1.
        -13    1    4    4    0    0 -0.25447605631E+02 -0.55101150458E+02  0.25182112193E+02  0.65710396351E+02  0.00000000000E+00 0.  1.
         14    1    4    4    0    0 -0.47492732839E+02  0.20155535491E+02  0.41133361962E+02  0.65983018647E+02  0.00000000000E+00 0. -1.
         -5    1    5    5    0  502 -0.54525213700E+02  0.11196799304E+01  0.11565773133E+03  0.12795723281E+03  0.47000000000E+01 0.  1.
         11    1    6    6    0    0  0.36401216479E+02  0.80371494783E+02  0.24591317882E+03  0.26126216193E+03  0.00000000000E+00 0. -1.
        -12    1    6    6    0    0  0.31510433790E+02  0.88303785638E+01  0.18331187505E+02  0.37508871731E+02  0.00000000000E+00 0.  1.
</event>
<event>
12    1  0.1594900E-001  0.1948658E+03  0.7818608E-02  0.1155416E+00
         21   -1    0    0  503  502  0.00000000000E+00  0.00000000000E+00  0.51229299462E+03  0.51229299462E+03  0.00000000000E+00 0.  1.
         21   -1    0    0  501  503 -0.00000000000E+00 -0.00000000000E+00 -0.75968308061E+02  0.75968308061E+02  0.00000000000E+00 0.  1.
          6    2    1    2  501    0  0.14029757273E+02  0.89480439455E+02  0.28883255998E+03  0.34842064163E+03  0.17253727909E+03 0.  0.
         24    2    3    3    0    0  0.14496899528E+02  0.12893560852E+03  0.20354770940E+03  0.25433278733E+03  0.80118321700E+02 0.  0.
         -6    2    1    2    0  502 -0.14029757273E+02 -0.89480439455E+02  0.14749212658E+03  0.23984066105E+03  0.16603021459E+03 0.  0.
        -24    2    5    5    0    0 -0.67663635314E+02 -0.85427883909E+02  0.98088740821E+02  0.16665732549E+03  0.79227344834E+02 0.  0.
          5    1    3    3  501    0 -0.46714225489E+00 -0.39455169061E+02  0.85284850581E+02  0.94087854297E+02  0.47000000000E+01 0. -1.
        -11    1    4    4    0    0 -0.27958675506E+02  0.92207000017E+02  0.12891956575E+03  0.16094742254E+03  0.00000000000E+00 0.  1.
         12    1    4    4    0    0  0.42455575034E+02  0.36728608499E+02  0.74628143646E+02  0.93385364794E+02  0.00000000000E+00 0. -1.
         -5    1    5    5    0  502  0.53633878041E+02 -0.40525555452E+01  0.49403385761E+02  0.73183335567E+02  0.47000000000E+01 0.  1.
         13    1    6    6    0    0 -0.59033248446E+01 -0.36625710073E+02  0.76523666720E+02  0.85042127506E+02  0.00000000000E+00 0. -1.
        -14    1    6    6    0    0 -0.61760310469E+02 -0.48802173837E+02  0.21565074101E+02  0.81615197981E+02  0.00000000000E+00 0.  1.
</event>
<event>
12    1  0.1594900E-001  0.1922897E+03  0.7818608E-02  0.1156678E+00
         21   -1    0    0  501  502  0.00000000000E+00  0.00000000000E+00  0.32946410665E+04  0.32946410665E+04  0.00000000000E+00 0.  1.
         21   -1    0    0  502  503 -0.00000000000E+00 -0.00000000000E+00 -0.20423629962E+02  0.20423629962E+02  0.00000000000E+00 0.  1.
         -6    2    1    2    0  503  0.83921477598E+02  0.24222471029E+02  0.51760805016E+03  0.55175678014E+03  0.16996443255E+03 0.  0.
        -24    2    3    3    0    0  0.63508068697E+02  0.53635844659E+02  0.49689518263E+03  0.51012786360E+03  0.80097041609E+02 0.  0.
          6    2    1    2  501    0 -0.83921477598E+02 -0.24222471029E+02  0.27566093864E+04  0.27633079163E+04  0.17130612612E+03 0.  0.
         24    2    5    5    0    0 -0.24165101529E+02  0.39779843087E+02  0.19050345590E+04  0.19072302929E+04  0.78767576741E+02 0.  0.
          5    1    5    5  501    0 -0.59756376068E+02 -0.64002314116E+02  0.85157482734E+03  0.85607762338E+03  0.47000000000E+01 0. -1.
        -11    1    6    6    0    0  0.19532041676E+02  0.29051215781E+02  0.13214975174E+04  0.13219611047E+04  0.00000000000E+00 0.  1.
         12    1    6    6    0    0 -0.43697143205E+02  0.10728627306E+02  0.58353704160E+03  0.58526918822E+03  0.00000000000E+00 0. -1.
         -5    1    3    3    0  503  0.20413408900E+02 -0.29413373630E+02  0.20712867533E+02  0.41628916545E+02  0.47000000000E+01 0.  1.
         11    1    4    4    0    0 -0.91503241252E+01  0.40389771825E+02  0.16554755732E+03  0.17064892568E+03  0.00000000000E+00 0. -1.
        -12    1    4    4    0    0  0.72658392823E+02  0.13246072834E+02  0.33134762531E+03  0.33947893792E+03  0.00000000000E+00 0.  1.
</event>
<event>
12    1  0.1594900E-001  0.2973526E+03  0.7818608E-02  0.1086581E+00
         21   -1    0    0  501  502  0.00000000000E+00  0.00000000000E+00  0.67135303253E+03  0.67135303253E+03  0.00000000000E+00 0.  1.
         21   -1    0    0  502  503 -0.00000000000E+00 -0.00000000000E+00 -0.18546316403E+03  0.18546316403E+03  0.00000000000E+00 0.  1.
         -6    2    1    2    0  503 -0.13069787258E+02 -0.24294379903E+03  0.12239139109E+02  0.29760440597E+03  0.17095636022E+03 0.  0.
        -24    2    3    3    0    0 -0.32074867931E+02 -0.16234142970E+03  0.70246048980E+02  0.19638767501E+03  0.79057412992E+02 0.  0.
          6    2    1    2  501    0  0.13069787258E+02  0.24294379903E+03  0.47365072939E+03  0.55921179059E+03  0.17082243549E+03 0.  0.
         24    2    5    5    0    0  0.25464943895E+02  0.12659844974E+03  0.14442423095E+03  0.20978074234E+03  0.80460987613E+02 0.  0.
          5    1    5    5  501    0 -0.12395156637E+02  0.11634534929E+03  0.32922649844E+03  0.34943104825E+03  0.47000000000E+01 0. -1.
        -13    1    6    6    0    0 -0.18546191750E+02  0.15703648055E+02  0.56712098464E+02  0.61699496780E+02  0.00000000000E+00 0.  1.
         14    1    6    6    0    0  0.44011135646E+02  0.11089480169E+03  0.87712132482E+02  0.14808124556E+03  0.00000000000E+00 0. -1.
         -5    1    3    3    0  503  0.19005080673E+02 -0.80602369325E+02 -0.58006909871E+02  0.10121673095E+03  0.47000000000E+01 0.  1.
         11    1    4    4    0    0  0.16334735951E+02 -0.16908580857E+02  0.29621318924E+02  0.37817274359E+02  0.00000000000E+00 0. -1.
        -12    1    4    4    0    0 -0.48409603882E+02 -0.14543284885E+03  0.40624730057E+02  0.15857040065E+03  0.00000000000E+00 0.  1.
</event>
<event>
12    1  0.1594900E-001  0.2045810E+03  0.7818608E-02  0.1146035E+00
         21   -1    0    0  501  502  0.00000000000E+00  0.00000000000E+00  0.83963820028E+02  0.83963820028E+02  0.00000000000E+00 0.  1.
         21   -1    0    0  502  503 -0.00000000000E+00 -0.00000000000E+00 -0.65245608228E+03  0.65245608228E+03  0.00000000000E+00 0. -1.
         -6    2    1    2    0  503  0.11052930404E+03  0.92750529724E+01 -0.46411920821E+03  0.50720808835E+03  0.17190303021E+03 0.  0.
        -24    2    3    3    0    0  0.12495205984E+03  0.45220491117E+02 -0.29130549911E+03  0.33004500399E+03  0.80080589211E+02 0.  0.
          6    2    1    2  501    0 -0.11052930404E+03 -0.92750529724E+01 -0.10437305404E+03  0.22921181396E+03  0.17129380488E+03 0.  0.
         24    2    5    5    0    0 -0.12662547049E+02 -0.49440821796E+01  0.84401329819E+01  0.79727485021E+02  0.78105390189E+02 0.  0.
          5    1    5    5  501    0 -0.97866756992E+02 -0.43309707928E+01 -0.11281318702E+03  0.14948432893E+03  0.47000000000E+01 0. -1.
        -13    1    6    6    0    0 -0.11771226400E+02 -0.16688877571E+02  0.40617136811E+02  0.45462426335E+02  0.00000000000E+00 0.  1.
         14    1    6    6    0    0 -0.89132064916E+00  0.11744795391E+02 -0.32177003829E+02  0.34265058685E+02  0.00000000000E+00 0. -1.
         -5    1    3    3    0  503 -0.14422755796E+02 -0.35945438144E+02 -0.17281370910E+03  0.17716308436E+03  0.47000000000E+01 0.  1.
         11    1    4    4    0    0  0.13183477884E+02  0.34243195553E+02 -0.11764270746E+03  0.12323232997E+03  0.00000000000E+00 0. -1.
        -12    1    4    4    0    0  0.11176858195E+03  0.10977295563E+02 -0.17366279165E+03  0.20681267401E+03  0.00000000000E+00 0.  1.
</event>
<event>
12    1  0.1594900E-001  0.2965955E+03  0.7818608E-02  0.1087145E+00
         21   -1    0    0  503  502  0.00000000000E+00  0.00000000000E+00  0.30976052512E+03  0.30976052512E+03  0.00000000000E+00 0. -1.
         21   -1    0    0  501  503 -0.00000000000E+00 -0.00000000000E+00 -0.30446402337E+03  0.30446402337E+03  0.00000000000E+00 0.  1.
          6    2    1    2  501    0 -0.23285507475E+03  0.57870744131E+02 -0.79711173328E+02  0.30712010012E+03  0.17435130021E+03 0.  0.
         24    2    3    3    0    0 -0.19673887548E+03  0.10257553646E+03 -0.82019053732E+02  0.24941122196E+03  0.79062675506E+02 0.  0.
         -6    2    1    2    0  502  0.23285507475E+03 -0.57870744131E+02  0.85007675080E+02  0.30710444837E+03  0.17180316798E+03 0.  0.
        -24    2    5    5    0    0  0.20518028338E+03 -0.83186568155E+02  0.11346021602E+03  0.25979248256E+03  0.74832877592E+02 0.  0.
          5    1    3    3  501    0 -0.36116199270E+02 -0.44704792331E+02  0.23078804037E+01  0.57708878164E+02  0.47000000000E+01 0. -1.
        -13    1    4    4    0    0 -0.11868409342E+03  0.17312667165E+02 -0.41053330437E+02  0.12677152052E+03  0.00000000000E+00 0.  1.
         14    1    4    4    0    0 -0.78054782055E+02  0.85262869297E+02 -0.40965723295E+02  0.12263970143E+03  0.00000000000E+00 0. -1.
         -5    1    5    5    0  502  0.27674791371E+02  0.25315824023E+02 -0.28452540936E+02  0.47311965813E+02  0.47000000000E+01 0.  1.
         13    1    6    6    0    0  0.33096258918E+02 -0.40128383903E+02  0.59207165228E+01  0.52351737633E+02  0.00000000000E+00 0. -1.
        -14    1    6    6    0    0  0.17208402446E+03 -0.43058184252E+02  0.10753949949E+03  0.20744074493E+03  0.00000000000E+00 0.  1.
</event>
<event>
12    1  0.1594900E-001  0.2625590E+03  0.7818608E-02  0.1105683E+00
         21   -1    0    0  503  502  0.00000000000E+00  0.00000000000E+00  0.66183096472E+03  0.66183096472E+03  0.00000000000E+00 0.  1.
         21   -1    0    0  501  503 -0.00000000000E+00 -0.00000000000E+00 -0.10542943930E+03  0.10542943930E+03  0.00000000000E+00 0.  1.
          6    2    1    2  501    0 -0.66620471658E+02  0.18638416525E+03  0.32294852876E+03  0.41592361641E+03  0.17181198491E+03 0.  0.
         24    2    3    3    0    0 -0.90255638975E+02  0.63314225327E+02  0.15017182888E+03  0.20243190869E+03  0.79198030079E+02 0.  0.
         -6    2    1    2    0  502  0.66620471658E+02 -0.18638416525E+03  0.23345299667E+03  0.35133678761E+03  0.17251055729E+03 0.  0.
        -24    2    5    5    0    0  0.31349351472E+02 -0.16138281069E+03  0.96015989579E+02  0.20718360323E+03  0.81723813965E+02 0.  0.
          5    1    3    3  501    0  0.23635167317E+02  0.12306993992E+03  0.17277669988E+03  0.21349170772E+03  0.47000000000E+01 0. -1.
        -13    1    4    4    0    0 -0.28118909335E+02  0.67805328814E+02  0.83766666463E+02  0.11137814008E+03  0.00000000000E+00 0.  1.
         14    1    4    4    0    0 -0.62136729640E+02 -0.44911034868E+01  0.66405162420E+02  0.91053768604E+02  0.00000000000E+00 0. -1.
         -5    1    5    5    0  502  0.35271120186E+02 -0.25001354559E+02  0.13743700709E+03  0.14415318438E+03  0.47000000000E+01 0.  1.
         13    1    6    6    0    0 -0.11030293466E+02 -0.19250321127E+02 -0.10535889610E+02  0.24561091330E+02  0.00000000000E+00 0. -1.
        -14    1    6    6    0    0  0.42379644938E+02 -0.14213248956E+03  0.10655187919E+03  0.18262251190E+03  0.00000000000E+00 0.  1.
</event>
<event>
12    1  0.1594900E-001  0.2937585E+03  0.7818608E-02  0.1088749E+00
         21   -1    0    0  503  502  0.00000000000E+00  0.00000000000E+00  0.34451283208E+03  0.34451283208E+03  0.00000000000E+00 0. -1.
         21   -1    0    0  501  503 -0.00000000000E+00 -0.00000000000E+00 -0.26474515147E+03  0.26474515147E+03  0.00000000000E+00 0.  1.
          6    2    1    2  501    0 -0.18255513572E+03  0.14890587227E+03 -0.36100778761E+02  0.29596848034E+03  0.17548429774E+03 0.  0.
         24    2    3    3    0    0 -0.12816846235E+03  0.15382110051E+03 -0.76212804257E+02  0.22804842219E+03  0.78163966296E+02 0.  0.
         -6    2    1    2    0  502  0.18255513572E+03 -0.14890587227E+03  0.11586845938E+03  0.31328950321E+03  0.17095460382E+03 0.  0.
        -24    2    5    5    0    0  0.17850345312E+03 -0.98183485093E+02  0.41417945699E+02  0.22298919491E+03  0.80655162881E+02 0.  0.
          5    1    3    3  501    0 -0.54386673379E+02 -0.49152282443E+01  0.40112025496E+02  0.67920058152E+02  0.47000000000E+01 0. -1.
        -13    1    4    4    0    0 -0.10754821731E+03  0.74100268035E+02 -0.61659963789E+02  0.14442790556E+03  0.00000000000E+00 0.  1.
         14    1    4    4    0    0 -0.20620245038E+02  0.79720832475E+02 -0.14552840468E+02  0.83620516631E+02  0.00000000000E+00 0. -1.
         -5    1    5    5    0  502  0.40516826039E+01 -0.50722387172E+02  0.74450513678E+02  0.90300308301E+02  0.47000000000E+01 0.  1.
         11    1    6    6    0    0  0.17749884375E+03 -0.96584311986E+02  0.54880411398E+02  0.20939491018E+03  0.00000000000E+00 0. -1.
        -12    1    6    6    0    0  0.10046093716E+01 -0.15991731073E+01 -0.13462465699E+02  0.13594284729E+02  0.00000000000E+00 0.  1.
</event>
<event>
12    1  0.1594900E-001  0.2606538E+03  0.7818608E-02  0.1107027E+00
         21   -1    0    0  501  502  0.00000000000E+00  0.00000000000E+00  0.56028179590E+03  0.56028179590E+03  0.00000000000E+00 0. -1.
         21   -1    0    0  502  503 -0.00000000000E+00 -0.00000000000E+00 -0.24110859297E+03  0.24110859297E+03  0.00000000000E+00 0. -1.
         -6    2    1    2    0  503 -0.29462721524E+02 -0.19233485334E+03 -0.12419985545E+03  0.28707522981E+03  0.17066293009E+03 0.  0.
        -24    2    3    3    0    0 -0.27283275584E+02 -0.56218575817E+02  0.46847465927E+00  0.10242238385E+03  0.81149367531E+02 0.  0.
          6    2    1    2  501    0  0.29462721524E+02  0.19233485334E+03  0.44337305838E+03  0.51431515906E+03  0.17343490472E+03 0.  0.
         24    2    5    5    0    0  0.83202048033E+02  0.93155611771E+02  0.27279767429E+03  0.30976079262E+03  0.77023559693E+02 0.  0.
          5    1    5    5  501    0 -0.53739326510E+02  0.99179241565E+02  0.17057538409E+03  0.20455436644E+03  0.47000000000E+01 0. -1.
        -11    1    6    6    0    0  0.17721124892E+02  0.12216290860E+02  0.45241155122E+01  0.21994173114E+02  0.00000000000E+00 0.  1.
         12    1    6    6    0    0  0.65480923141E+02  0.80939320912E+02  0.26827355878E+03  0.28776661951E+03  0.00000000000E+00 0. -1.
         -5    1    3    3    0  503 -0.21794459398E+01 -0.13611627752E+03 -0.12466833011E+03  0.18465284596E+03  0.47000000000E+01 0.  1.
         13    1    4    4    0    0 -0.39733552579E+02 -0.70205127121E+02 -0.94700925920E+01  0.81223135425E+02  0.00000000000E+00 0. -1.
        -14    1    4    4    0    0  0.12450276995E+02  0.13986551303E+02  0.99385672513E+01  0.21199248421E+02  0.00000000000E+00 0.  1.
</event>
<event>
12    1  0.1594900E-001  0.2252228E+03  0.7818608E-02  0.1130257E+00
         21   -1    0    0  503  502  0.00000000000E+00  0.00000000000E+00  0.99603702908E+03  0.99603702908E+03  0.00000000000E+00 0.  1.
         21   -1    0    0  501  503 -0.00000000000E+00 -0.00000000000E+00 -0.54049749089E+02  0.54049749089E+02  0.00000000000E+00 0. -1.
          6    2    1    2  501    0  0.15261650963E+02 -0.14329541050E+03  0.34076547388E+03  0.40846837082E+03  0.17308613206E+03 0.  0.
         24    2    3    3    0    0 -0.30936810515E+02 -0.13952008037E+03  0.31518756721E+03  0.35531886217E+03  0.80531684562E+02 0.  0.
         -6    2    1    2    0  502 -0.15261650963E+02  0.14329541050E+03  0.60122180611E+03  0.64161840735E+03  0.17158096585E+03 0.  0.
        -24    2    5    5    0    0 -0.44739277488E+02  0.45764669723E+02  0.42010973378E+03  0.43376064683E+03  0.86948849206E+02 0.  0.
          5    1    3    3  501    0  0.46198461478E+02 -0.37753301354E+01  0.25577906670E+02  0.53149508654E+02  0.47000000000E+01 0. -1.
        -13    1    4    4    0    0 -0.26144493897E+02 -0.65882418904E+01  0.88181822975E+02  0.92211568664E+02  0.00000000000E+00 0.  1.
         14    1    4    4    0    0 -0.47923166182E+01 -0.13293183848E+03  0.22700574424E+03  0.26310729350E+03  0.00000000000E+00 0. -1.
         -5    1    5    5    0  502  0.29477626525E+02  0.97530740779E+02  0.18111207233E+03  0.20785776052E+03  0.47000000000E+01 0.  1.
         13    1    6    6    0    0 -0.23444646283E+02  0.20125030345E+02  0.32955697065E+02  0.45174619587E+02  0.00000000000E+00 0. -1.
        -14    1    6    6    0    0 -0.21294631204E+02  0.25639639378E+02  0.38715403672E+03  0.38858602725E+03  0.00000000000E+00 0.  1.
</event>
<event>
12    1  0.1594900E-001  0.1930941E+03  0.7818608E-02  0.1156133E+00
         21   -1    0    0  503  502  0.00000000000E+00  0.00000000000E+00  0.36834921671E+03  0.36834921671E+03  0.00000000000E+00 0.  1.
         21   -1    0    0  501  503 -0.00000000000E+00 -0.00000000000E+00 -0.10523968991E+03  0.10523968991E+03  0.00000000000E+00 0.  1.
          6    2    1    2  501    0 -0.80679200533E+02 -0.15613895716E+02  0.79117248970E+02  0.20687087488E+03  0.17257778724E+03 0.  0.
         24    2    3    3    0    0  0.18173065053E+02 -0.29726462338E+02  0.20492878291E+02  0.90983680651E+02  0.81511650871E+02 0.  0.
         -6    2    1    2    0  502  0.80679200533E+02  0.15613895716E+02  0.18399227783E+03  0.26671803174E+03  0.17473529414E+03 0.  0.
        -24    2    5    5    0    0 -0.20212122130E+02  0.24643396776E+02  0.49852721996E+02  0.98563039796E+02  0.78826087292E+02 0.  0.
          5    1    3    3  501    0 -0.98852265586E+02  0.14112566622E+02  0.58624370678E+02  0.11588719423E+03  0.47000000000E+01 0. -1.
        -11    1    4    4    0    0 -0.24519981335E+02  0.75332094984E+01 -0.88966451609E+01  0.27150120168E+02  0.00000000000E+00 0.  1.
         12    1    4    4    0    0  0.42693046388E+02 -0.37259671836E+02  0.29389523452E+02  0.63833560483E+02  0.00000000000E+00 0. -1.
         -5    1    5    5    0  502  0.10089132266E+03 -0.90295010601E+01  0.13413955583E+03  0.16815499195E+03  0.47000000000E+01 0.  1.
         11    1    6    6    0    0 -0.21161036815E+02 -0.16505665357E+02 -0.75959392831E+01  0.27891302615E+02  0.00000000000E+00 0. -1.
        -12    1    6    6    0    0  0.94891468510E+00  0.41149062133E+02  0.57448661279E+02  0.70671737181E+02  0.00000000000E+00 0.  1.
</event>
<event>
12    1  0.1594900E-001  0.2108730E+03  0.7818608E-02  0.1141244E+00
         21   -1    0    0  503  502  0.00000000000E+00  0.00000000000E+00  0.16198854149E+03  0.16198854149E+03  0.00000000000E+00 0. -1.
         21   -1    0    0  501  503 -0.00000000000E+00 -0.00000000000E+00 -0.27296693935E+03  0.27296693935E+03  0.00000000000E+00 0. -1.
          6    2    1    2  501    0  0.51585710144E+02  0.10750444258E+03 -0.42953643005E+02  0.21338204801E+03  0.17166418468E+03 0.  0.
         24    2    3    3    0    0  0.75132967328E+02  0.85541014360E+02 -0.82819007312E+02  0.16192135650E+03  0.79983184489E+02 0.  0.
         -6    2    1    2    0  502 -0.51585710144E+02 -0.10750444258E+03 -0.68024754856E+02  0.22157343282E+03  0.17392276503E+03 0.  0.
        -24    2    5    5    0    0 -0.41559078471E+00 -0.10722906042E+03 -0.94659403954E+02  0.16369466743E+03  0.79607143358E+02 0.  0.
          5    1    3    3  501    0 -0.23547257184E+02  0.21963428216E+02  0.39865364307E+02  0.51460691515E+02  0.47000000000E+01 0. -1.
        -13    1    4    4    0    0 -0.43144070760E+01 -0.12237013412E+02 -0.10203278122E+02  0.16506528711E+02  0.00000000000E+00 0.  1.
         14    1    4    4    0    0  0.79447374404E+02  0.97778027772E+02 -0.72615729190E+02  0.14541482779E+03  0.00000000000E+00 0. -1.
         -5    1    5    5    0  502 -0.51170119359E+02 -0.27538215444E+00  0.26634649098E+02  0.57878765390E+02  0.47000000000E+01 0.  1.
         11    1    6    6    0    0 -0.25226736181E+02 -0.10238969906E+03 -0.61763509780E+02  0.12220789595E+03  0.00000000000E+00 0. -1.
        -12    1    6    6    0    0  0.24811145396E+02 -0.48393613588E+01 -0.32895894174E+02  0.41486771479E+02  0.00000000000E+00 0.  1.
</event>
<event>
12    1  0.1594900E-001  0.1982235E+03  0.7818608E-02  0.1151290E+00
         21   -1    0    0  503  502  0.00000000000E+00  0.00000000000E+00  0.10080898500E+03  0.10080898500E+03  0.00000000000E+00 0. -1.
         21   -1    0    0  501  503 -0.00000000000E+00 -0.00000000000E+00 -0.44225267301E+03  0.44225267301E+03  0.00000000000E+00 0. -1.
          6    2    1    2  501    0 -0.99976003170E+02  0.20406346771E+02 -0.26453778965E+03  0.33044207805E+03  0.16970593564E+03 0.  0.
         24    2    3    3    0    0 -0.11682972956E+03  0.16067384761E+02 -0.27487626707E+03  0.30966110599E+03  0.80160412933E+02 0.  0.
         -6    2    1    2    0  502  0.99976003170E+02 -0.20406346771E+02 -0.76905898369E+02  0.21261957996E+03  0.16994395659E+03 0.  0.
        -24    2    5    5    0    0  0.14837411749E+02  0.41185663058E+02 -0.43397772012E+02  0.10222465274E+03  0.81548178298E+02 0.  0.
          5    1    3    3  501    0  0.16853726386E+02  0.43389620106E+01  0.10338477420E+02  0.20780972061E+02  0.47000000000E+01 0. -1.
        -13    1    4    4    0    0 -0.65333176917E+02  0.34961906936E+02 -0.21969364857E+03  0.23185352740E+03  0.00000000000E+00 0.  1.
         14    1    4    4    0    0 -0.51496552640E+02 -0.18894522175E+02 -0.55182618494E+02  0.77807578589E+02  0.00000000000E+00 0. -1.
         -5    1    5    5    0  502  0.85138591421E+02 -0.61592009829E+02 -0.33508126356E+02  0.11039492722E+03  0.47000000000E+01 0.  1.
         11    1    6    6    0    0  0.36637549235E+02 -0.64787433192E+01 -0.30845482385E+02  0.48329369048E+02  0.00000000000E+00 0. -1.
        -12    1    6    6    0    0 -0.21800137486E+02  0.47664406377E+02 -0.12552289627E+02  0.53895283695E+02  0.00000000000E+00 0.  1.
</event>
<event>
12    1  0.1594900E-001  0.1798365E+03  0.7818608E-02  0.1167982E+00
         21   -1    0    0  503  502  0.00000000000E+00  0.00000000000E+00  0.51372727900E+02  0.51372727900E+02  0.00000000000E+00 0.  1.
         21   -1    0    0  501  503 -0.00000000000E+00 -0.00000000000E+00 -0.30845746464E+04  0.30845746464E+04  0.00000000000E+00 0.  1.
          6    2    1    2  501    0 -0.46707717567E+02 -0.26792310275E+02 -0.29156039026E+04  0.29211448612E+04  0.17158596752E+03 0.  0.
         24    2    3    3    0    0 -0.87805703805E+02 -0.37856251100E+02 -0.25515832810E+04  0.25546144283E+04  0.79590828923E+02 0.  0.
         -6    2    1    2    0  502  0.46707717567E+02  0.26792310275E+02 -0.11759801592E+03  0.21480251316E+03  0.17149748552E+03 0.  0.
        -24    2    5    5    0    0  0.95632737723E+02 -0.52174215635E+01 -0.84821959579E+02  0.14761143936E+03  0.73631040937E+02 0.  0.
          5    1    3    3  501    0  0.41097986238E+02  0.11063940825E+02 -0.36402062157E+03  0.36653043282E+03  0.47000000000E+01 0. -1.
        -11    1    4    4    0    0 -0.67658817164E+02 -0.62428226086E+02 -0.19983462777E+04  0.20004656570E+04  0.00000000000E+00 0.  1.
         12    1    4    4    0    0 -0.20146886642E+02  0.24571974986E+02 -0.55323700330E+03  0.55414877138E+03  0.00000000000E+00 0. -1.
         -5    1    5    5    0  502 -0.48925020156E+02  0.32009731839E+02 -0.32776056337E+02  0.67191073802E+02  0.47000000000E+01 0.  1.
         13    1    6    6    0    0  0.71503819812E+02 -0.43978405447E+01 -0.96987598542E+02  0.12057666242E+03  0.00000000000E+00 0. -1.
        -14    1    6    6    0    0  0.24128917910E+02 -0.81958101878E+00  0.12165638963E+02  0.27034776935E+02  0.00000000000E+00 0.  1.
</event>
<event>
12    1  0.1594900E-001  0.1870495E+03  0.7818608E-02  0.1161472E+00
         21   -1    0    0  503  502  0.00000000000E+00  0.00000000000E+00  0.12631404954E+03  0.12631404954E+03  0.00000000000E+00 0.  1.
         21   -1    0    0  501  503 -0.00000000000E+00 -0.00000000000E+00 -0.42982408095E+03  0.42982408095E+03  0.00000000000E+00 0.  1.
          6    2    1    2  501    0  0.65883188083E+02  0.12511615196E+02 -0.31831859402E+03  0.36850330703E+03  0.17312083933E+03 0.  0.
         24    2    3    3    0    0  0.49188794742E+02  0.59628730182E+02 -0.29089830882E+03  0.31129590075E+03  0.79424106890E+02 0.  0.
         -6    2    1    2    0  502 -0.65883188083E+02 -0.12511615196E+02  0.14808562615E+02  0.18763482346E+03  0.17461500068E+03 0.  0.
        -24    2    5    5    0    0  0.18821600935E+02  0.35862290015E+02  0.50488596553E+01  0.89490655065E+02  0.79641257231E+02 0.  0.
          5    1    3    3  501    0  0.16694393341E+02 -0.47117114986E+02 -0.27420285197E+02  0.57207406286E+02  0.47000000000E+01 0. -1.
        -11    1    4    4    0    0  0.48220117172E+01  0.30298099582E+02 -0.22273620263E+03  0.22483914828E+03  0.00000000000E+00 0.  1.
         12    1    4    4    0    0  0.44366783025E+02  0.29330630601E+02 -0.68162106191E+02  0.86456752471E+02  0.00000000000E+00 0. -1.
         -5    1    5    5    0  502 -0.84704789018E+02 -0.48373905211E+02  0.97597029595E+01  0.98144168394E+02  0.47000000000E+01 0.  1.
         11    1    6    6    0    0  0.52784454503E+01  0.45684998758E+01  0.40033366738E+02  0.40637465839E+02  0.00000000000E+00 0. -1.
        -12    1    6    6    0    0  0.13543155485E+02  0.31293790139E+02 -0.34984507082E+02  0.48853189226E+02  0.00000000000E+00 0.  1.
</event>
<event>
12    1  0.1594900E-001  0.1798617E+03  0.7818608E-02  0.1168363E+00
         21   -1    0    0  501  502  0.00000000000E+00  0.00000000000E+00  0.12946284223E+03  0.12946284223E+03  0.00000000000E+00 0.  1.
         21   -1    0    0  502  503 -0.00000000000E+00 -0.00000000000E+00 -0.50219592502E+03  0.50219592502E+03  0.00000000000E+00 0.  1.
         -6    2    1    2    0  503 -0.46363329228E+02 -0.70181777924E+01 -0.41085559091E+03  0.44780131890E+03  0.17182808708E+03 0.  0.
        -24    2    3    3    0    0  0.10172012026E+02  0.17581905506E+02 -0.10115036815E+03  0.13198361213E+03  0.82314541016E+02 0.  0.
          6    2    1    2  501    0  0.46363329228E+02  0.70181777924E+01  0.38122508115E+02  0.18385744835E+03  0.17364164988E+03 0.  0.
         24    2    5    5    0    0  0.64650044537E+02 -0.20586626225E+02  0.79255665396E+02  0.13084371627E+03  0.78963156920E+02 0.  0.
          5    1    5    5  501    0 -0.18286715309E+02  0.27604804017E+02 -0.41133157281E+02  0.53013732084E+02  0.47000000000E+01 0. -1.
        -13    1    6    6    0    0 -0.15864540777E+02 -0.15773215830E+02  0.25455574989E+02  0.33888999538E+02  0.00000000000E+00 0.  1.
         14    1    6    6    0    0  0.80514585314E+02 -0.48134103951E+01  0.53800090407E+02  0.96954716727E+02  0.00000000000E+00 0. -1.
         -5    1    3    3    0  503 -0.56535341254E+02 -0.24600083299E+02 -0.30970522276E+03  0.31581770678E+03  0.47000000000E+01 0.  1.
         13    1    4    4    0    0  0.93320874137E+01  0.17992601034E+02 -0.11567075710E+03  0.11743315373E+03  0.00000000000E+00 0. -1.
        -14    1    4    4    0    0  0.83992461250E+00 -0.41069552747E+00  0.14520388950E+02  0.14550458392E+02  0.00000000000E+00 0.  1.
</event>
<event>
12    1  0.1594900E-001  0.1803447E+03  0.7818608E-02  0.1168241E+00
         21   -1    0    0  501  502  0.00000000000E+00  0.00000000000E+00  0.59154946016E+02  0.59154946016E+02  0.00000000000E+00 0.  1.
         21   -1    0    0  502  503 -0.00000000000E+00 -0.00000000000E+00 -0.57014503523E+03  0.57014503523E+03  0.00000000000E+00 0.  1.
         -6    2    1    2    0  503  0.31321710150E+02 -0.21453067445E+02 -0.32544887318E+03  0.37055347338E+03  0.17306537480E+03 0.  0.
        -24    2    3    3    0    0  0.13827140942E+02  0.55525628872E+02 -0.17623246780E+03  0.20167657955E+03  0.79632121291E+02 0.  0.
          6    2    1    2  501    0 -0.31321710150E+02  0.21453067445E+02 -0.18554121604E+03  0.25874650787E+03  0.17630351345E+03 0.  0.
         24    2    5    5    0    0  0.52649959670E+01  0.59924306300E+01 -0.14607960168E+02  0.83196269138E+02  0.81514399285E+02 0.  0.
          5    1    5    5  501    0 -0.36586706117E+02  0.15460636815E+02 -0.17093325587E+03  0.17555023873E+03  0.47000000000E+01 0. -1.
        -13    1    6    6    0    0 -0.27414517721E+01 -0.36995158347E+02 -0.13432510148E+02  0.39453638968E+02  0.00000000000E+00 0.  1.
         14    1    6    6    0    0  0.80064477391E+01  0.42987588977E+02 -0.11754500197E+01  0.43742630170E+02  0.00000000000E+00 0. -1.
         -5    1    3    3    0  503  0.17494569208E+02 -0.76978696317E+02 -0.14921640537E+03  0.16887689383E+03  0.47000000000E+01 0.  1.
         11    1    4    4    0    0 -0.13683461770E+02 -0.11040740036E+02 -0.77465283906E+02  0.79435541650E+02  0.00000000000E+00 0. -1.
        -12    1    4    4    0    0  0.27510602712E+02  0.66566368907E+02 -0.98767183897E+02  0.12224103790E+03  0.00000000000E+00 0.  1.
</event>
<event>
12    1  0.1594900E-001  0.2197579E+03  0.7818608E-02  0.1134218E+00
         21   -1    0    0  503  502  0.00000000000E+00  0.00000000000E+00  0.63773233014E+03  0.63773233014E+03  0.00000000000E+00 0.  1.
         21   -1    0    0  501  503 -0.00000000000E+00 -0.00000000000E+00 -0.16123961032E+03  0.16123961032E+03  0.00000000000E+00 0.  1.
          6    2    1    2  501    0 -0.97369366860E+02  0.96149717098E+02 -0.53369559029E+02  0.22534524990E+03  0.17089941522E+03 0.  0.
         24    2    3    3    0    0 -0.89809472125E+02  0.21928603105E+02  0.15902696714E+02  0.12343027953E+03  0.80221775247E+02 0.  0.
         -6    2    1    2    0  502  0.97369366860E+02 -0.96149717098E+02  0.52986227885E+03  0.57362669057E+03  0.17195343522E+03 0.  0.
        -24    2    5    5    0    0  0.73893507565E+02 -0.12439282407E+03  0.49884913161E+03  0.52532871584E+03  0.78650991350E+02 0.  0.
          5    1    3    3  501    0 -0.75598947347E+01  0.74221113993E+02 -0.69272255743E+02  0.10191497037E+03  0.47000000000E+01 0. -1.
        -13    1    4    4    0    0  0.66434577590E+01  0.12379431183E+02 -0.16091554969E+02  0.21361741238E+02  0.00000000000E+00 0.  1.
         14    1    4    4    0    0 -0.96452929884E+02  0.95491719213E+01  0.31994251683E+02  0.10206853829E+03  0.00000000000E+00 0. -1.
         -5    1    5    5    0  502  0.23475859295E+02  0.28243106969E+02  0.31013147236E+02  0.48297974724E+02  0.47000000000E+01 0.  1.
         11    1    6    6    0    0  0.31149695853E+02 -0.11676400258E+03  0.34997294017E+03  0.37025017853E+03  0.00000000000E+00 0. -1.
        -12    1    6    6    0    0  0.42743811713E+02 -0.76288214853E+01  0.14887619144E+03  0.15507853731E+03  0.00000000000E+00 0.  1.
</event>
<event>
12    1  0.1594900E-001  0.3291199E+03  0.7818608E-02  0.1071613E+00
         21   -1    0    0  501  502  0.00000000000E+00  0.00000000000E+00  0.52521143583E+03  0.52521143583E+03  0.00000000000E+00 0. -1.
         21   -1    0    0  502  503 -0.00000000000E+00 -0.00000000000E+00 -0.20598267944E+03  0.20598267944E+03  0.00000000000E+00 0.  1.
         -6    2    1    2    0  503  0.27569032860E+03 -0.45918182740E+02  0.17186837681E+03  0.37129325372E+03  0.17379961025E+03 0.  0.
        -24    2    3    3    0    0  0.19185166410E+03  0.29857548510E+02  0.14382026788E+03  0.25476141462E+03  0.80750075557E+02 0.  0.
          6    2    1    2  501    0 -0.27569032860E+03  0.45918182740E+02  0.14736037958E+03  0.35990086154E+03  0.17233662373E+03 0.  0.
         24    2    5    5    0    0 -0.25115501913E+03 -0.12539673566E+02  0.12996549436E+03  0.29399202749E+03  0.79398963814E+02 0.  0.
          5    1    5    5  501    0 -0.24535309474E+02  0.58457856306E+02  0.17394885223E+02  0.65908834058E+02  0.47000000000E+01 0. -1.
        -13    1    6    6    0    0 -0.18631049787E+03  0.16471607405E+02  0.65826632327E+02  0.19828278037E+03  0.00000000000E+00 0.  1.
         14    1    6    6    0    0 -0.64844521254E+02 -0.29011280971E+02  0.64138862032E+02  0.95709247113E+02  0.00000000000E+00 0. -1.
         -5    1    3    3    0  503  0.83838664497E+02 -0.75775731250E+02  0.28048108930E+02  0.11653183911E+03  0.47000000000E+01 0.  1.
         11    1    4    4    0    0  0.14114172393E+03  0.41790331283E+02  0.13897966291E+03  0.20244200336E+03  0.00000000000E+00 0. -1.
        -12    1    4    4    0    0  0.50709940175E+02 -0.11932782773E+02  0.48406049614E+01  0.52319411251E+02  0.00000000000E+00 0.  1.
</event>
<event>
12    1  0.1594900E-001  0.2124844E+03  0.7818608E-02  0.1139691E+00
         21   -1    0    0  503  502  0.00000000000E+00  0.00000000000E+00  0.59244775027E+03  0.59244775027E+03  0.00000000000E+00 0.  1.
         21   -1    0    0  501  503 -0.00000000000E+00 -0.00000000000E+00 -0.15382737302E+03  0.15382737302E+03  0.00000000000E+00 0.  1.
          6    2    1    2  501    0 -0.11855558350E+03 -0.36099511180E+02 -0.46088982332E+02  0.21703720387E+03  0.17211145366E+03 0.  0.
         24    2    3    3    0    0 -0.94942174865E+02 -0.64698833013E+02  0.26057072569E+02  0.13578046559E+03  0.67508579045E+02 0.  0.
         -6    2    1    2    0  502  0.11855558350E+03  0.36099511180E+02  0.48470935958E+03  0.52923791942E+03  0.17260072710E+03 0.  0.
        -24    2    5    5    0    0  0.11463620407E+03  0.85647646710E+02  0.38134241125E+03  0.41444595421E+03  0.76592660670E+02 0.  0.
          5    1    3    3  501    0 -0.23613408637E+02  0.28599321833E+02 -0.72146054901E+02  0.81256738272E+02  0.47000000000E+01 0. -1.
        -11    1    4    4    0    0 -0.12697249437E+02 -0.17253809736E+02 -0.20835357350E+02  0.29883544127E+02  0.00000000000E+00 0.  1.
         12    1    4    4    0    0 -0.82244925428E+02 -0.47445023277E+02  0.46892429919E+02  0.10589692147E+03  0.00000000000E+00 0. -1.
         -5    1    5    5    0  502  0.39193794287E+01 -0.49548135530E+02  0.10336694833E+03  0.11479196521E+03  0.47000000000E+01 0.  1.
         13    1    6    6    0    0 -0.25833104917E+01  0.62184699519E+00 -0.28333692762E+01  0.38843491394E+01  0.00000000000E+00 0. -1.
        -14    1    6    6    0    0  0.11721951456E+03  0.85025799715E+02  0.38417578053E+03  0.41056160507E+03  0.00000000000E+00 0.  1.
</event>
<event>
12    1  0.1594900E-001  0.1816274E+03  0.7818608E-02  0.1166429E+00
         21   -1    0    0  503  502  0.00000000000E+00  0.00000000000E+00  0.17726151144E+02  0.17726151144E+02  0.00000000000E+00 0. -1.
         21   -1    0    0  501  503 -0.00000000000E+00 -0.00000000000E+00 -0.19986863129E+04  0.19986863129E+04  0.00000000000E+00 0. -1.
          6    2    1    2  501    0 -0.56612958358E+01  0.55760235048E+02 -0.12608311685E+04  0.12737319962E+04  0.17192064650E+03 0.  0.
         24    2    3    3    0    0 -0.16322416491E+01  0.94255562771E+02 -0.11333603741E+04  0.11404315200E+04  0.84802941874E+02 0.  0.
         -6    2    1    2    0  502  0.56612958358E+01 -0.55760235048E+02 -0.72012899322E+03  0.74268046778E+03  0.17276358485E+03 0.  0.
        -24    2    5    5    0    0 -0.52186059892E+02 -0.65292487752E+02 -0.32742680334E+03  0.34559825922E+03  0.72410989717E+02 0.  0.
          5    1    3    3  501    0 -0.40290541867E+01 -0.38495327723E+02 -0.12747079438E+03  0.13330047620E+03  0.47000000000E+01 0. -1.
        -13    1    4    4    0    0 -0.97713161747E+01  0.54594820290E+02 -0.24714460694E+03  0.25329139299E+03  0.00000000000E+00 0.  1.
         14    1    4    4    0    0  0.81390745256E+01  0.39660742481E+02 -0.88621576718E+03  0.88714012705E+03  0.00000000000E+00 0. -1.
         -5    1    5    5    0  502  0.57847355728E+02  0.95322527033E+01 -0.39270218989E+03  0.39708220855E+03  0.47000000000E+01 0.  1.
         13    1    6    6    0    0 -0.46231030839E+02 -0.80647450767E+01 -0.92441793483E+02  0.10367175849E+03  0.00000000000E+00 0. -1.
        -14    1    6    6    0    0 -0.59550290530E+01 -0.57227742675E+02 -0.23498500985E+03  0.24192650073E+03  0.00000000000E+00 0.  1.
</event>
<event>
12    1  0.1594900E-001  0.2180593E+03  0.7818608E-02  0.1135464E+00
         21   -1    0    0  501  502  0.00000000000E+00  0.00000000000E+00  0.17473405438E+03  0.17473405438E+03  0.00000000000E+00 0. -1.
         21   -1    0    0  502  503 -0.00000000000E+00 -0.00000000000E+00 -0.47606394368E+03  0.47606394368E+03  0.00000000000E+00 0. -1.
         -6    2    1    2    0  503  0.12037309703E+01  0.13348236105E+03 -0.36420740567E+03  0.42449606757E+03  0.17242646943E+03 0.  0.
        -24    2    3    3    0    0 -0.51690407342E+02  0.12770654914E+03 -0.29713059369E+03  0.33874912258E+03  0.86507325887E+02 0.  0.
          6    2    1    2  501    0 -0.12037309703E+01 -0.13348236105E+03  0.62877516364E+02  0.22630193048E+03  0.17158086139E+03 0.  0.
         24    2    5    5    0    0 -0.25131460399E+02 -0.12279293805E+03 -0.98896642560E+01  0.14881675400E+03  0.79617365413E+02 0.  0.
          5    1    5    5  501    0  0.23927729429E+02 -0.10689423004E+02  0.72767180620E+02  0.77485176487E+02  0.47000000000E+01 0. -1.
        -11    1    6    6    0    0  0.37163310607E+01 -0.20714205540E+02 -0.34045156164E+02  0.40024518560E+02  0.00000000000E+00 0.  1.
         12    1    6    6    0    0 -0.28847791460E+02 -0.10207873251E+03  0.24155491908E+02  0.10879223544E+03  0.00000000000E+00 0. -1.
         -5    1    3    3    0  503  0.52894138312E+02  0.57758119076E+01 -0.67076811971E+02  0.85746944990E+02  0.47000000000E+01 0.  1.
         13    1    4    4    0    0  0.22125749891E+02  0.48400772944E+02 -0.11721379213E+03  0.12872939328E+03  0.00000000000E+00 0. -1.
        -14    1    4    4    0    0 -0.73816157233E+02  0.79305776199E+02 -0.17991680157E+03  0.21001972930E+03  0.00000000000E+00 0.  1.
</event>
<event>
12    1  0.1594900E-001  0.1797794E+03  0.7818608E-02  0.1168283E+00
         21   -1    0    0  501  502  0.00000000000E+00  0.00000000000E+00  0.52446020272E+02  0.52446020272E+02  0.00000000000E+00 0. -1.
         21   -1    0    0  502  503 -0.00000000000E+00 -0.00000000000E+00 -0.65220215399E+03  0.65220215399E+03  0.00000000000E+00 0. -1.
         -6    2    1    2    0  503 -0.14660827829E+02  0.47605557149E+02 -0.38592856905E+03  0.42528664159E+03  0.17160022775E+03 0.  0.
        -24    2    3    3    0    0  0.23393999682E+02  0.26132582356E+02 -0.36767541984E+03  0.37769960555E+03  0.79003712522E+02 0.  0.
          6    2    1    2  501    0  0.14660827829E+02 -0.47605557149E+02 -0.21382756466E+03  0.27936153267E+03  0.17274087409E+03 0.  0.
         24    2    5    5    0    0  0.55492063733E+02 -0.11751400824E+02 -0.20181599140E+03  0.22351282415E+03  0.77529501573E+02 0.  0.
          5    1    5    5  501    0 -0.40831235904E+02 -0.35854156324E+02 -0.12011573262E+02  0.55848708521E+02  0.47000000000E+01 0. -1.
        -13    1    6    6    0    0  0.31015798036E+01 -0.37471131931E+02 -0.84133843074E+02  0.92153182668E+02  0.00000000000E+00 0.  1.
         14    1    6    6    0    0  0.52390483929E+02  0.25719731106E+02 -0.11768214833E+03  0.13135964148E+03  0.00000000000E+00 0. -1.
         -5    1    3    3    0  503 -0.38054827511E+02  0.21472974792E+02 -0.18253149206E+02  0.47587036042E+02  0.47000000000E+01 0.  1.
         13    1    4    4    0    0 -0.27457056710E+02  0.44812447420E+01 -0.78349437594E+02  0.83142082539E+02  0.00000000000E+00 0. -1.
        -14    1    4    4    0    0  0.50851056392E+02  0.21651337614E+02 -0.28932598225E+03  0.29455752301E+03  0.00000000000E+00 0.  1.
</event>
<event>
12    1  0.1594900E-001  0.1844497E+03  0.7818608E-02  0.1164211E+00
         21   -1    0    0  501  502  0.00000000000E+00  0.00000000000E+00  0.33463451804E+03  0.33463451804E+03  0.00000000000E+00 0. -1.
         21   -1    0    0  502  503 -0.00000000000E+00 -0.00000000000E+00 -0.11668471054E+03  0.11668471054E+03  0.00000000000E+00 0. -1.
         -6    2    1    2    0  503  0.53518799160E+02  0.31891854038E+02  0.19318008624E+03  0.26521379228E+03  0.17069990533E+03 0.  0.
        -24    2    3    3    0    0  0.12123171458E+02 -0.29380499716E+02  0.60242855044E+02  0.11302214742E+03  0.90192123681E+02 0.  0.
          6    2    1    2  501    0 -0.53518799160E+02 -0.31891854038E+02  0.24769721264E+02  0.18610543630E+03  0.17360974083E+03 0.  0.
         24    2    5    5    0    0  0.18063893240E+02 -0.62721079627E+02  0.32927210571E+02  0.10759965541E+03  0.78950912467E+02 0.  0.
          5    1    5    5  501    0 -0.71582692401E+02  0.30829225589E+02 -0.81574893070E+01  0.78505780893E+02  0.47000000000E+01 0. -1.
        -11    1    6    6    0    0  0.19082147835E+02 -0.41788032265E+00  0.40555980129E+02  0.44822879360E+02  0.00000000000E+00 0.  1.
         12    1    6    6    0    0 -0.10182545946E+01 -0.62303199305E+02 -0.76287695572E+01  0.62776776048E+02  0.00000000000E+00 0. -1.
         -5    1    3    3    0  503  0.41395627702E+02  0.61272353754E+02  0.13293723119E+03  0.15219164486E+03  0.47000000000E+01 0.  1.
         13    1    4    4    0    0  0.50931984799E+02 -0.13088725154E+02  0.41300286439E+02  0.66866250543E+02  0.00000000000E+00 0. -1.
        -14    1    4    4    0    0 -0.38808813341E+02 -0.16291774562E+02  0.18942568605E+02  0.46155896878E+02  0.00000000000E+00 0.  1.
</event>
<event>
12    1  0.1594900E-001  0.1998559E+03  0.7818608E-02  0.1150406E+00
         21   -1    0    0  503  502  0.00000000000E+00  0.00000000000E+00  0.59210677819E+03  0.59210677819E+03  0.00000000000E+00 0.  1.
         21   -1    0    0  501  503 -0.00000000000E+00 -0.00000000000E+00 -0.79118729646E+02  0.79118729646E+02  0.00000000000E+00 0.  1.
          6    2    1    2  501    0 -0.90292684183E+02 -0.37519460481E+02  0.12157117566E+03  0.23173767561E+03  0.17135437204E+03 0.  0.
         24    2    3    3    0    0 -0.12045734854E+02 -0.78231657740E+02  0.48901293038E+02  0.11735642748E+03  0.71525538157E+02 0.  0.
         -6    2    1    2    0  502  0.90292684183E+02  0.37519460481E+02  0.39141687289E+03  0.43948783222E+03  0.17430406639E+03 0.  0.
        -24    2    5    5    0    0 -0.13010381670E+02 -0.16238794271E+02  0.16878842514E+03  0.18819718554E+03  0.80595779732E+02 0.  0.
          5    1    3    3  501    0 -0.78246949329E+02  0.40712197258E+02  0.72669882620E+02  0.11438124814E+03  0.47000000000E+01 0. -1.
        -13    1    4    4    0    0 -0.18482391667E+02 -0.21988142502E+02 -0.14652597653E+02  0.32245555204E+02  0.00000000000E+00 0.  1.
         14    1    4    4    0    0  0.64366568130E+01 -0.56243515237E+02  0.63553890691E+02  0.85110872273E+02  0.00000000000E+00 0. -1.
         -5    1    5    5    0  502  0.10330306585E+03  0.53758254752E+02  0.22262844774E+03  0.25129064669E+03  0.47000000000E+01 0.  1.
         13    1    6    6    0    0  0.16289760109E+02 -0.14369495332E+02  0.56591736211E+01  0.22446935795E+02  0.00000000000E+00 0. -1.
        -14    1    6    6    0    0 -0.29300141780E+02 -0.18692989388E+01  0.16312925152E+03  0.16575024974E+03  0.00000000000E+00 0.  1.
</event>
<event>
12    1  0.1594900E-001  0.1769308E+03  0.7818608E-02  0.1171681E+00
         21   -1    0    0  503  502  0.00000000000E+00  0.00000000000E+00  0.10394102945E+03  0.10394102945E+03  0.00000000000E+00 0.  1.
         21   -1    0    0  501  503 -0.00000000000E+00 -0.00000000000E+00 -0.32297809771E+03  0.32297809771E+03  0.00000000000E+00 0.  1.
          6    2    1    2  501    0 -0.11627245150E+02 -0.68444126949E+01 -0.47984503875E+02  0.18332213980E+03  0.17641557616E+03 0.  0.
         24    2    3    3    0    0  0.29014800652E+02 -0.69486291252E+01 -0.91055182422E+02  0.12391708868E+03  0.78576437419E+02 0.  0.
         -6    2    1    2    0  502  0.11627245150E+02  0.68444126949E+01 -0.17105256438E+03  0.24359698737E+03  0.17291175107E+03 0.  0.
        -24    2    5    5    0    0 -0.15666572856E+02 -0.45781812205E+02 -0.15556244961E+03  0.18214370670E+03  0.81456972255E+02 0.  0.
          5    1    3    3  501    0 -0.40642045802E+02  0.10421643030E+00  0.43070678547E+02  0.59405051119E+02  0.47000000000E+01 0. -1.
        -13    1    4    4    0    0 -0.83548118869E+01  0.10476304887E+02  0.86999252011E+01  0.15976374566E+02  0.00000000000E+00 0.  1.
         14    1    4    4    0    0  0.37369612538E+02 -0.17424934013E+02 -0.99755107623E+02  0.10794071411E+03  0.00000000000E+00 0. -1.
         -5    1    5    5    0  502  0.27293818006E+02  0.52626224900E+02 -0.15490114775E+02  0.61453280663E+02  0.47000000000E+01 0.  1.
         11    1    6    6    0    0  0.34833310973E+01  0.15601958207E+02 -0.25746940932E+01  0.16192088966E+02  0.00000000000E+00 0. -1.
        -12    1    6    6    0    0 -0.19149903953E+02 -0.61383770412E+02 -0.15298775552E+03  0.16595161774E+03  0.00000000000E+00 0.  1.
</event>
<event>
12    1  0.1594900E-001  0.1727442E+03  0.7818608E-02  0.1175061E+00
         21   -1    0    0  501  502  0.00000000000E+00  0.00000000000E+00  0.33198884319E+03  0.33198884319E+03  0.00000000000E+00 0. -1.
         21   -1    0    0  502  503 -0.00000000000E+00 -0.00000000000E+00 -0.13954760947E+03  0.13954760947E+03  0.00000000000E+00 0. -1.
         -6    2    1    2    0  503 -0.96560412864E+01 -0.99310524546E+01 -0.44528343381E+02  0.17839097994E+03  0.17218798862E+03 0.  0.
        -24    2    3    3    0    0  0.56826872207E+02  0.55953159449E+01 -0.53105319333E+02  0.10942214337E+03  0.76762162242E+02 0.  0.
          6    2    1    2  501    0  0.96560412864E+01  0.99310524546E+01  0.23696957710E+03  0.29314547272E+03  0.17201111234E+03 0.  0.
         24    2    5    5    0    0  0.60441201860E+02  0.46263490936E+02  0.14319595497E+03  0.18038572445E+03  0.78996699879E+02 0.  0.
          5    1    5    5  501    0 -0.50785160574E+02 -0.36332438481E+02  0.93773622134E+02  0.11275974826E+03  0.47000000000E+01 0. -1.
        -13    1    6    6    0    0 -0.26142122173E+01 -0.15691849192E+02  0.56485686492E+01  0.16881189661E+02  0.00000000000E+00 0.  1.
         14    1    6    6    0    0  0.63055414077E+02  0.61955340127E+02  0.13754738632E+03  0.16350453479E+03  0.00000000000E+00 0. -1.
         -5    1    3    3    0  503 -0.66482913494E+02 -0.15526368400E+02  0.85769759516E+01  0.68968836577E+02  0.47000000000E+01 0.  1.
         13    1    4    4    0    0  0.58411615206E+02 -0.23314699462E+02 -0.21275525172E+02  0.66393824813E+02  0.00000000000E+00 0. -1.
        -14    1    4    4    0    0 -0.15847429987E+01  0.28910015407E+02 -0.31829794161E+02  0.43028318553E+02  0.00000000000E+00 0.  1.
</event>
<event>
12    1  0.1594900E-001  0.2872023E+03  0.7818608E-02  0.1091930E+00
         21   -1    0    0  501  502  0.00000000000E+00  0.00000000000E+00  0.97010399386E+03  0.97010399386E+03  0.00000000000E+00 0. -1.
         21   -1    0    0  502  503 -0.00000000000E+00 -0.00000000000E+00 -0.89229873657E+02  0.89229873657E+02  0.00000000000E+00 0.  1.
         -6    2    1    2    0  503 -0.22045146419E+03  0.67845522306E+02  0.32274155501E+03  0.43202690196E+03  0.17112355107E+03 0.  0.
        -24    2    3    3    0    0 -0.18179492702E+03 -0.47181868684E+01  0.26616069785E+03  0.33211042108E+03  0.79900925739E+02 0.  0.
          6    2    1    2  501    0  0.22045146419E+03 -0.67845522306E+02  0.55813256520E+03  0.62730696556E+03  0.16970623365E+03 0.  0.
         24    2    5    5    0    0  0.16073107345E+03 -0.83678628664E+02  0.28167812968E+03  0.34399378682E+03  0.78438292707E+02 0.  0.
          5    1    5    5  501    0  0.59720390741E+02  0.15833106358E+02  0.27645443553E+03  0.28331317874E+03  0.47000000000E+01 0. -1.
        -13    1    6    6    0    0  0.65536784634E+02 -0.76728690680E+02  0.16284586905E+03  0.19157541382E+03  0.00000000000E+00 0.  1.
         14    1    6    6    0    0  0.95194288815E+02 -0.69499379834E+01  0.11883226062E+03  0.15241837299E+03  0.00000000000E+00 0. -1.
         -5    1    3    3    0  503 -0.38656537170E+02  0.72563709174E+02  0.56580857159E+02  0.99916480882E+02  0.47000000000E+01 0.  1.
         11    1    4    4    0    0 -0.16489502827E+03  0.15488059157E+02  0.25368727118E+03  0.30296448948E+03  0.00000000000E+00 0. -1.
        -12    1    4    4    0    0 -0.16899898749E+02 -0.20206246025E+02  0.12473426665E+02  0.29145931602E+02  0.00000000000E+00 0.  1.
</event>
<event>
12    1  0.1594900E-001  0.1821524E+03  0.7818608E-02  0.1166350E+00
         21   -1    0    0  501  502  0.00000000000E+00  0.00000000000E+00  0.56512919515E+03  0.56512919515E+03  0.00000000000E+00 0.  1.
         21   -1    0    0  502  503 -0.00000000000E+00 -0.00000000000E+00 -0.58264504593E+02  0.58264504593E+02  0.00000000000E+00 0.  1.
         -6    2    1    2    0  503  0.33143342071E+02 -0.25166338990E+02  0.27665026718E+03  0.32983251455E+03  0.17470630093E+03 0.  0.
        -24    2    3    3    0    0  0.13725308040E+02 -0.79108894296E+02  0.12866569698E+03  0.17106103621E+03  0.79122786173E+02 0.  0.
          6    2    1    2  501    0 -0.33143342071E+02  0.25166338990E+02  0.23021442338E+03  0.29356118519E+03  0.17733488934E+03 0.  0.
         24    2    5    5    0    0 -0.45407709605E+02  0.13478471035E+02  0.25030391889E+03  0.26686476599E+03  0.79506114476E+02 0.  0.
          5    1    5    5  501    0  0.12264367534E+02  0.11687867956E+02 -0.20089495514E+02  0.26696419205E+02  0.47000000000E+01 0. -1.
        -13    1    6    6    0    0  0.18686547458E+02  0.51309827019E+01  0.11840441522E+03  0.11997966320E+03  0.00000000000E+00 0.  1.
         14    1    6    6    0    0 -0.64094257063E+02  0.83474883327E+01  0.13189950368E+03  0.14688510278E+03  0.00000000000E+00 0. -1.
         -5    1    3    3    0  503  0.19418034031E+02  0.53942555306E+02  0.14798457020E+03  0.15877147834E+03  0.47000000000E+01 0.  1.
         11    1    4    4    0    0 -0.43278888554E+01 -0.80824608879E+01  0.85537484096E+02  0.86027425751E+02  0.00000000000E+00 0. -1.
        -12    1    4    4    0    0  0.18053196896E+02 -0.71026433409E+02  0.43128212886E+02  0.85033610458E+02  0.00000000000E+00 0.  1.
</event>
<event>
12    1  0.1594900E-001  0.1823273E+03  0.7818608E-02  0.1166018E+00
         21   -1    0    0  503  502  0.00000000000E+00  0.00000000000E+00  0.33106860302E+03  0.33106860302E+03  0.00000000000E+00 0.  1.
         21   -1    0    0  501  503 -0.00000000000E+00 -0.00000000000E+00 -0.10044422402E+03  0.10044422402E+03  0.00000000000E+00 0. -1.
          6    2    1    2  501    0  0.11817279886E+02  0.56895743258E+02  0.13690021471E+03  0.22650684780E+03  0.17084176775E+03 0.  0.
         24    2    3    3    0    0  0.24422154258E+02  0.10171889679E+03  0.79151826021E+02  0.15217674389E+03  0.77133483233E+02 0.  0.
         -6    2    1    2    0  502 -0.11817279886E+02 -0.56895743258E+02  0.93724164285E+02  0.20500597924E+03  0.17281915070E+03 0.  0.
        -24    2    5    5    0    0 -0.53912670700E+02 -0.31100142306E+02  0.39913260026E+01  0.10248033746E+03  0.81317242757E+02 0.  0.
          5    1    3    3  501    0 -0.12604874371E+02 -0.44823153536E+02  0.57748388689E+02  0.74330103908E+02  0.47000000000E+01 0. -1.
        -13    1    4    4    0    0  0.11950541602E+02  0.21672566977E+02  0.65503504623E+02  0.70023029939E+02  0.00000000000E+00 0.  1.
         14    1    4    4    0    0  0.12471612656E+02  0.80046329817E+02  0.13648321398E+02  0.82153713954E+02  0.00000000000E+00 0. -1.
         -5    1    5    5    0  502  0.42095390813E+02 -0.25795600952E+02  0.89732838282E+02  0.10252564178E+03  0.47000000000E+01 0.  1.
         13    1    6    6    0    0 -0.32291197249E+02 -0.32885056725E+02 -0.34991826433E+02  0.57866884250E+02  0.00000000000E+00 0. -1.
        -14    1    6    6    0    0 -0.21621473451E+02  0.17849144196E+01  0.38983152436E+02  0.44613453212E+02  0.00000000000E+00 0.  1.
</event>
<event>
12    1  0.1594900E-001  0.1836881E+03  0.7818608E-02  0.1164408E+00
         21   -1    0    0  503  502  0.00000000000E+00  0.00000000000E+00  0.40522517848E+03  0.40522517848E+03  0.00000000000E+00 0. -1.
         21   -1    0    0  501  503 -0.00000000000E+00 -0.00000000000E+00 -0.16492831212E+03  0.16492831212E+03  0.00000000000E+00 0. -1.
          6    2    1    2  501    0  0.39705043754E+02 -0.50168923762E+02 -0.80660542798E+02  0.20061763051E+03  0.17218565299E+03 0.  0.
         24    2    3    3    0    0  0.16204529628E+02 -0.99607996421E+02 -0.58363061478E+02  0.14132375441E+03  0.79886274690E+02 0.  0.
         -6    2    1    2    0  502 -0.39705043754E+02  0.50168923762E+02  0.32095740916E+03  0.36953586009E+03  0.17160909646E+03 0.  0.
        -24    2    5    5    0    0 -0.64025187531E+02  0.26489187636E+01  0.10595918821E+03  0.14795981156E+03  0.80984658195E+02 0.  0.
          5    1    3    3  501    0  0.23500514126E+02  0.49439072659E+02 -0.22297481320E+02  0.59293876099E+02  0.47000000000E+01 0. -1.
        -11    1    4    4    0    0  0.48307257702E+01  0.13807183364E+02 -0.49226606331E+01  0.15433949968E+02  0.00000000000E+00 0.  1.
         12    1    4    4    0    0  0.11373803858E+02 -0.11341517979E+03 -0.53440400845E+02  0.12588980444E+03  0.00000000000E+00 0. -1.
         -5    1    5    5    0  502  0.24320143777E+02  0.47520004998E+02  0.21499822095E+03  0.22157604852E+03  0.47000000000E+01 0.  1.
         13    1    6    6    0    0 -0.14720748905E+02 -0.37422649941E+01 -0.12383888998E+02  0.19597594300E+02  0.00000000000E+00 0. -1.
        -14    1    6    6    0    0 -0.49304438626E+02  0.63911837578E+01  0.11834307721E+03  0.12836221727E+03  0.00000000000E+00 0.  1.
</event>
<event>
12    1  0.1594900E-001  0.1887049E+03  0.7818608E-02  0.1159926E+00
         21   -1    0    0  501  502  0.00000000000E+00  0.00000000000E+00  0.95945686941E+03  0.95945686941E+03  0.00000000000E+00 0.  1.
         21   -1    0    0  502  503 -0.00000000000E+00 -0.00000000000E+00 -0.10885499374E+03  0.10885499374E+03  0.00000000000E+00 0. -1.
         -6    2    1    2    0  503  0.57785246077E+02 -0.51666065583E+02 -0.95808134717E+01  0.18767357783E+03  0.17064894618E+03 0.  0.
        -24    2    3    3    0    0  0.44411027040E+02 -0.95974981818E+02 -0.32166693315E+02  0.13595934612E+03  0.79162561747E+02 0.  0.
          6    2    1    2  501    0 -0.57785246077E+02  0.51666065583E+02  0.86018268914E+03  0.88063828531E+03  0.17204945182E+03 0.  0.
         24    2    5    5    0    0 -0.50038621992E+02 -0.26249141732E+02  0.63134297130E+03  0.63872818595E+03  0.78656639780E+02 0.  0.
          5    1    5    5  501    0 -0.77466240847E+01  0.77915207315E+02  0.22883971783E+03  0.24191009936E+03  0.47000000000E+01 0. -1.
        -11    1    6    6    0    0 -0.42297753302E+02 -0.36593135931E+02  0.61657472495E+03  0.61910625016E+03  0.00000000000E+00 0.  1.
         12    1    6    6    0    0 -0.77408686902E+01  0.10343994199E+02  0.14768246351E+02  0.19621935795E+02  0.00000000000E+00 0. -1.
         -5    1    3    3    0  503  0.13374219037E+02  0.44308916234E+02  0.22585879843E+02  0.51714231707E+02  0.47000000000E+01 0.  1.
         11    1    4    4    0    0  0.65549564892E+02 -0.58879734966E+02 -0.12649342288E+02  0.89014462350E+02  0.00000000000E+00 0. -1.
        -12    1    4    4    0    0 -0.21138537852E+02 -0.37095246852E+02 -0.19517351027E+02  0.46944883775E+02  0.00000000000E+00 0.  1.
</event>
<event>
12    1  0.1594900E-001  0.2079661E+03  0.7818608E-02  0.1143188E+00
         21   -1    0    0  503  502  0.00000000000E+00  0.00000000000E+00  0.78574716494E+03  0.78574716494E+03  0.00000000000E+00 0. -1.
         21   -1    0    0  501  503 -0.00000000000E+00 -0.00000000000E+00 -0.55181731032E+02  0.55181731032E+02  0.00000000000E+00 0.  1.
          6    2    1    2  501    0 -0.66318664372E+02  0.97286716378E+02  0.38643860909E+03  0.43884289221E+03  0.17142174606E+03 0.  0.
         24    2    3    3    0    0 -0.89388073463E+02  0.28940937390E+02  0.30667444426E+03  0.33119645645E+03  0.82547395282E+02 0.  0.
         -6    2    1    2    0  502  0.66318664372E+02 -0.97286716378E+02  0.34412682482E+03  0.40208600377E+03  0.17142640530E+03 0.  0.
        -24    2    5    5    0    0  0.14842149972E+02  0.16420197059E+02  0.15356938511E+03  0.17424105313E+03  0.79287302052E+02 0.  0.
          5    1    3    3  501    0  0.23069409091E+02  0.68345778988E+02  0.79764164827E+02  0.10764643576E+03  0.47000000000E+01 0. -1.
        -13    1    4    4    0    0 -0.20344904498E+02  0.48607135050E+02  0.14584364215E+03  0.15507074732E+03  0.00000000000E+00 0.  1.
         14    1    4    4    0    0 -0.69043168965E+02 -0.19666197660E+02  0.16083080211E+03  0.17612570913E+03  0.00000000000E+00 0. -1.
         -5    1    5    5    0  502  0.51476514399E+02 -0.11370691344E+03  0.19055743971E+03  0.22784495063E+03  0.47000000000E+01 0.  1.
         13    1    6    6    0    0  0.22278311638E+02 -0.28776101410E+02  0.63294135905E+02  0.73010511721E+02  0.00000000000E+00 0. -1.
        -14    1    6    6    0    0 -0.74361616659E+01  0.45196298469E+02  0.90275249206E+02  0.10123054141E+03  0.00000000000E+00 0.  1.
</event>
<event>
12    1  0.1594900E-001  0.1789101E+03  0.7818608E-02  0.1169058E+00
         21   -1    0    0  503  502  0.00000000000E+00  0.00000000000E+00  0.24189999827E+03  0.24189999827E+03  0.00000000000E+00 0. -1.
         21   -1    0    0  501  503 -0.00000000000E+00 -0.00000000000E+00 -0.13876759809E+03  0.13876759809E+03  0.00000000000E+00 0. -1.
          6    2    1    2  501    0  0.33609590909E+02  0.32928128590E+02  0.94315473536E+02  0.20154038249E+03  0.17178256888E+03 0.  0.
         24    2    3    3    0    0  0.52482856863E+01 -0.11410427663E+02  0.11829061734E+03  0.14351307233E+03  0.80284428232E+02 0.  0.
         -6    2    1    2    0  502 -0.33609590909E+02 -0.32928128590E+02  0.88169266394E+01  0.17912721387E+03  0.17261214992E+03 0.  0.
        -24    2    5    5    0    0 -0.29952209856E+02 -0.48214609420E+02 -0.56583560754E+02  0.11170046337E+03  0.77804310499E+02 0.  0.
          5    1    3    3  501    0  0.28361305222E+02  0.44338556253E+02 -0.23975143801E+02  0.58027310163E+02  0.47000000000E+01 0. -1.
        -11    1    4    4    0    0  0.14855202154E+02  0.23609680035E+02  0.10559276860E+02  0.29826034771E+02  0.00000000000E+00 0.  1.
         12    1    4    4    0    0 -0.96069164673E+01 -0.35020107697E+02  0.10773134048E+03  0.11368703756E+03  0.00000000000E+00 0. -1.
         -5    1    5    5    0  502 -0.36573810524E+01  0.15286480830E+02  0.65400487394E+02  0.67426750505E+02  0.47000000000E+01 0.  1.
         11    1    6    6    0    0 -0.58283409520E+01  0.21563436702E+02 -0.15736890301E+02  0.27324001849E+02  0.00000000000E+00 0. -1.
        -12    1    6    6    0    0 -0.24123868904E+02 -0.69778046122E+02 -0.40846670453E+02  0.84376461520E+02  0.00000000000E+00 0.  1.
</event>
<event>
12    1  0.1594900E-001  0.1947961E+03  0.7818608E-02  0.1154438E+00
         21   -1    0    0  503  502  0.00000000000E+00  0.00000000000E+00  0.80953067769E+03  0.80953067769E+03  0.00000000000E+00 0.  1.
         21   -1    0    0  501  503 -0.00000000000E+00 -0.00000000000E+00 -0.46622706288E+02  0.46622706288E+02  0.00000000000E+00 0.  1.
          6    2    1    2  501    0  0.39276637584E+02 -0.80766676647E+02  0.38483596904E+03  0.43084882276E+03  0.17165685155E+03 0.  0.
         24    2    3    3    0    0  0.73272320926E+02 -0.35859542511E+02  0.34096041797E+03  0.35929806340E+03  0.78653365717E+02 0.  0.
         -6    2    1    2    0  502 -0.39276637584E+02  0.80766676647E+02  0.37807200236E+03  0.42530456122E+03  0.17285722580E+03 0.  0.
        -24    2    5    5    0    0 -0.32326865262E+02  0.23990127342E+02  0.34997527965E+03  0.36140313938E+03  0.80678252093E+02 0.  0.
          5    1    3    3  501    0 -0.33995683342E+02 -0.44907134136E+02  0.43875551069E+02  0.71550759351E+02  0.47000000000E+01 0. -1.
        -13    1    4    4    0    0  0.13237827178E+01 -0.95766925800E+01  0.18782401351E+03  0.18807266014E+03  0.00000000000E+00 0.  1.
         14    1    4    4    0    0  0.71948538208E+02 -0.26282849931E+02  0.15313640446E+03  0.17122540326E+03  0.00000000000E+00 0. -1.
         -5    1    5    5    0  502 -0.69497723226E+01  0.56776549304E+02  0.28096722710E+02  0.63901421841E+02  0.47000000000E+01 0.  1.
         13    1    6    6    0    0  0.16494203347E+02 -0.15637227760E+02  0.50219992208E+02  0.55123763056E+02  0.00000000000E+00 0. -1.
        -14    1    6    6    0    0 -0.48821068609E+02  0.39627355103E+02  0.29975528744E+03  0.30627937633E+03  0.00000000000E+00 0.  1.
</event>
<event>
12    1  0.1594900E-001  0.1922671E+03  0.7818608E-02  0.1156505E+00
         21   -1    0    0  503  502  0.00000000000E+00  0.00000000000E+00  0.59312757089E+02  0.59312757089E+02  0.00000000000E+00 0. -1.
         21   -1    0    0  501  503 -0.00000000000E+00 -0.00000000000E+00 -0.66966172074E+03  0.66966172074E+03  0.00000000000E+00 0. -1.
          6    2    1    2  501    0 -0.71457733809E+02 -0.49556389909E+02 -0.40246827549E+03  0.44603512683E+03  0.17147763146E+03 0.  0.
         24    2    3    3    0    0 -0.41698845230E+01 -0.72790351300E+02 -0.31430704752E+03  0.33262452882E+03  0.80835226700E+02 0.  0.
         -6    2    1    2    0  502  0.71457733809E+02  0.49556389909E+02 -0.20788068816E+03  0.28293935100E+03  0.17110889027E+03 0.  0.
        -24    2    5    5    0    0  0.26721380156E+02  0.15411192752E+02 -0.20895388545E+03  0.22645503831E+03  0.81661625711E+02 0.  0.
          5    1    3    3  501    0 -0.67287849286E+02  0.23233961391E+02 -0.88161227974E+02  0.11341059801E+03  0.47000000000E+01 0. -1.
        -11    1    4    4    0    0  0.29883141392E+02 -0.15865353550E+01 -0.87898504927E+02  0.92852928883E+02  0.00000000000E+00 0.  1.
         12    1    4    4    0    0 -0.34053025915E+02 -0.71203815945E+02 -0.22640854259E+03  0.23977159994E+03  0.00000000000E+00 0. -1.
         -5    1    5    5    0  502  0.44736353653E+02  0.34145197157E+02  0.10731972866E+01  0.56484312685E+02  0.47000000000E+01 0.  1.
         13    1    6    6    0    0  0.54693795590E+02  0.34998474924E+00 -0.11663189185E+03  0.12881976542E+03  0.00000000000E+00 0. -1.
        -14    1    6    6    0    0 -0.27972415433E+02  0.15061208003E+02 -0.92321993596E+02  0.97635272895E+02  0.00000000000E+00 0.  1.
</event>
<event>
12    1  0.1594900E-001  0.2617774E+03  0.7818608E-02  0.1106113E+00
         21   -1    0    0  503  502  0.00000000000E+00  0.00000000000E+00  0.62661547825E+02  0.62661547825E+02  0.00000000000E+00 0.  1.
         21   -1    0    0  501  503 -0.00000000000E+00 -0.00000000000E+00 -0.11229955095E+04  0.11229955095E+04  0.00000000000E+00 0. -1.
          6    2    1    2  501    0 -0.14818967000E+03  0.13026306893E+03 -0.62733304022E+03  0.67967563028E+03  0.17170781469E+03 0.  0.
         24    2    3    3    0    0 -0.14602327868E+03  0.10756188237E+03 -0.35799064361E+03  0.40932871660E+03  0.80624691440E+02 0.  0.
         -6    2    1    2    0  502  0.14818967000E+03 -0.13026306893E+03 -0.43300092141E+03  0.50598142700E+03  0.17204290484E+03 0.  0.
        -24    2    5    5    0    0  0.99332075213E+02 -0.63931328604E+02 -0.13444106405E+03  0.19622823045E+03  0.80480076919E+02 0.  0.
          5    1    3    3  501    0 -0.21663913171E+01  0.22701186561E+02 -0.26934239662E+03  0.27034691368E+03  0.47000000000E+01 0. -1.
        -11    1    4    4    0    0 -0.38908267158E+02  0.75391893472E+02 -0.12765925325E+03  0.15327973054E+03  0.00000000000E+00 0.  1.
         12    1    4    4    0    0 -0.10711501152E+03  0.32169988897E+02 -0.23033139036E+03  0.25604898606E+03  0.00000000000E+00 0. -1.
         -5    1    5    5    0  502  0.48857594784E+02 -0.66331740326E+02 -0.29855985737E+03  0.30975319655E+03  0.47000000000E+01 0.  1.
         11    1    6    6    0    0  0.63595003067E+02 -0.14741501400E+02 -0.11527771458E+03  0.13247863133E+03  0.00000000000E+00 0. -1.
        -12    1    6    6    0    0  0.35737072147E+02 -0.49189827204E+02 -0.19163349464E+02  0.63749599126E+02  0.00000000000E+00 0.  1.
</event>
<event>
12    1  0.1594900E-001  0.2069004E+03  0.7818608E-02  0.1145575E+00
         21   -1    0    0  503  502  0.00000000000E+00  0.00000000000E+00  0.24810424346E+03  0.24810424346E+03  0.00000000000E+00 0. -1.
         21   -1    0    0  501  503 -0.00000000000E+00 -0.00000000000E+00 -0.17251210896E+03  0.17251210896E+03  0.00000000000E+00 0. -1.
          6    2    1    2  501    0 -0.10784712440E+03  0.41360290773E+02 -0.11331927443E+01  0.20690346722E+03  0.17165688080E+03 0.  0.
         24    2    3    3    0    0 -0.50740611678E+02  0.89509188138E+02  0.13251527307E+02  0.13069008070E+03  0.79484525433E+02 0.  0.
         -6    2    1    2    0  502  0.10784712440E+03 -0.41360290773E+02  0.76725327237E+02  0.21371288521E+03  0.16261840477E+03 0.  0.
        -24    2    5    5    0    0  0.76869419557E+02 -0.56283321729E+02 -0.50748052504E+01  0.12485532095E+03  0.80538050348E+02 0.  0.
          5    1    3    3  501    0 -0.57106512723E+02 -0.48148897365E+02 -0.14384720051E+02  0.76213386513E+02  0.47000000000E+01 0. -1.
        -13    1    4    4    0    0  0.93053320813E+01  0.63600695925E+01  0.25031639582E+02  0.27452188811E+02  0.00000000000E+00 0.  1.
         14    1    4    4    0    0 -0.60045943759E+02  0.83149118546E+02 -0.11780112275E+02  0.10323789189E+03  0.00000000000E+00 0. -1.
         -5    1    5    5    0  502  0.30977704844E+02  0.14923030956E+02  0.81800132487E+02  0.88857564254E+02  0.47000000000E+01 0.  1.
         13    1    6    6    0    0  0.39382292575E+02 -0.86907511775E+01 -0.38420580762E+02  0.55701302953E+02  0.00000000000E+00 0. -1.
        -14    1    6    6    0    0  0.37487126982E+02 -0.47592570552E+02  0.33345775512E+02  0.69154018000E+02  0.00000000000E+00 0.  1.
</event>
<event>
12    1  0.1594900E-001  0.1766437E+03  0.7818608E-02  0.1173478E+00
         21   -1    0    0  501  502  0.00000000000E+00  0.00000000000E+00  0.10409892417E+02  0.10409892417E+02  0.00000000000E+00 0.  1.
         21   -1    0    0  502  503 -0.00000000000E+00 -0.00000000000E+00 -0.30255110190E+04  0.30255110190E+04  0.00000000000E+00 0.  1.
         -6    2    1    2    0  503  0.12403130508E+01 -0.38871548864E+02 -0.18439095787E+04  0.18514832211E+04  0.16271154771E+03 0.  0.
        -24    2    3    3    0    0 -0.19262875061E+02 -0.78807401333E+02 -0.15418521569E+04  0.15460719752E+04  0.80304507304E+02 0.  0.
          6    2    1    2  501    0 -0.12403130508E+01  0.38871548864E+02 -0.11711915478E+04  0.11844376903E+04  0.17230921281E+03 0.  0.
         24    2    5    5    0    0  0.63441563473E+02  0.42713588089E+02 -0.67251352303E+03  0.68154568516E+03  0.79879908134E+02 0.  0.
          5    1    5    5  501    0 -0.64681876524E+02 -0.38420392253E+01 -0.49867802480E+03  0.50289200514E+03  0.47000000000E+01 0. -1.
        -13    1    6    6    0    0  0.26199138389E+02  0.30732278185E+02 -0.10216508574E+03  0.10985705493E+03  0.00000000000E+00 0.  1.
         14    1    6    6    0    0  0.37242425085E+02  0.11981309904E+02 -0.57034843729E+03  0.57168863023E+03  0.00000000000E+00 0. -1.
         -5    1    3    3    0  503  0.20503188112E+02  0.39935852469E+02 -0.30205742180E+03  0.30541124586E+03  0.47000000000E+01 0.  1.
         11    1    4    4    0    0  0.14996313613E+02  0.97642274230E+01 -0.17082330361E+03  0.17175805837E+03  0.00000000000E+00 0. -1.
        -12    1    4    4    0    0 -0.34259188674E+02 -0.88571628756E+02 -0.13710288533E+04  0.13743139168E+04  0.00000000000E+00 0.  1.
</event>
<event>
12    1  0.1594900E-001  0.2124401E+03  0.7818608E-02  0.1139899E+00
         21   -1    0    0  501  502  0.00000000000E+00  0.00000000000E+00  0.75493820006E+03  0.75493820006E+03  0.00000000000E+00 0. -1.
         21   -1    0    0  502  503 -0.00000000000E+00 -0.00000000000E+00 -0.12484824049E+03  0.12484824049E+03  0.00000000000E+00 0. -1.
         -6    2    1    2    0  503  0.61012749592E+02  0.10972764536E+03 -0.38535801949E+01  0.21119448296E+03  0.16978088168E+03 0.  0.
        -24    2    3    3    0    0  0.62230032969E+02  0.97036187628E+00 -0.31276854135E+02  0.98928038987E+02  0.70249531583E+02 0.  0.
          6    2    1    2  501    0 -0.61012749592E+02 -0.10972764536E+03  0.63394353976E+03  0.66859195759E+03  0.17137118304E+03 0.  0.
         24    2    5    5    0    0 -0.18032056908E+02 -0.96941541381E+02  0.21102973353E+03  0.24328148053E+03  0.70210489322E+02 0.  0.
          5    1    5    5  501    0 -0.42980692685E+02 -0.12786103975E+02  0.42291380623E+03  0.42531047706E+03  0.47000000000E+01 0. -1.
        -11    1    6    6    0    0  0.20465211079E+02 -0.32424691090E+02  0.11580457548E+03  0.12198723359E+03  0.00000000000E+00 0.  1.
         12    1    6    6    0    0 -0.38497267987E+02 -0.64516850291E+02  0.95225158054E+02  0.12129424694E+03  0.00000000000E+00 0. -1.
         -5    1    3    3    0  503 -0.12172833768E+01  0.10875728348E+03  0.27423273940E+02  0.11226644397E+03  0.47000000000E+01 0.  1.
         13    1    4    4    0    0  0.15461493943E+02  0.94440960811E+01 -0.45779874899E+02  0.49234598521E+02  0.00000000000E+00 0. -1.
        -14    1    4    4    0    0  0.46768539026E+02 -0.84737342048E+01  0.14503020764E+02  0.49693440465E+02  0.00000000000E+00 0.  1.
</event>
<event>
12    1  0.1594900E-001  0.1780305E+03  0.7818608E-02  0.1172776E+00
         21   -1    0    0  501  502  0.00000000000E+00  0.00000000000E+00  0.64185703596E+03  0.64185703596E+03  0.00000000000E+00 0.  1.
         21   -1    0    0  502  503 -0.00000000000E+00 -0.00000000000E+00 -0.52750140926E+02  0.52750140926E+02  0.00000000000E+00 0.  1.
         -6    2    1    2    0  503  0.15267179825E+02 -0.36165267297E+02  0.42665866864E+03  0.46231210751E+03  0.17364864493E+03 0.  0.
        -24    2    3    3    0    0  0.67196901293E+02 -0.21831395547E+02  0.16859234576E+03  0.19864096223E+03  0.77735573905E+02 0.  0.
          6    2    1    2  501    0 -0.15267179825E+02  0.36165267297E+02  0.16244822639E+03  0.23229506938E+03  0.16133988862E+03 0.  0.
         24    2    5    5    0    0  0.25279774459E+01  0.63593438414E+02  0.17021636110E+03  0.19836269383E+03  0.79521271613E+02 0.  0.
          5    1    5    5  501    0 -0.17795157271E+02 -0.27428171117E+02 -0.77681347061E+01  0.33932375542E+02  0.47000000000E+01 0. -1.
        -13    1    6    6    0    0 -0.18808407698E+02  0.55507441356E+02  0.53231377673E+02  0.79173302413E+02  0.00000000000E+00 0.  1.
         14    1    6    6    0    0  0.21336385144E+02  0.80859970585E+01  0.11698498343E+03  0.11918939142E+03  0.00000000000E+00 0. -1.
         -5    1    3    3    0  503 -0.51929721468E+02 -0.14333871750E+02  0.25806632288E+03  0.26367114529E+03  0.47000000000E+01 0.  1.
         11    1    4    4    0    0 -0.11734761910E+02  0.83857189841E+01  0.56170262897E+02  0.57992442214E+02  0.00000000000E+00 0. -1.
        -12    1    4    4    0    0  0.78931663202E+02 -0.30217114531E+02  0.11242208287E+03  0.14064852001E+03  0.00000000000E+00 0.  1.
</event>
<event>
12    1  0.1594900E-001  0.1797086E+03  0.7818608E-02  0.1168947E+00
         21   -1    0    0  501  502  0.00000000000E+00  0.00000000000E+00  0.42249519992E+02  0.42249519992E+02  0.00000000000E+00 0. -1.
         21   -1    0    0  502  503 -0.00000000000E+00 -0.00000000000E+00 -0.79523719198E+03  0.79523719198E+03  0.00000000000E+00 0.  1.
         -6    2    1    2    0  503  0.37170694497E+02 -0.31423574061E+02 -0.48040902047E+03  0.51292106831E+03  0.17299160047E+03 0.  0.
        -24    2    3    3    0    0  0.26484662609E+02 -0.75741651687E+02 -0.20883658291E+03  0.23750871906E+03  0.79746085238E+02 0.  0.
          6    2    1    2  501    0 -0.37170694497E+02  0.31423574061E+02 -0.27257865152E+03  0.32456564366E+03  0.16933586225E+03 0.  0.
         24    2    5    5    0    0  0.13220682650E+01 -0.28879224934E+02 -0.21970996422E+03  0.23548529539E+03  0.79656126374E+02 0.  0.
          5    1    5    5  501    0 -0.38492762762E+02  0.60302798995E+02 -0.52868687295E+02  0.89080348271E+02  0.47000000000E+01 0. -1.
        -11    1    6    6    0    0 -0.31381684855E+02 -0.94463081965E+01 -0.16869019688E+03  0.17184418933E+03  0.00000000000E+00 0.  1.
         12    1    6    6    0    0  0.32703753120E+02 -0.19432916737E+02 -0.51019767348E+02  0.63641106066E+02  0.00000000000E+00 0. -1.
         -5    1    3    3    0  503  0.10686031888E+02  0.44318077626E+02 -0.27157243755E+03  0.27541234925E+03  0.47000000000E+01 0.  1.
         13    1    4    4    0    0 -0.25648712883E+02 -0.43084301382E+02 -0.75078465692E+02  0.90282276826E+02  0.00000000000E+00 0. -1.
        -14    1    4    4    0    0  0.52133375493E+02 -0.32657350305E+02 -0.13375811722E+03  0.14722644223E+03  0.00000000000E+00 0.  1.
</event>
<event>
12    1  0.1594900E-001  0.2071100E+03  0.7818608E-02  0.1145322E+00
         21   -1    0    0  501  502  0.00000000000E+00  0.00000000000E+00  0.16964214172E+03  0.16964214172E+03  0.00000000000E+00 0.  1.
         21   -1    0    0  502  503 -0.00000000000E+00 -0.00000000000E+00 -0.58999840974E+03  0.58999840974E+03  0.00000000000E+00 0.  1.
         -6    2    1    2    0  503  0.99931559046E+02 -0.94711326316E+01 -0.49938096735E+03  0.53796629645E+03  0.17306174250E+03 0.  0.
        -24    2    3    3    0    0  0.70238641597E+02 -0.49796236969E+02 -0.17945172075E+03  0.21410738239E+03  0.78904493681E+02 0.  0.
          6    2    1    2  501    0 -0.99931559046E+02  0.94711326316E+01  0.79024699328E+02  0.22167425501E+03  0.18115891748E+03 0.  0.
         24    2    5    5    0    0 -0.85662322186E+02  0.21716541248E+02  0.12420077885E+03  0.17251604803E+03  0.80785591254E+02 0.  0.
          5    1    5    5  501    0 -0.14269236860E+02 -0.12245408617E+02 -0.45176079519E+02  0.49158206980E+02  0.47000000000E+01 0. -1.
        -13    1    6    6    0    0 -0.95295602480E+02  0.24670765759E+02  0.79033856307E+02  0.12623885685E+03  0.00000000000E+00 0.  1.
         14    1    6    6    0    0  0.96332802948E+01 -0.29542245104E+01  0.45166922540E+02  0.46277191179E+02  0.00000000000E+00 0. -1.
         -5    1    3    3    0  503  0.29692917449E+02  0.40325104337E+02 -0.31992924660E+03  0.32385891406E+03  0.47000000000E+01 0.  1.
         13    1    4    4    0    0  0.41630067132E+02 -0.50983525622E+02 -0.53150495480E+02  0.84601167509E+02  0.00000000000E+00 0. -1.
        -14    1    4    4    0    0  0.28608574465E+02  0.11872886532E+01 -0.12630122527E+03  0.12950621488E+03  0.00000000000E+00 0.  1.
</event>
<event>
12    1  0.1594900E-001  0.2881459E+03  0.7818608E-02  0.1091412E+00
         21   -1    0    0  503  502  0.00000000000E+00  0.00000000000E+00  0.52455016381E+03  0.52455016381E+03  0.00000000000E+00 0.  1.
         21   -1    0    0  501  503 -0.00000000000E+00 -0.00000000000E+00 -0.48156030400E+03  0.48156030400E+03  0.00000000000E+00 0. -1.
          6    2    1    2  501    0  0.23087576209E+03 -0.52788291053E+00 -0.39090857210E+03  0.48563109616E+03  0.17240694197E+03 0.  0.
         24    2    3    3    0    0  0.17831099167E+03 -0.57091308136E+02 -0.33017226707E+03  0.38727732191E+03  0.76914048799E+02 0.  0.
         -6    2    1    2    0  502 -0.23087576209E+03  0.52788291053E+00  0.43389843190E+03  0.52047937165E+03  0.17125136767E+03 0.  0.
        -24    2    5    5    0    0 -0.22470994459E+03  0.43250265123E+02  0.38927371041E+03  0.45821642107E+03  0.77866053507E+02 0.  0.
          5    1    3    3  501    0  0.52564770415E+02  0.56563425225E+02 -0.60736305026E+02  0.98353774255E+02  0.47000000000E+01 0. -1.
        -11    1    4    4    0    0  0.91669824982E+01  0.98929648667E+01 -0.44659402735E+01  0.14207355296E+02  0.00000000000E+00 0.  1.
         12    1    4    4    0    0  0.16914400918E+03 -0.66984273003E+02 -0.32570632680E+03  0.37306996661E+03  0.00000000000E+00 0. -1.
         -5    1    5    5    0  502 -0.61658175010E+01 -0.42722382212E+02  0.44624721486E+02  0.62262950581E+02  0.47000000000E+01 0.  1.
         11    1    6    6    0    0 -0.40861218336E+02  0.12233587065E+02  0.14362276746E+03  0.14982255888E+03  0.00000000000E+00 0. -1.
        -12    1    6    6    0    0 -0.18384872625E+03  0.31016678058E+02  0.24565094295E+03  0.30839386219E+03  0.00000000000E+00 0.  1.
</event>
<event>
12    1  0.1594900E-001  0.1836177E+03  0.7818608E-02  0.1166773E+00
         21   -1    0    0  501  502  0.00000000000E+00  0.00000000000E+00  0.31525978431E+03  0.31525978431E+03  0.00000000000E+00 0. -1.
         21   -1    0    0  502  503 -0.00000000000E+00 -0.00000000000E+00 -0.18653862230E+03  0.18653862230E+03  0.00000000000E+00 0. -1.
         -6    2    1    2    0  503  0.20982931908E+02 -0.34591475695E+02 -0.10432170367E+03  0.21118350160E+03  0.17910499677E+03 0.  0.
        -24    2    3    3    0    0  0.11448269458E+02  0.37215967706E+02 -0.43225044321E+01  0.87615105297E+02  0.78368561973E+02 0.  0.
          6    2    1    2  501    0 -0.20982931908E+02  0.34591475695E+02  0.23304286569E+03  0.29061490501E+03  0.16885257517E+03 0.  0.
         24    2    5    5    0    0  0.13594186248E+02  0.82282477505E+02  0.12801065157E+03  0.17009990696E+03  0.74779966745E+02 0.  0.
          5    1    5    5  501    0 -0.34577118156E+02 -0.47691001810E+02  0.10503221412E+03  0.12051499805E+03  0.47000000000E+01 0. -1.
        -11    1    6    6    0    0  0.17703792823E+02 -0.92363585080E+01  0.17470486960E+02  0.26532103449E+02  0.00000000000E+00 0.  1.
         12    1    6    6    0    0 -0.41096065749E+01  0.91518836013E+02  0.11054016461E+03  0.14356780351E+03  0.00000000000E+00 0. -1.
         -5    1    3    3    0  503  0.95346624496E+01 -0.71807443401E+02 -0.99999199242E+02  0.12356839630E+03  0.47000000000E+01 0.  1.
         13    1    4    4    0    0  0.35631554550E+02  0.37647285627E+02 -0.23339047953E+02  0.56847488547E+02  0.00000000000E+00 0. -1.
        -14    1    4    4    0    0 -0.24183285091E+02 -0.43131792154E+00  0.19016543521E+02  0.30767616750E+02  0.00000000000E+00 0.  1.
</event>
<event>
12    1  0.1594900E-001  0.1965253E+03  0.7818608E-02  0.1153403E+00
         21   -1    0    0  503  502  0.00000000000E+00  0.00000000000E+00  0.48589493424E+02  0.48589493424E+02  0.00000000000E+00 0.  1.
         21   -1    0    0  501  503 -0.00000000000E+00 -0.00000000000E+00 -0.90042630260E+03  0.90042630260E+03  0.00000000000E+00 0.  1.
          6    2    1    2  501    0 -0.38845227825E+02  0.80002859053E+02 -0.59499717977E+03  0.62561386699E+03  0.17164398463E+03 0.  0.
         24    2    3    3    0    0 -0.41085318981E+02 -0.93181454610E+01 -0.18570795771E+03  0.20665919504E+03  0.80285403830E+02 0.  0.
         -6    2    1    2    0  502  0.38845227825E+02 -0.80002859053E+02 -0.25683962941E+03  0.32340192903E+03  0.17525068698E+03 0.  0.
        -24    2    5    5    0    0 -0.25682031284E+02 -0.26853862014E+02 -0.50319812894E+02  0.10055420598E+03  0.78729715709E+02 0.  0.
          5    1    3    3  501    0  0.22400911560E+01  0.89321004514E+02 -0.40928922206E+03  0.41895467195E+03  0.47000000000E+01 0. -1.
        -11    1    4    4    0    0 -0.37178781140E+02  0.26127819528E+02 -0.14773963093E+03  0.15457012411E+03  0.00000000000E+00 0.  1.
         12    1    4    4    0    0 -0.39065378406E+01 -0.35445964989E+02 -0.37968326776E+02  0.52089070928E+02  0.00000000000E+00 0. -1.
         -5    1    5    5    0  502  0.64527259108E+02 -0.53148997039E+02 -0.20651981651E+03  0.22284772305E+03  0.47000000000E+01 0.  1.
         13    1    6    6    0    0 -0.18590305114E+02 -0.45243503490E+02 -0.60958193838E+02  0.78156736423E+02  0.00000000000E+00 0. -1.
        -14    1    6    6    0    0 -0.70917261693E+01  0.18389641476E+02  0.10638380943E+02  0.22397469562E+02  0.00000000000E+00 0.  1.
</event>
<event>
12    1  0.1594900E-001  0.1731748E+03  0.7818608E-02  0.1174861E+00
         21   -1    0    0  501  502  0.00000000000E+00  0.00000000000E+00  0.66953798421E+02  0.66953798421E+02  0.00000000000E+00 0. -1.
         21   -1    0    0  502  503 -0.00000000000E+00 -0.00000000000E+00 -0.97950098763E+03  0.97950098763E+03  0.00000000000E+00 0. -1.
         -6    2    1    2    0  503 -0.15366877694E+02  0.12039310465E+02 -0.84210189478E+03  0.85950015191E+03  0.17094977047E+03 0.  0.
        -24    2    3    3    0    0 -0.26485233298E+02 -0.12574004517E+02 -0.20440582861E+03  0.22121510907E+03  0.79339829469E+02 0.  0.
          6    2    1    2  501    0  0.15366877694E+02 -0.12039310465E+02 -0.70445294428E+02  0.18695463413E+03  0.17207094406E+03 0.  0.
         24    2    5    5    0    0 -0.16439224737E+02 -0.68471100893E+02 -0.33296458305E+02  0.11213283819E+03  0.80663371477E+02 0.  0.
          5    1    5    5  501    0  0.31806102431E+02  0.56431790428E+02 -0.37148836123E+02  0.74821795942E+02  0.47000000000E+01 0. -1.
        -11    1    6    6    0    0 -0.43580900947E+02 -0.18529395527E+02 -0.28074859905E+02  0.55052985248E+02  0.00000000000E+00 0.  1.
         12    1    6    6    0    0  0.27141676211E+02 -0.49941705366E+02 -0.52215983996E+01  0.57079852945E+02  0.00000000000E+00 0. -1.
         -5    1    3    3    0  503  0.11118355604E+02  0.24613314982E+02 -0.63769606617E+03  0.63828504284E+03  0.47000000000E+01 0.  1.
         13    1    4    4    0    0 -0.17425451002E+02 -0.28665434422E+02 -0.19923335221E+03  0.20203782345E+03  0.00000000000E+00 0. -1.
        -14    1    4    4    0    0 -0.90597822959E+01  0.16091429905E+02 -0.51724764006E+01  0.19177285620E+02  0.00000000000E+00 0.  1.
</event>
<event>
12    1  0.1594900E-001  0.1741799E+03  0.7818608E-02  0.1173720E+00
         21   -1    0    0  503  502  0.00000000000E+00  0.00000000000E+00  0.42630571666E+03  0.42630571666E+03  0.00000000000E+00 0.  1.
         21   -1    0    0  501  503 -0.00000000000E+00 -0.00000000000E+00 -0.12861926291E+03  0.12861926291E+03  0.00000000000E+00 0.  1.
          6    2    1    2  501    0  0.21096869314E+02 -0.11337197439E+02 -0.37170873854E+02  0.17747556608E+03  0.17187871524E+03 0.  0.
         24    2    3    3    0    0  0.45598270882E+02 -0.40629726317E+02 -0.72712000664E+02  0.12509586942E+03  0.81436874561E+02 0.  0.
         -6    2    1    2    0  502 -0.21096869314E+02  0.11337197439E+02  0.33485732760E+03  0.37744941348E+03  0.17252541827E+03 0.  0.
        -24    2    5    5    0    0 -0.44806888413E+01  0.66699316269E+02  0.14414485755E+03  0.17811452469E+03  0.80487070920E+02 0.  0.
          5    1    3    3  501    0 -0.24501401568E+02  0.29292528878E+02  0.35541126811E+02  0.52379696657E+02  0.47000000000E+01 0. -1.
        -13    1    4    4    0    0  0.11436864259E+02  0.10634679713E+02 -0.60253857223E+02  0.62244884022E+02  0.00000000000E+00 0.  1.
         14    1    4    4    0    0  0.34161406623E+02 -0.51264406029E+02 -0.12458143441E+02  0.62850985402E+02  0.00000000000E+00 0. -1.
         -5    1    5    5    0  502 -0.16616180472E+02 -0.55362118830E+02  0.19071247005E+03  0.19933488879E+03  0.47000000000E+01 0.  1.
         11    1    6    6    0    0  0.19547201533E+02 -0.90583926511E+01  0.52846420467E+02  0.57069183641E+02  0.00000000000E+00 0. -1.
        -12    1    6    6    0    0 -0.24027890375E+02  0.75757708920E+02  0.91298437082E+02  0.12104534105E+03  0.00000000000E+00 0.  1.
</event>
<event>
12    1  0.1594900E-001  0.1728020E+03  0.7818608E-02  0.1176659E+00
         21   -1    0    0  501  502  0.00000000000E+00  0.00000000000E+00  0.41830249204E+02  0.41830249204E+02  0.00000000000E+00 0.  1.
         21   -1    0    0  502  503 -0.00000000000E+00 -0.00000000000E+00 -0.76414352360E+03  0.76414352360E+03  0.00000000000E+00 0.  1.
         -6    2    1    2    0  503  0.18071015620E+02  0.41712207385E+01 -0.49533676212E+03  0.52461323512E+03  0.17180389363E+03 0.  0.
        -24    2    3    3    0    0 -0.28528711619E+02  0.34742299604E+02 -0.42466372172E+03  0.43448613553E+03  0.80112487476E+02 0.  0.
          6    2    1    2  501    0 -0.18071015620E+02 -0.41712207385E+01 -0.22697651227E+03  0.28136053768E+03  0.16523151743E+03 0.  0.
         24    2    5    5    0    0 -0.54660379904E+02  0.42762467720E+02 -0.12998835285E+03  0.16747311186E+03  0.79585711936E+02 0.  0.
          5    1    5    5  501    0  0.36589364284E+02 -0.46933688458E+02 -0.96988159425E+02  0.11388742582E+03  0.47000000000E+01 0. -1.
        -13    1    6    6    0    0  0.31746189817E+01  0.19167897696E+02 -0.92727260763E+02  0.94740864448E+02  0.00000000000E+00 0.  1.
         14    1    6    6    0    0 -0.57834998886E+02  0.23594570024E+02 -0.37261092084E+02  0.72732247415E+02  0.00000000000E+00 0. -1.
         -5    1    3    3    0  503  0.46599727240E+02 -0.30571078865E+02 -0.70673040399E+02  0.90127099593E+02  0.47000000000E+01 0.  1.
         11    1    4    4    0    0 -0.35393782100E+02  0.40350456045E+02 -0.14392615031E+03  0.15360864513E+03  0.00000000000E+00 0. -1.
        -12    1    4    4    0    0  0.68650704811E+01 -0.56081564408E+01 -0.28073757141E+03  0.28087749040E+03  0.00000000000E+00 0.  1.
</event>
<event>
12    1  0.1594900E-001  0.1995569E+03  0.7818608E-02  0.1150153E+00
         21   -1    0    0  503  502  0.00000000000E+00  0.00000000000E+00  0.75308059142E+02  0.75308059142E+02  0.00000000000E+00 0. -1.
         21   -1    0    0  501  503 -0.00000000000E+00 -0.00000000000E+00 -0.62159755506E+03  0.62159755506E+03  0.00000000000E+00 0.  1.
          6    2    1    2  501    0  0.54120971595E+02 -0.85920616919E+02 -0.13826126092E+03  0.24277386075E+03  0.17178922905E+03 0.  0.
         24    2    3    3    0    0 -0.71341793348E+01 -0.10223966655E+03 -0.11928407731E+03  0.17643587470E+03  0.79981753232E+02 0.  0.
         -6    2    1    2    0  502 -0.54120971595E+02  0.85920616919E+02 -0.40802823500E+03  0.45413175345E+03  0.17157265795E+03 0.  0.
        -24    2    5    5    0    0  0.35611935742E+02  0.54925885971E+02 -0.22566351081E+03  0.24848241444E+03  0.80835804309E+02 0.  0.
          5    1    3    3  501    0  0.61255150930E+02  0.16319049629E+02 -0.18977183610E+02  0.66337986056E+02  0.47000000000E+01 0. -1.
        -13    1    4    4    0    0  0.31986713874E+02 -0.61923364538E+02 -0.43708476959E+02  0.82268365112E+02  0.00000000000E+00 0.  1.
         14    1    4    4    0    0 -0.39120893209E+02 -0.40316302010E+02 -0.75575600349E+02  0.94167509584E+02  0.00000000000E+00 0. -1.
         -5    1    5    5    0  502 -0.89732907337E+02  0.30994730948E+02 -0.18236472418E+03  0.20564933900E+03  0.47000000000E+01 0.  1.
         11    1    6    6    0    0 -0.15112769807E+02  0.40410822902E+02 -0.15110881242E+03  0.15714739453E+03  0.00000000000E+00 0. -1.
        -12    1    6    6    0    0  0.50724705549E+02  0.14515063069E+02 -0.74554698397E+02  0.91335019910E+02  0.00000000000E+00 0.  1.
</event>
<event>
12    1  0.1594900E-001  0.1735621E+03  0.7818608E-02  0.1174356E+00
         21   -1    0    0  501  502  0.00000000000E+00  0.00000000000E+00  0.11474722413E+03  0.11474722413E+03  0.00000000000E+00 0.  1.
         21   -1    0    0  502  503 -0.00000000000E+00 -0.00000000000E+00 -0.26164548391E+03  0.26164548391E+03  0.00000000000E+00 0.  1.
         -6    2    1    2    0  503  0.99358944050E+00 -0.24260085972E+02 -0.68829045419E+02  0.18608082932E+03  0.17116979452E+03 0.  0.
        -24    2    3    3    0    0 -0.33830331823E+02  0.89972075769E+00  0.19776522360E+02  0.87497067934E+02  0.78226115919E+02 0.  0.
          6    2    1    2  501    0 -0.99358944050E+00  0.24260085972E+02 -0.78069214363E+02  0.19031187873E+03  0.17185537513E+03 0.  0.
         24    2    5    5    0    0 -0.31467093104E+02  0.72542859928E+02 -0.35773489896E+02  0.11910177415E+03  0.81564977476E+02 0.  0.
          5    1    5    5  501    0  0.30473503664E+02 -0.48282773956E+02 -0.42295724467E+02  0.71210104582E+02  0.47000000000E+01 0. -1.
        -11    1    6    6    0    0 -0.57449640886E+01  0.73104353984E+02 -0.50892818829E+02  0.89259902488E+02  0.00000000000E+00 0.  1.
         12    1    6    6    0    0 -0.25722129016E+02 -0.56149405691E+00  0.15119328933E+02  0.29841871658E+02  0.00000000000E+00 0. -1.
         -5    1    3    3    0  503  0.34823921263E+02 -0.25159806730E+02 -0.88605567779E+02  0.98583761382E+02  0.47000000000E+01 0.  1.
         11    1    4    4    0    0 -0.57533283007E+02  0.11784322829E+02  0.96385490754E+01  0.59513448450E+02  0.00000000000E+00 0. -1.
        -12    1    4    4    0    0  0.23702951185E+02 -0.10884602072E+02  0.10137973285E+02  0.27983619484E+02  0.00000000000E+00 0.  1.
</event>
<event>
12    1  0.1594900E-001  0.2663770E+03  0.7818608E-02  0.1103453E+00
         21   -1    0    0  501  502  0.00000000000E+00  0.00000000000E+00  0.58375548523E+03  0.58375548523E+03  0.00000000000E+00 0.  1.
         21   -1    0    0  502  503 -0.00000000000E+00 -0.00000000000E+00 -0.12865140913E+03  0.12865140913E+03  0.00000000000E+00 0. -1.
         -6    2    1    2    0  503  0.18837234771E+03  0.76801570545E+02  0.14260254249E+03  0.30214600025E+03  0.17197121191E+03 0.  0.
        -24    2    3    3    0    0  0.46750139859E+02  0.84193533350E+02  0.76733307581E+02  0.14570963307E+03  0.77904878170E+02 0.  0.
          6    2    1    2  501    0 -0.18837234771E+03 -0.76801570545E+02  0.31250153361E+03  0.41026089411E+03  0.17109696113E+03 0.  0.
         24    2    5    5    0    0 -0.20179214201E+02 -0.43655571482E+01  0.97883183009E+02  0.12809244688E+03  0.80001866590E+02 0.  0.
          5    1    5    5  501    0 -0.16819313351E+03 -0.72436013396E+02  0.21461835060E+03  0.28216844722E+03  0.47000000000E+01 0. -1.
        -11    1    6    6    0    0 -0.19183050463E+02  0.35678954578E+02  0.63405046920E+02  0.75240794785E+02  0.00000000000E+00 0.  1.
         12    1    6    6    0    0 -0.99616373814E+00 -0.40044511726E+02  0.34478136088E+02  0.52851652100E+02  0.00000000000E+00 0. -1.
         -5    1    3    3    0  503  0.14162220785E+03 -0.73919628052E+01  0.65869234909E+02  0.15643636718E+03  0.47000000000E+01 0.  1.
         13    1    4    4    0    0  0.54168440461E+02  0.56757259315E+02  0.18051740272E+02  0.80507588175E+02  0.00000000000E+00 0. -1.
        -14    1    4    4    0    0 -0.74183006025E+01  0.27436274035E+02  0.58681567309E+02  0.65202044896E+02  0.00000000000E+00 0.  1.
</event>
<event>
12    1  0.1594900E-001  0.2422449E+03  0.7818608E-02  0.1118906E+00
         21   -1    0    0  503  502  0.00000000000E+00  0.00000000000E+00  0.34670536619E+02  0.34670536619E+02  0.00000000000E+00 0. -1.
         21   -1    0    0  501  503 -0.00000000000E+00 -0.00000000000E+00 -0.19507395186E+04  0.19507395186E+04  0.00000000000E+00 0. -1.
          6    2    1    2  501    0 -0.14008584746E+03 -0.85055283724E+02 -0.13425027196E+04  0.13641833250E+04  0.17839323505E+03 0.  0.
         24    2    3    3    0    0 -0.13336687113E+03 -0.21056602918E+02 -0.11589142076E+04  0.11695868001E+04  0.81369770614E+02 0.  0.
         -6    2    1    2    0  502  0.14008584746E+03  0.85055283724E+02 -0.57356626239E+03  0.62122673015E+03  0.17345301083E+03 0.  0.
        -24    2    5    5    0    0  0.76163925370E+02  0.40027822271E+02 -0.49984532323E+03  0.51366116281E+03  0.81235909192E+02 0.  0.
          5    1    3    3  501    0 -0.67189763230E+01 -0.63998680805E+02 -0.18358851200E+03  0.19459652496E+03  0.47000000000E+01 0. -1.
        -11    1    4    4    0    0  0.78258581049E+01 -0.93408350976E+01 -0.18746725800E+03  0.18786289702E+03  0.00000000000E+00 0.  1.
         12    1    4    4    0    0 -0.14119272924E+03 -0.11715767821E+02 -0.97144694957E+03  0.98172390306E+03  0.00000000000E+00 0. -1.
         -5    1    5    5    0  502  0.63921922087E+02  0.45027461452E+02 -0.73720939158E+02  0.10756556735E+03  0.47000000000E+01 0.  1.
         13    1    6    6    0    0  0.72659540319E+01  0.48277205607E+02 -0.19509308373E+03  0.20110891076E+03  0.00000000000E+00 0. -1.
        -14    1    6    6    0    0  0.68897971338E+02 -0.82493833356E+01 -0.30475223950E+03  0.31255225205E+03  0.00000000000E+00 0.  1.
</event>
<event>
12    1  0.1594900E-001  0.2691425E+03  0.7818608E-02  0.1101986E+00
         21   -1    0    0  503  502  0.00000000000E+00  0.00000000000E+00  0.88197750926E+03  0.88197750926E+03  0.00000000000E+00 0. -1.
         21   -1    0    0  501  503 -0.00000000000E+00 -0.00000000000E+00 -0.10075607436E+03  0.10075607436E+03  0.00000000000E+00 0. -1.
          6    2    1    2  501    0 -0.11050553485E+03  0.17228667553E+03  0.17766698801E+03  0.32249537221E+03  0.17476708690E+03 0.  0.
         24    2    3    3    0    0  0.13102198158E+02  0.57604400155E+02  0.79232140349E+02  0.12719456529E+03  0.80067414484E+02 0.  0.
         -6    2    1    2    0  502  0.11050553485E+03 -0.17228667553E+03  0.60355444689E+03  0.66023821141E+03  0.17245971602E+03 0.  0.
        -24    2    5    5    0    0  0.25734112604E+02 -0.15005898444E+03  0.31028755983E+03  0.35412087880E+03  0.77092695194E+02 0.  0.
          5    1    3    3  501    0 -0.12360773301E+03  0.11468227538E+03  0.98434847665E+02  0.19530080691E+03  0.47000000000E+01 0. -1.
        -11    1    4    4    0    0 -0.29154743453E+02  0.63314043683E+01  0.40449264547E+02  0.50261603133E+02  0.00000000000E+00 0.  1.
         12    1    4    4    0    0  0.42256941612E+02  0.51272995787E+02  0.38782875801E+02  0.76932962160E+02  0.00000000000E+00 0. -1.
         -5    1    5    5    0  502  0.84771422246E+02 -0.22227691094E+02  0.29326688706E+03  0.30611733261E+03  0.47000000000E+01 0.  1.
         13    1    6    6    0    0  0.39923738053E+02 -0.31100690640E+02  0.83645894834E+02  0.97763968521E+02  0.00000000000E+00 0. -1.
        -14    1    6    6    0    0 -0.14189625449E+02 -0.11895829380E+03  0.22664166499E+03  0.25635691027E+03  0.00000000000E+00 0.  1.
</event>
<event>
12    1  0.1594900E-001  0.1991371E+03  0.7818608E-02  0.1150639E+00
         21   -1    0    0  501  502  0.00000000000E+00  0.00000000000E+00  0.16811806987E+03  0.16811806987E+03  0.00000000000E+00 0. -1.
         21   -1    0    0  502  503 -0.00000000000E+00 -0.00000000000E+00 -0.38675895879E+03  0.38675895879E+03  0.00000000000E+00 0. -1.
         -6    2    1    2    0  503  0.65503298150E+02  0.76683330017E+02 -0.28328321668E+03  0.34627298952E+03  0.17171076624E+03 0.  0.
        -24    2    3    3    0    0  0.49670193988E+02  0.11721313414E+03 -0.18555379132E+03  0.23919132539E+03  0.81093980555E+02 0.  0.
          6    2    1    2  501    0 -0.65503298150E+02 -0.76683330017E+02  0.64642327764E+02  0.20860403915E+03  0.17078055932E+03 0.  0.
         24    2    5    5    0    0 -0.11043517521E+03 -0.66216042260E+02  0.53115935018E+02  0.16081925685E+03  0.80380586247E+02 0.  0.
          5    1    5    5  501    0  0.44931877065E+02 -0.10467287757E+02  0.11526392746E+02  0.47784782298E+02  0.47000000000E+01 0. -1.
        -11    1    6    6    0    0 -0.82177939615E+02 -0.81527514798E+02  0.25703134164E+02  0.11857740314E+03  0.00000000000E+00 0.  1.
         12    1    6    6    0    0 -0.28257235599E+02  0.15311472538E+02  0.27412800854E+02  0.42241853719E+02  0.00000000000E+00 0. -1.
         -5    1    3    3    0  503  0.15833104162E+02 -0.40529804127E+02 -0.97729425363E+02  0.10708166412E+03  0.47000000000E+01 0.  1.
         11    1    4    4    0    0  0.14658686923E+02  0.55476612276E+02 -0.14834490500E+03  0.15905578408E+03  0.00000000000E+00 0. -1.
        -12    1    4    4    0    0  0.35011507065E+02  0.61736521868E+02 -0.37208886325E+02  0.80135541309E+02  0.00000000000E+00 0.  1.
</event>
<event>
12    1  0.1594900E-001  0.2322533E+03  0.7818608E-02  0.1125467E+00
         21   -1    0    0  501  502  0.00000000000E+00  0.00000000000E+00  0.66376898706E+03  0.66376898706E+03  0.00000000000E+00 0.  1.
         21   -1    0    0  502  503 -0.00000000000E+00 -0.00000000000E+00 -0.81507649029E+02  0.81507649029E+02  0.00000000000E+00 0.  1.
         -6    2    1    2    0  503 -0.79527452799E+02  0.12774819979E+03  0.33483361005E+03  0.40749864245E+03  0.17691065227E+03 0.  0.
        -24    2    3    3    0    0 -0.88526906357E+02  0.15638084825E+03  0.25696933351E+03  0.32391781760E+03  0.81225189110E+02 0.  0.
          6    2    1    2  501    0  0.79527452799E+02 -0.12774819979E+03  0.24742772798E+03  0.33777799363E+03  0.17386567836E+03 0.  0.
         24    2    5    5    0    0  0.64640828950E+02 -0.14940129993E+03  0.25198285480E+03  0.31069834268E+03  0.80863563151E+02 0.  0.
          5    1    5    5  501    0  0.14886623849E+02  0.21653100140E+02 -0.45551268152E+01  0.27079650951E+02  0.47000000000E+01 0. -1.
        -11    1    6    6    0    0  0.59056369314E+01 -0.96162279906E+02  0.97540804928E+02  0.13709948669E+03  0.00000000000E+00 0.  1.
         12    1    6    6    0    0  0.58735192018E+02 -0.53239020026E+02  0.15444204987E+03  0.17359885599E+03  0.00000000000E+00 0. -1.
         -5    1    3    3    0  503  0.89994535580E+01 -0.28632648461E+02  0.77864276536E+02  0.83580824850E+02  0.47000000000E+01 0.  1.
         11    1    4    4    0    0 -0.92746281025E+01  0.98811535172E+02  0.13029947355E+03  0.16379160851E+03  0.00000000000E+00 0. -1.
        -12    1    4    4    0    0 -0.79252278254E+02  0.57569313080E+02  0.12666985996E+03  0.16012620909E+03  0.00000000000E+00 0.  1.
</event>
<event>
12    1  0.1594900E-001  0.4038504E+03  0.7818608E-02  0.1042595E+00
         21   -1    0    0  501  502  0.00000000000E+00  0.00000000000E+00  0.55108668185E+02  0.55108668185E+02  0.00000000000E+00 0.  1.
         21   -1    0    0  502  503 -0.00000000000E+00 -0.00000000000E+00 -0.29500118065E+04  0.29500118065E+04  0.00000000000E+00 0. -1.
         -6    2    1    2    0  503  0.31959729416E+03  0.17307532177E+03 -0.14880563233E+04  0.15414562128E+04  0.17227343712E+03 0.  0.
        -24    2    3    3    0    0  0.17790599751E+03  0.88928980793E+02 -0.57897977913E+03  0.61755184358E+03  0.81202138483E+02 0.  0.
          6    2    1    2  501    0 -0.31959729416E+03 -0.17307532177E+03 -0.14068468150E+04  0.14636642619E+04  0.17606139055E+03 0.  0.
         24    2    5    5    0    0 -0.30455184208E+03 -0.12562239049E+03 -0.13243172383E+04  0.13671688354E+04  0.82472220560E+02 0.  0.
          5    1    5    5  501    0 -0.15045452081E+02 -0.47452931282E+02 -0.82529576673E+02  0.96495426531E+02  0.47000000000E+01 0. -1.
        -11    1    6    6    0    0 -0.53610888412E+02  0.30768520336E+01 -0.29847020522E+03  0.30326235800E+03  0.00000000000E+00 0.  1.
         12    1    6    6    0    0 -0.25094095367E+03 -0.12869924252E+03 -0.10258470331E+04  0.10639064774E+04  0.00000000000E+00 0. -1.
         -5    1    3    3    0  503  0.14169129665E+03  0.84146340976E+02 -0.90907654419E+03  0.92390436921E+03  0.47000000000E+01 0.  1.
         11    1    4    4    0    0  0.48185232612E+02  0.67719490736E+02 -0.23968516447E+03  0.25368627108E+03  0.00000000000E+00 0. -1.
        -12    1    4    4    0    0  0.12972076490E+03  0.21209490057E+02 -0.33929461466E+03  0.36386557250E+03  0.00000000000E+00 0.  1.
</event>
<event>
12    1  0.1594900E-001  0.2323698E+03  0.7818608E-02  0.1125175E+00
         21   -1    0    0  503  502  0.00000000000E+00  0.00000000000E+00  0.62928797247E+03  0.62928797247E+03  0.00000000000E+00 0.  1.
         21   -1    0    0  501  503 -0.00000000000E+00 -0.00000000000E+00 -0.85856296639E+02  0.85856296639E+02  0.00000000000E+00 0.  1.
          6    2    1    2  501    0 -0.15603205666E+03 -0.64090254025E+01  0.24621290634E+03  0.33855063570E+03  0.17207166928E+03 0.  0.
         24    2    3    3    0    0 -0.13288492693E+03  0.42560253712E+02  0.11644294170E+03  0.19785197318E+03  0.78209114679E+02 0.  0.
         -6    2    1    2    0  502  0.15603205666E+03  0.64090254025E+01  0.29721876948E+03  0.37659363340E+03  0.17057751749E+03 0.  0.
        -24    2    5    5    0    0  0.18561352895E+02 -0.23111235485E+02  0.73133227017E+02  0.11200704920E+03  0.79488723414E+02 0.  0.
          5    1    3    3  501    0 -0.23147129737E+02 -0.48969279114E+02  0.12976996464E+03  0.14069866252E+03  0.47000000000E+01 0. -1.
        -11    1    4    4    0    0 -0.83950883436E+02  0.42500517005E+01  0.10526326321E+03  0.13470771452E+03  0.00000000000E+00 0.  1.
         12    1    4    4    0    0 -0.48934043491E+02  0.38310202011E+02  0.11179678489E+02  0.63144258659E+02  0.00000000000E+00 0. -1.
         -5    1    5    5    0  502  0.13747070377E+03  0.29520260887E+02  0.22408554247E+03  0.26458658420E+03  0.47000000000E+01 0.  1.
         13    1    6    6    0    0 -0.21646973467E+02  0.14039644518E+02  0.41252316908E+02  0.48656517844E+02  0.00000000000E+00 0. -1.
        -14    1    6    6    0    0  0.40208326363E+02 -0.37150880002E+02  0.31880910110E+02  0.63350531357E+02  0.00000000000E+00 0.  1.
</event>
<event>
12    1  0.1594900E-001  0.1978707E+03  0.7818608E-02  0.1151724E+00
         21   -1    0    0  503  502  0.00000000000E+00  0.00000000000E+00  0.13599930664E+04  0.13599930664E+04  0.00000000000E+00 0. -1.
         21   -1    0    0  501  503 -0.00000000000E+00 -0.00000000000E+00 -0.99670814693E+02  0.99670814693E+02  0.00000000000E+00 0.  1.
          6    2    1    2  501    0  0.47953732717E+02 -0.83745440860E+02  0.13796138923E+02  0.19753069624E+03  0.17179983458E+03 0.  0.
         24    2    3    3    0    0 -0.12419424276E+02 -0.99829582637E+02  0.37014421773E+02  0.13071156455E+03  0.74801457329E+02 0.  0.
         -6    2    1    2    0  502 -0.47953732717E+02  0.83745440860E+02  0.12465261128E+04  0.12621331849E+04  0.17274248784E+03 0.  0.
        -24    2    5    5    0    0 -0.27675501699E+02  0.22186746681E+02  0.10780642690E+04  0.10815724962E+04  0.79487805899E+02 0.  0.
          5    1    3    3  501    0  0.60373156992E+02  0.16084141776E+02 -0.23218282849E+02  0.66819131694E+02  0.47000000000E+01 0. -1.
        -11    1    4    4    0    0  0.13578747586E+01 -0.86369819804E+02  0.56576079551E+02  0.10325910311E+03  0.00000000000E+00 0.  1.
         12    1    4    4    0    0 -0.13777299034E+02 -0.13459762832E+02 -0.19561657778E+02  0.27452461442E+02  0.00000000000E+00 0. -1.
         -5    1    5    5    0  502 -0.20278231018E+02  0.61558694179E+02  0.16846184385E+03  0.18056068873E+03  0.47000000000E+01 0.  1.
         13    1    6    6    0    0 -0.32432170936E+02  0.32675804187E+02  0.10528082143E+04  0.10538143527E+04  0.00000000000E+00 0. -1.
        -14    1    6    6    0    0  0.47566692370E+01 -0.10489057506E+02  0.25256054641E+02  0.27758143411E+02  0.00000000000E+00 0.  1.
</event>
<event>
12    1  0.1594900E-001  0.2055438E+03  0.7818608E-02  0.1145163E+00
         21   -1    0    0  503  502  0.00000000000E+00  0.00000000000E+00  0.16876805081E+03  0.16876805081E+03  0.00000000000E+00 0. -1.
         21   -1    0    0  501  503 -0.00000000000E+00 -0.00000000000E+00 -0.25096692509E+03  0.25096692509E+03  0.00000000000E+00 0. -1.
          6    2    1    2  501    0  0.11176001038E+03  0.10182583640E+02 -0.29625602006E+02  0.20757422961E+03  0.17209125362E+03 0.  0.
         24    2    3    3    0    0  0.54878902072E+02 -0.55585917465E+02 -0.38315638286E+02  0.12006101375E+03  0.82734942871E+02 0.  0.
         -6    2    1    2    0  502 -0.11176001038E+03 -0.10182583640E+02 -0.52573272273E+02  0.21216074630E+03  0.17220408933E+03 0.  0.
        -24    2    5    5    0    0 -0.67229299052E+02 -0.72617229102E+02 -0.17816273673E+02  0.12783276662E+03  0.78935137932E+02 0.  0.
          5    1    3    3  501    0  0.56881108306E+02  0.65768501104E+02  0.86900362796E+01  0.87513215860E+02  0.47000000000E+01 0. -1.
        -11    1    4    4    0    0  0.53148171505E+02 -0.54143713417E+02  0.56104015359E+01  0.76077239976E+02  0.00000000000E+00 0.  1.
         12    1    4    4    0    0  0.17307305664E+01 -0.14422040478E+01 -0.43926039822E+02  0.43983773772E+02  0.00000000000E+00 0. -1.
         -5    1    5    5    0  502 -0.44530711326E+02  0.62434645463E+02 -0.34756998601E+02  0.84327979680E+02  0.47000000000E+01 0.  1.
         11    1    6    6    0    0 -0.42182317349E+02 -0.12281020989E+01 -0.29211129110E+02  0.51323933945E+02  0.00000000000E+00 0. -1.
        -12    1    6    6    0    0 -0.25046981703E+02 -0.71389127003E+02  0.11394855437E+02  0.76508832674E+02  0.00000000000E+00 0.  1.
</event>
<event>
12    1  0.1594900E-001  0.3223413E+03  0.7818608E-02  0.1075631E+00
         21   -1    0    0  503  502  0.00000000000E+00  0.00000000000E+00  0.47802540095E+03  0.47802540095E+03  0.00000000000E+00 0.  1.
         21   -1    0    0  501  503 -0.00000000000E+00 -0.00000000000E+00 -0.25492128932E+03  0.25492128932E+03  0.00000000000E+00 0.  1.
          6    2    1    2  501    0  0.20666755407E+03  0.15883772688E+03 -0.41420219938E+02  0.31596101141E+03  0.17370902316E+03 0.  0.
         24    2    3    3    0    0  0.15031336709E+03  0.10529495368E+03  0.38990811801E+02  0.20402063899E+03  0.80143634397E+02 0.  0.
         -6    2    1    2    0  502 -0.20666755407E+03 -0.15883772688E+03  0.26452433157E+03  0.41698567885E+03  0.18963921798E+03 0.  0.
        -24    2    5    5    0    0 -0.23668613125E+03 -0.13559947957E+03  0.22788500689E+03  0.36401718607E+03  0.78545476040E+02 0.  0.
          5    1    3    3  501    0  0.56354186980E+02  0.53542773196E+02 -0.80411031739E+02  0.11194037242E+03  0.47000000000E+01 0. -1.
        -13    1    4    4    0    0  0.40910900205E+02  0.55038142746E+02 -0.17880487554E+02  0.70870379903E+02  0.00000000000E+00 0.  1.
         14    1    4    4    0    0  0.10940246688E+03  0.50256810937E+02  0.56871299355E+02  0.13315025909E+03  0.00000000000E+00 0. -1.
         -5    1    5    5    0  502  0.30018577187E+02 -0.23238247311E+02  0.36639324681E+02  0.52968492781E+02  0.47000000000E+01 0.  1.
         13    1    6    6    0    0 -0.17266313521E+02 -0.16993509739E+01 -0.40290548967E+01  0.17811419363E+02  0.00000000000E+00 0. -1.
        -14    1    6    6    0    0 -0.21941981773E+03 -0.13390012859E+03  0.23191406178E+03  0.34620576671E+03  0.00000000000E+00 0.  1.
</event>
<event>
12    1  0.1594900E-001  0.2006113E+03  0.7818608E-02  0.1149255E+00
         21   -1    0    0  503  502  0.00000000000E+00  0.00000000000E+00  0.29992105439E+04  0.29992105439E+04  0.00000000000E+00 0. -1.
         21   -1    0    0  501  503 -0.00000000000E+00 -0.00000000000E+00 -0.14505712187E+02  0.14505712187E+02  0.00000000000E+00 0. -1.
          6    2    1    2  501    0  0.96290665492E+02  0.36445512853E+02  0.10774334566E+04  0.10959235188E+04  0.17200388903E+03 0.  0.
         24    2    3    3    0    0  0.14367106491E+02  0.18776911838E+02  0.84456732030E+03  0.84839094226E+03  0.76904136561E+02 0.  0.
         -6    2    1    2    0  502 -0.96290665492E+02 -0.36445512853E+02  0.19072713751E+04  0.19177927374E+04  0.17217641376E+03 0.  0.
        -24    2    5    5    0    0 -0.60224205848E+02 -0.37049211930E+01  0.51630741367E+03  0.52596819098E+03  0.80177996374E+02 0.  0.
          5    1    3    3  501    0  0.81923559001E+02  0.17668601015E+02  0.23286613633E+03  0.24753257650E+03  0.47000000000E+01 0. -1.
        -11    1    4    4    0    0  0.10524545656E+02 -0.23143465023E+02  0.12317807935E+03  0.12577450165E+03  0.00000000000E+00 0.  1.
         12    1    4    4    0    0  0.38425608349E+01  0.41920376860E+02  0.72138924095E+03  0.72261644060E+03  0.00000000000E+00 0. -1.
         -5    1    5    5    0  502 -0.36066459644E+02 -0.32740591660E+02  0.13909639615E+04  0.13918245464E+04  0.47000000000E+01 0.  1.
         11    1    6    6    0    0 -0.32433670292E+02 -0.39355905523E+02  0.34711877075E+03  0.35084508159E+03  0.00000000000E+00 0. -1.
        -12    1    6    6    0    0 -0.27790535556E+02  0.35650984330E+02  0.16918864292E+03  0.17512310939E+03  0.00000000000E+00 0.  1.
</event>
<event>
12    1  0.1594900E-001  0.1803997E+03  0.7818608E-02  0.1167910E+00
         21   -1    0    0  501  502  0.00000000000E+00  0.00000000000E+00  0.25206700705E+03  0.25206700705E+03  0.00000000000E+00 0. -1.
         21   -1    0    0  502  503 -0.00000000000E+00 -0.00000000000E+00 -0.17061899148E+03  0.17061899148E+03  0.00000000000E+00 0. -1.
         -6    2    1    2    0  503 -0.33083627220E+02 -0.26614814660E+02 -0.65498300137E+02  0.19001181913E+03  0.17323853307E+03 0.  0.
        -24    2    3    3    0    0  0.49368574723E+02 -0.16441164212E+02 -0.37416200575E+02  0.10219061962E+03  0.79595116820E+02 0.  0.
          6    2    1    2  501    0  0.33083627220E+02  0.26614814660E+02  0.14694631571E+03  0.23267417940E+03  0.17533162666E+03 0.  0.
         24    2    5    5    0    0  0.38557635706E+02  0.73336910715E+02  0.51925602672E+02  0.12654244552E+03  0.80322652853E+02 0.  0.
          5    1    5    5  501    0 -0.54740084861E+01 -0.46722096055E+02  0.95020713039E+02  0.10613173387E+03  0.47000000000E+01 0. -1.
        -13    1    6    6    0    0  0.46604748454E+01  0.39338679423E+00 -0.18838329655E+02  0.19410240677E+02  0.00000000000E+00 0.  1.
         14    1    6    6    0    0  0.33897160861E+02  0.72943523921E+02  0.70763932327E+02  0.10713220484E+03  0.00000000000E+00 0. -1.
         -5    1    3    3    0  503 -0.82452201943E+02 -0.10173650448E+02 -0.28082099562E+02  0.87821199516E+02  0.47000000000E+01 0.  1.
         11    1    4    4    0    0 -0.86782691785E+01  0.18125224780E+02  0.70665046819E+01  0.21301915822E+02  0.00000000000E+00 0. -1.
        -12    1    4    4    0    0  0.58046843901E+02 -0.34566388992E+02 -0.44482705257E+02  0.80888703796E+02  0.00000000000E+00 0.  1.
</event>
<event>
12    1  0.1594900E-001  0.1873032E+03  0.7818608E-02  0.1165660E+00
         21   -1    0    0  503  502  0.00000000000E+00  0.00000000000E+00  0.73432646109E+03  0.73432646109E+03  0.00000000000E+00 0. -1.
         21   -1    0    0  501  503 -0.00000000000E+00 -0.00000000000E+00 -0.53762428807E+03  0.53762428807E+03  0.00000000000E+00 0. -1.
          6    2    1    2  501    0  0.42097032073E+02  0.59486681661E+02 -0.51205760328E+03  0.53885940858E+03  0.15118084444E+03 0.  0.
         24    2    3    3    0    0  0.34721050283E+02 -0.14538584351E+02 -0.35065841234E+03  0.36107883046E+03  0.77457587746E+02 0.  0.
         -6    2    1    2    0  502 -0.42097032073E+02 -0.59486681661E+02  0.70875977630E+03  0.73309134058E+03  0.17254468330E+03 0.  0.
        -24    2    5    5    0    0 -0.79985422394E+02 -0.17295118327E+02  0.30946145021E+03  0.32975909373E+03  0.79233085357E+02 0.  0.
          5    1    3    3  501    0  0.73759817901E+01  0.74025266012E+02 -0.16139919095E+03  0.17778057811E+03  0.47000000000E+01 0. -1.
        -11    1    4    4    0    0  0.59138353099E+02 -0.16542477251E+02 -0.23885277739E+03  0.24662045257E+03  0.00000000000E+00 0.  1.
         12    1    4    4    0    0 -0.24417302815E+02  0.20038928992E+01 -0.11180563494E+03  0.11445837789E+03  0.00000000000E+00 0. -1.
         -5    1    5    5    0  502  0.37888390320E+02 -0.42191563333E+02  0.39929832609E+03  0.40333224686E+03  0.47000000000E+01 0.  1.
         13    1    6    6    0    0 -0.80100381925E+02  0.12057932014E+02  0.25910853181E+03  0.27147503783E+03  0.00000000000E+00 0. -1.
        -14    1    6    6    0    0  0.11495953163E+00 -0.29353050341E+02  0.50352918401E+02  0.58284055895E+02  0.00000000000E+00 0.  1.
</event>
<event>
12    1  0.1594900E-001  0.2017231E+03  0.7818608E-02  0.1148345E+00
         21   -1    0    0  503  502  0.00000000000E+00  0.00000000000E+00  0.15708222698E+03  0.15708222698E+03  0.00000000000E+00 0.  1.
         21   -1    0    0  501  503 -0.00000000000E+00 -0.00000000000E+00 -0.78676035278E+03  0.78676035278E+03  0.00000000000E+00 0.  1.
          6    2    1    2  501    0  0.10531704308E+03 -0.48390888756E+01 -0.70138827049E+03  0.72975256529E+03  0.17169217866E+03 0.  0.
         24    2    3    3    0    0  0.13504926705E+03  0.22990799172E+02 -0.51135398686E+03  0.53534673521E+03  0.79663954494E+02 0.  0.
         -6    2    1    2    0  502 -0.10531704308E+03  0.48390888756E+01  0.71710144690E+02  0.21409001448E+03  0.17197992064E+03 0.  0.
        -24    2    5    5    0    0 -0.26923536859E+02 -0.52959689364E+02  0.13431383620E+02  0.10049096265E+03  0.79927629607E+02 0.  0.
          5    1    3    3  501    0 -0.29732223976E+02 -0.27829888047E+02 -0.19003428364E+03  0.19440583008E+03  0.47000000000E+01 0. -1.
        -13    1    4    4    0    0  0.32436137607E+02 -0.10273431254E+02 -0.25445457975E+03  0.25671926217E+03  0.00000000000E+00 0.  1.
         14    1    4    4    0    0  0.10261312945E+03  0.33264230426E+02 -0.25689940710E+03  0.27862747304E+03  0.00000000000E+00 0. -1.
         -5    1    5    5    0  502 -0.78393506217E+02  0.57798778240E+02  0.58278761070E+02  0.11359905182E+03  0.47000000000E+01 0.  1.
         11    1    6    6    0    0 -0.18880367577E+02 -0.38735520994E+02  0.46627822576E+02  0.63490650530E+02  0.00000000000E+00 0. -1.
        -12    1    6    6    0    0 -0.80431692818E+01 -0.14224168370E+02 -0.33196438956E+02  0.37000312124E+02  0.00000000000E+00 0.  1.
</event>
<event>
12    1  0.1594900E-001  0.1930792E+03  0.7818608E-02  0.1155801E+00
         21   -1    0    0  501  502  0.00000000000E+00  0.00000000000E+00  0.16010781759E+04  0.16010781759E+04  0.00000000000E+00 0. -1.
         21   -1    0    0  502  503 -0.00000000000E+00 -0.00000000000E+00 -0.23949950999E+02  0.23949950999E+02  0.00000000000E+00 0. -1.
         -6    2    1    2    0  503  0.21576971913E+02 -0.84597059248E+02  0.64905801347E+03  0.67716753599E+03  0.17221306224E+03 0.  0.
        -24    2    3    3    0    0 -0.44686105867E+02 -0.90398216024E+02  0.39151306584E+03  0.41113005941E+03  0.74677704241E+02 0.  0.
          6    2    1    2  501    0 -0.21576971913E+02  0.84597059248E+02  0.92807021147E+03  0.94786059095E+03  0.17176482263E+03 0.  0.
         24    2    5    5    0    0 -0.46378133596E+02 -0.21579824386E+01  0.37861078516E+03  0.39102193744E+03  0.86002562476E+02 0.  0.
          5    1    5    5  501    0  0.24801161684E+02  0.86755041687E+02  0.54945942631E+03  0.55683865351E+03  0.47000000000E+01 0. -1.
        -11    1    6    6    0    0  0.14147983410E+01 -0.37977436114E+02  0.14536732291E+03  0.15025293967E+03  0.00000000000E+00 0.  1.
         12    1    6    6    0    0 -0.47792931937E+02  0.35819453676E+02  0.23324346225E+03  0.24076899777E+03  0.00000000000E+00 0. -1.
         -5    1    3    3    0  503  0.66263077780E+02  0.58011567752E+01  0.25754494763E+03  0.26603747659E+03  0.47000000000E+01 0.  1.
         13    1    4    4    0    0 -0.15141839158E+02 -0.94453543230E+02  0.29858248431E+03  0.31353189161E+03  0.00000000000E+00 0. -1.
        -14    1    4    4    0    0 -0.29544266709E+02  0.40553272066E+01  0.92930581526E+02  0.97598167794E+02  0.00000000000E+00 0.  1.
</event>
<event>
12    1  0.1594900E-001  0.1781158E+03  0.7818608E-02  0.1169684E+00
         21   -1    0    0  503  502  0.00000000000E+00  0.00000000000E+00  0.64434115855E+03  0.64434115855E+03  0.00000000000E+00 0. -1.
         21   -1    0    0  501  503 -0.00000000000E+00 -0.00000000000E+00 -0.49325393732E+02  0.49325393732E+02  0.00000000000E+00 0. -1.
          6    2    1    2  501    0  0.18129322917E+02  0.43938195548E+02  0.27890055955E+03  0.33082491106E+03  0.17146533844E+03 0.  0.
         24    2    3    3    0    0  0.48776590024E+02  0.75520271140E+02  0.17642173224E+03  0.21919748376E+03  0.94023625718E+02 0.  0.
         -6    2    1    2    0  502 -0.18129322917E+02 -0.43938195548E+02  0.31611520527E+03  0.36284164121E+03  0.17165662301E+03 0.  0.
        -24    2    5    5    0    0  0.40944218238E+02  0.18372449838E+02  0.16981115278E+03  0.19313817759E+03  0.80327779214E+02 0.  0.
          5    1    3    3  501    0 -0.30647267107E+02 -0.31582075592E+02  0.10247882731E+03  0.11162742730E+03  0.47000000000E+01 0. -1.
        -13    1    4    4    0    0  0.24075747187E+02  0.94958482782E+02  0.12337604233E+03  0.15753857583E+03  0.00000000000E+00 0.  1.
         14    1    4    4    0    0  0.24700842836E+02 -0.19438211642E+02  0.53045689914E+02  0.61658907930E+02  0.00000000000E+00 0. -1.
         -5    1    5    5    0  502 -0.59073541155E+02 -0.62310645386E+02  0.14630405249E+03  0.16970346363E+03  0.47000000000E+01 0.  1.
         13    1    6    6    0    0  0.55625251983E+01  0.42736758766E+02  0.50841897616E+02  0.66650362261E+02  0.00000000000E+00 0. -1.
        -14    1    6    6    0    0  0.35381693040E+02 -0.24364308928E+02  0.11896925516E+03  0.12648781532E+03  0.00000000000E+00 0.  1.
</event>
<event>
12    1  0.1594900E-001  0.1716795E+03  0.7818608E-02  0.1176273E+00
         21   -1    0    0  503  502  0.00000000000E+00  0.00000000000E+00  0.12918392587E+03  0.12918392587E+03  0.00000000000E+00 0. -1.
         21   -1    0    0  501  503 -0.00000000000E+00 -0.00000000000E+00 -0.30364635343E+03  0.30364635343E+03  0.00000000000E+00 0. -1.
          6    2    1    2  501    0  0.12667787640E+01 -0.30830068862E+01 -0.19562302851E+03  0.25985157442E+03  0.17100690567E+03 0.  0.
         24    2    3    3    0    0 -0.33120092903E+01  0.34107877230E+02 -0.26697294673E+02  0.86755876284E+02  0.75096736495E+02 0.  0.
         -6    2    1    2    0  502 -0.12667787640E+01  0.30830068862E+01  0.21160600951E+02  0.17297870489E+03  0.17164717199E+03 0.  0.
        -24    2    5    5    0    0  0.24844728504E+02  0.24115153540E+02  0.68711569021E+02  0.11460622362E+03  0.84938245864E+02 0.  0.
          5    1    3    3  501    0  0.45787880543E+01 -0.37190884116E+02 -0.16892573383E+03  0.17309569813E+03  0.47000000000E+01 0. -1.
        -13    1    4    4    0    0  0.58018738065E+01  0.96169560022E+01  0.25786525389E+02  0.28126366172E+02  0.00000000000E+00 0.  1.
         14    1    4    4    0    0 -0.91138830968E+01  0.24490921228E+02 -0.52483820062E+02  0.58629510112E+02  0.00000000000E+00 0. -1.
         -5    1    5    5    0  502 -0.26111507268E+02 -0.21032146654E+02 -0.47550968070E+02  0.58372481265E+02  0.47000000000E+01 0.  1.
         13    1    6    6    0    0 -0.31602660002E+02  0.10644582269E+02  0.29922866614E+02  0.44804164954E+02  0.00000000000E+00 0. -1.
        -14    1    6    6    0    0  0.56447388506E+02  0.13470571271E+02  0.38788702407E+02  0.69802058665E+02  0.00000000000E+00 0.  1.
</event>
<event>
12    1  0.1594900E-001  0.3002519E+03  0.7818608E-02  0.1085321E+00
         21   -1    0    0  501  502  0.00000000000E+00  0.00000000000E+00  0.30945022009E+03  0.30945022009E+03  0.00000000000E+00 0. -1.
         21   -1    0    0  502  503 -0.00000000000E+00 -0.00000000000E+00 -0.43653461865E+03  0.43653461865E+03  0.00000000000E+00 0. -1.
         -6    2    1    2    0  503  0.16710504382E+03  0.17872016083E+03  0.15264207988E+03  0.33682459756E+03  0.17402934641E+03 0.  0.
        -24    2    3    3    0    0  0.85840227359E+02  0.53812724530E+02  0.84674847796E+01  0.12942584657E+03  0.80093679579E+02 0.  0.
          6    2    1    2  501    0 -0.16710504382E+03 -0.17872016083E+03 -0.27972647844E+03  0.40916024118E+03  0.17117303719E+03 0.  0.
         24    2    5    5    0    0 -0.11244320244E+03 -0.33223105889E+02 -0.15241649774E+03  0.20819449512E+03  0.79792922475E+02 0.  0.
          5    1    5    5  501    0 -0.54661841377E+02 -0.14549705494E+03 -0.12730998071E+03  0.20096574606E+03  0.47000000000E+01 0. -1.
        -11    1    6    6    0    0 -0.41268400213E+02  0.22359582601E+02 -0.78643621349E+02  0.91585211520E+02  0.00000000000E+00 0.  1.
         12    1    6    6    0    0 -0.71174802226E+02 -0.55582688490E+02 -0.73772876388E+02  0.11660928360E+03  0.00000000000E+00 0. -1.
         -5    1    3    3    0  503  0.81264816456E+02  0.12490743630E+03  0.14417459510E+03  0.20739875098E+03  0.47000000000E+01 0.  1.
         11    1    4    4    0    0  0.34651561179E+02  0.67469849578E+02  0.49100333230E+00  0.75849537760E+02  0.00000000000E+00 0. -1.
        -12    1    4    4    0    0  0.51188666180E+02 -0.13657125047E+02  0.79764814473E+01  0.53576308814E+02  0.00000000000E+00 0.  1.
</event>
<event>
12    1  0.1594900E-001  0.2102690E+03  0.7818608E-02  0.1144710E+00
         21   -1    0    0  501  502  0.00000000000E+00  0.00000000000E+00  0.31217984045E+03  0.31217984045E+03  0.00000000000E+00 0.  1.
         21   -1    0    0  502  503 -0.00000000000E+00 -0.00000000000E+00 -0.13156268667E+03  0.13156268667E+03  0.00000000000E+00 0. -1.
         -6    2    1    2    0  503 -0.22876981674E+01  0.90380345867E+02  0.70728368109E+02  0.20649033404E+03  0.17164473634E+03 0.  0.
        -24    2    3    3    0    0 -0.26225878486E+02  0.11058343131E+03  0.93491924310E+02  0.16748430080E+03  0.79960984982E+02 0.  0.
          6    2    1    2  501    0  0.22876981674E+01 -0.90380345867E+02  0.10988878567E+03  0.23725219309E+03  0.18983997848E+03 0.  0.
         24    2    5    5    0    0 -0.11400793883E+02 -0.40699057094E+02  0.14800135858E+03  0.17298506711E+03  0.78949603860E+02 0.  0.
          5    1    5    5  501    0  0.13688492050E+02 -0.49681288773E+02 -0.38112572912E+02  0.64267125988E+02  0.47000000000E+01 0. -1.
        -13    1    6    6    0    0 -0.18878269901E+02 -0.37408897237E+02  0.23160437075E+02  0.47877139769E+02  0.00000000000E+00 0.  1.
         14    1    6    6    0    0  0.74774760180E+01 -0.32901598567E+01  0.12484092151E+03  0.12510792734E+03  0.00000000000E+00 0. -1.
         -5    1    3    3    0  503  0.23938180318E+02 -0.20203085441E+02 -0.22763556201E+02  0.39006033241E+02  0.47000000000E+01 0.  1.
         11    1    4    4    0    0 -0.95770174954E+01  0.99350294397E+02  0.35210488522E+02  0.10583940081E+03  0.00000000000E+00 0. -1.
        -12    1    4    4    0    0 -0.16648860990E+02  0.11233136911E+02  0.58281435788E+02  0.61644899989E+02  0.00000000000E+00 0.  1.
</event>
<event>
12    1  0.1594900E-001  0.2287741E+03  0.7818608E-02  0.1127534E+00
         21   -1    0    0  501  502  0.00000000000E+00  0.00000000000E+00  0.43411363360E+02  0.43411363360E+02  0.00000000000E+00 0. -1.
         21   -1    0    0  502  503 -0.00000000000E+00 -0.00000000000E+00 -0.14848851376E+04  0.14848851376E+04  0.00000000000E+00 0.  1.
         -6    2    1    2    0  503 -0.21934914657E+02 -0.14950453012E+03 -0.10524188655E+04  0.10769636945E+04  0.17155927818E+03 0.  0.
        -24    2    3    3    0    0  0.51650889045E+02 -0.69559603596E+02 -0.65375061290E+03  0.66372704636E+03  0.75082457399E+02 0.  0.
          6    2    1    2  501    0  0.21934914657E+02  0.14950453012E+03 -0.38905490884E+03  0.45133280650E+03  0.17176971539E+03 0.  0.
         24    2    5    5    0    0 -0.23354162926E+02  0.33768413143E+02 -0.87694138021E+02  0.12531692727E+03  0.79550913038E+02 0.  0.
          5    1    5    5  501    0  0.45289077583E+02  0.11573611698E+03 -0.30136077082E+03  0.32601587923E+03  0.47000000000E+01 0. -1.
        -13    1    6    6    0    0 -0.98038807675E+01 -0.16781349689E+02 -0.65760022521E+02  0.68571935495E+02  0.00000000000E+00 0.  1.
         14    1    6    6    0    0 -0.13550282159E+02  0.50549762832E+02 -0.21934115500E+02  0.56744991776E+02  0.00000000000E+00 0. -1.
         -5    1    3    3    0  503 -0.73585803702E+02 -0.79944926526E+02 -0.39866825255E+03  0.41323664815E+03  0.47000000000E+01 0.  1.
         13    1    4    4    0    0  0.29204233739E+02 -0.71893944092E+01 -0.41069074788E+03  0.41179055970E+03  0.00000000000E+00 0. -1.
        -14    1    4    4    0    0  0.22446655306E+02 -0.62370209186E+02 -0.24305986502E+03  0.25193648666E+03  0.00000000000E+00 0.  1.
</event>
<event>
12    1  0.1594900E-001  0.2009120E+03  0.7818608E-02  0.1149270E+00
         21   -1    0    0  501  502  0.00000000000E+00  0.00000000000E+00  0.21824584846E+03  0.21824584846E+03  0.00000000000E+00 0. -1.
         21   -1    0    0  502  503 -0.00000000000E+00 -0.00000000000E+00 -0.27850120772E+03  0.27850120772E+03  0.00000000000E+00 0.  1.
         -6    2    1    2    0  503  0.68127539262E+02  0.74025244257E+02  0.11474653387E+03  0.23137070378E+03  0.17390956598E+03 0.  0.
        -24    2    3    3    0    0  0.88059267241E+02  0.36366725281E+02  0.13531012317E+03  0.18382715494E+03  0.80041365587E+02 0.  0.
          6    2    1    2  501    0 -0.68127539262E+02 -0.74025244257E+02 -0.17500189314E+03  0.26537635240E+03  0.17227259625E+03 0.  0.
         24    2    5    5    0    0 -0.42635147575E+02  0.26545295255E+02 -0.96906028054E+02  0.13543271233E+03  0.80180002412E+02 0.  0.
          5    1    5    5  501    0 -0.25492391687E+02 -0.10057053951E+03 -0.78095865082E+02  0.12994364007E+03  0.47000000000E+01 0. -1.
        -11    1    6    6    0    0  0.80908631338E+01 -0.20129467580E+02 -0.42126780846E+02  0.47384841414E+02  0.00000000000E+00 0.  1.
         12    1    6    6    0    0 -0.50726010709E+02  0.46674762835E+02 -0.54779247207E+02  0.88047870916E+02  0.00000000000E+00 0. -1.
         -5    1    3    3    0  503 -0.19931727980E+02  0.37658518975E+02 -0.20563589303E+02  0.47543548844E+02  0.47000000000E+01 0.  1.
         11    1    4    4    0    0  0.85331625037E+02  0.83494214529E+01  0.63489645594E+02  0.10668708529E+03  0.00000000000E+00 0. -1.
        -12    1    4    4    0    0  0.27276422047E+01  0.28017303829E+02  0.71820477578E+02  0.77140069648E+02  0.00000000000E+00 0.  1.
</event>
<event>
12    1  0.1594900E-001  0.1742124E+03  0.7818608E-02  0.1173772E+00
         21   -1    0    0  501  502  0.00000000000E+00  0.00000000000E+00  0.72446559335E+03  0.72446559335E+03  0.00000000000E+00 0.  1.
         21   -1    0    0  502  503 -0.00000000000E+00 -0.00000000000E+00 -0.63140215272E+02  0.63140215272E+02  0.00000000000E+00 0.  1.
         -6    2    1    2    0  503  0.17915284813E+02 -0.16486007461E+02  0.10035239036E+03  0.20020418357E+03  0.17151783287E+03 0.  0.
        -24    2    3    3    0    0  0.81190310286E+01 -0.57909448912E+02  0.11656570890E+03  0.15441302953E+03  0.82682502737E+02 0.  0.
          6    2    1    2  501    0 -0.17915284813E+02  0.16486007461E+02  0.56097298771E+03  0.58740162505E+03  0.17250284143E+03 0.  0.
         24    2    5    5    0    0  0.24131844916E+02  0.32236458210E+02  0.51636466362E+03  0.52393485898E+03  0.79080562995E+02 0.  0.
          5    1    5    5  501    0 -0.42047129729E+02 -0.15750450748E+02  0.44608324089E+02  0.63466766069E+02  0.47000000000E+01 0. -1.
        -13    1    6    6    0    0  0.53082336261E+02  0.25284076634E+02  0.35789288645E+03  0.36269041499E+03  0.00000000000E+00 0.  1.
         14    1    6    6    0    0 -0.28950491345E+02  0.69523815758E+01  0.15847177717E+03  0.16124444399E+03  0.00000000000E+00 0. -1.
         -5    1    3    3    0  503  0.97962537848E+01  0.41423441451E+02 -0.16213318539E+02  0.45791154035E+02  0.47000000000E+01 0.  1.
         11    1    4    4    0    0  0.27786790370E+02 -0.14277027008E+02  0.98368571148E+02  0.10321005285E+03  0.00000000000E+00 0. -1.
        -12    1    4    4    0    0 -0.19667759341E+02 -0.43632421904E+02  0.18197137755E+02  0.51202976683E+02  0.00000000000E+00 0.  1.
</event>
<event>
12    1  0.1594900E-001  0.2571353E+03  0.7818608E-02  0.1108888E+00
         21   -1    0    0  501  502  0.00000000000E+00  0.00000000000E+00  0.25624039790E+03  0.25624039790E+03  0.00000000000E+00 0.  1.
         21   -1    0    0  502  503 -0.00000000000E+00 -0.00000000000E+00 -0.63714968881E+03  0.63714968881E+03  0.00000000000E+00 0. -1.
         -6    2    1    2    0  503 -0.18927813470E+03 -0.30868938080E+02 -0.53504760921E+03  0.59359484624E+03  0.17117182524E+03 0.  0.
        -24    2    3    3    0    0 -0.17181856804E+03 -0.14360649931E+02 -0.53663527357E+03  0.56905975456E+03  0.78254321486E+02 0.  0.
          6    2    1    2  501    0  0.18927813470E+03  0.30868938080E+02  0.15413831829E+03  0.29979524047E+03  0.17128765696E+03 0.  0.
         24    2    5    5    0    0  0.18481380531E+03  0.41986950547E+01  0.17502984349E+03  0.26530208281E+03  0.74672467215E+02 0.  0.
          5    1    5    5  501    0  0.44643293916E+01  0.26670243025E+02 -0.20891525197E+02  0.34493157655E+02  0.47000000000E+01 0. -1.
        -13    1    6    6    0    0  0.42483938410E+02  0.14728045512E+02  0.81155029521E+01  0.45690937127E+02  0.00000000000E+00 0.  1.
         14    1    6    6    0    0  0.14232986690E+03 -0.10529350457E+02  0.16691434053E+03  0.21961114569E+03  0.00000000000E+00 0. -1.
         -5    1    3    3    0  503 -0.17459566668E+02 -0.16508288149E+02  0.15876643633E+01  0.24535091685E+02  0.47000000000E+01 0.  1.
         11    1    4    4    0    0 -0.79648577234E+02 -0.57092073770E+01 -0.36919301666E+03  0.37773002853E+03  0.00000000000E+00 0. -1.
        -12    1    4    4    0    0 -0.92169990802E+02 -0.86514425537E+01 -0.16744225691E+03  0.19132972603E+03  0.00000000000E+00 0.  1.
</event>
<event>
12    1  0.1594900E-001  0.2215396E+03  0.7818608E-02  0.1132756E+00
         21   -1    0    0  503  502  0.00000000000E+00  0.00000000000E+00  0.78352509273E+02  0.78352509273E+02  0.00000000000E+00 0. -1.
         21   -1    0    0  501  503 -0.00000000000E+00 -0.00000000000E+00 -0.14099807093E+04  0.14099807093E+04  0.00000000000E+00 0. -1.
          6    2    1    2  501    0 -0.14090747855E+03 -0.25263361403E+01 -0.12206041664E+04  0.12405306115E+04  0.17082261941E+03 0.  0.
         24    2    3    3    0    0 -0.77388384061E+02 -0.30787627835E+01 -0.10850821199E+04  0.10907865111E+04  0.80084736735E+02 0.  0.
         -6    2    1    2    0  502  0.14090747855E+03  0.25263361403E+01 -0.11102403366E+03  0.24780260704E+03  0.17093418652E+03 0.  0.
        -24    2    5    5    0    0 -0.49898252404E+00 -0.19672036363E+02 -0.86823076857E+01  0.71778535248E+02  0.68480199017E+02 0.  0.
          5    1    3    3  501    0 -0.63519094493E+02  0.55242664328E+00 -0.13552204645E+03  0.14974410043E+03  0.47000000000E+01 0. -1.
        -13    1    4    4    0    0  0.13025516068E+02  0.68119330508E+01 -0.31654883035E+03  0.31688993120E+03  0.00000000000E+00 0.  1.
         14    1    4    4    0    0 -0.90413900129E+02 -0.98906958343E+01 -0.76853328958E+03  0.77389657991E+03  0.00000000000E+00 0. -1.
         -5    1    5    5    0  502  0.14140646108E+03  0.22198372503E+02 -0.10234172597E+03  0.17602407179E+03  0.47000000000E+01 0.  1.
         13    1    6    6    0    0  0.27354550640E+02 -0.20406069887E+02  0.12951947047E+02  0.36502493905E+02  0.00000000000E+00 0. -1.
        -14    1    6    6    0    0 -0.27853533165E+02  0.73403352368E+00 -0.21634254733E+02  0.35276041343E+02  0.00000000000E+00 0.  1.
</event>
<event>
12    1  0.1594900E-001  0.3551344E+03  0.7818608E-02  0.1060584E+00
         21   -1    0    0  501  502  0.00000000000E+00  0.00000000000E+00  0.13129713707E+03  0.13129713707E+03  0.00000000000E+00 0.  1.
         21   -1    0    0  502  503 -0.00000000000E+00 -0.00000000000E+00 -0.10136750042E+04  0.10136750042E+04  0.00000000000E+00 0.  1.
         -6    2    1    2    0  503  0.31036440439E+03 -0.11483637763E+02 -0.57374750436E+03  0.67446906559E+03  0.17106836128E+03 0.  0.
        -24    2    3    3    0    0  0.23107756982E+03 -0.29473989337E+02 -0.29688086841E+03  0.38587371048E+03  0.80589770404E+02 0.  0.
          6    2    1    2  501    0 -0.31036440439E+03  0.11483637763E+02 -0.30863036279E+03  0.47050307570E+03  0.17222806379E+03 0.  0.
         24    2    5    5    0    0 -0.23512196217E+03  0.25305029277E+02 -0.30473402769E+03  0.39375851627E+03  0.79121804222E+02 0.  0.
          5    1    5    5  501    0 -0.75242442219E+02 -0.13821391514E+02 -0.38963351026E+01  0.76744559428E+02  0.47000000000E+01 0. -1.
        -13    1    6    6    0    0 -0.16711938101E+03  0.43908283248E+02 -0.17396278254E+03  0.24519354510E+03  0.00000000000E+00 0.  1.
         14    1    6    6    0    0 -0.68002581154E+02 -0.18603253971E+02 -0.13077124515E+03  0.14856497117E+03  0.00000000000E+00 0. -1.
         -5    1    3    3    0  503  0.79286834565E+02  0.17990351575E+02 -0.27686663595E+03  0.28859535511E+03  0.47000000000E+01 0.  1.
         11    1    4    4    0    0  0.44204032750E+02  0.15333952262E+02 -0.25332851313E+02  0.53206014312E+02  0.00000000000E+00 0. -1.
        -12    1    4    4    0    0  0.18687353707E+03 -0.44807941600E+02 -0.27154801709E+03  0.33266769617E+03  0.00000000000E+00 0.  1.
</event>
<event>
12    1  0.1594900E-001  0.2276674E+03  0.7818608E-02  0.1128483E+00
         21   -1    0    0  501  502  0.00000000000E+00  0.00000000000E+00  0.78351309856E+03  0.78351309856E+03  0.00000000000E+00 0. -1.
         21   -1    0    0  502  503 -0.00000000000E+00 -0.00000000000E+00 -0.66473104444E+02  0.66473104444E+02  0.00000000000E+00 0.  1.
         -6    2    1    2    0  503 -0.13702814142E+03 -0.54202135230E+02  0.39902509241E+03  0.45887761715E+03  0.17214255762E+03 0.  0.
        -24    2    3    3    0    0 -0.17483133930E+02  0.19148089466E+02  0.18351729313E+03  0.20170653435E+03  0.79590324912E+02 0.  0.
          6    2    1    2  501    0  0.13702814142E+03  0.54202135230E+02  0.31801490172E+03  0.39110858586E+03  0.17354499480E+03 0.  0.
         24    2    5    5    0    0  0.10267310373E+03 -0.32072472073E+02  0.14577227045E+03  0.19537103069E+03  0.73142840427E+02 0.  0.
          5    1    5    5  501    0  0.34355037684E+02  0.86274607303E+02  0.17224263126E+03  0.19573755517E+03  0.47000000000E+01 0. -1.
        -13    1    6    6    0    0 -0.99402781431E+01 -0.66060736311E+01  0.28035438162E+02  0.30470233529E+02  0.00000000000E+00 0.  1.
         14    1    6    6    0    0  0.11261338188E+03 -0.25466398442E+02  0.11773683229E+03  0.16490079716E+03  0.00000000000E+00 0. -1.
         -5    1    3    3    0  503 -0.11954500749E+03 -0.73350224696E+02  0.21550779928E+03  0.25717108280E+03  0.47000000000E+01 0.  1.
         11    1    4    4    0    0 -0.21321062574E+02 -0.27589204799E+02  0.57490137419E+02  0.67237399051E+02  0.00000000000E+00 0. -1.
        -12    1    4    4    0    0  0.38379286433E+01  0.46737294265E+02  0.12602715571E+03  0.13446913530E+03  0.00000000000E+00 0.  1.
</event>
<event>
12    1  0.1594900E-001  0.2580614E+03  0.7818608E-02  0.1108738E+00
         21   -1    0    0  503  502  0.00000000000E+00  0.00000000000E+00  0.66777787346E+03  0.66777787346E+03  0.00000000000E+00 0.  1.
         21   -1    0    0  501  503 -0.00000000000E+00 -0.00000000000E+00 -0.15470795318E+03  0.15470795318E+03  0.00000000000E+00 0. -1.
          6    2    1    2  501    0 -0.18733636640E+03 -0.30827485017E+02  0.81107087054E+01  0.25540603410E+03  0.17064937928E+03 0.  0.
         24    2    3    3    0    0 -0.39514503999E+02  0.25188206061E+02  0.24854439320E+02  0.96373008706E+02  0.80462238984E+02 0.  0.
         -6    2    1    2    0  502  0.18733636640E+03  0.30827485017E+02  0.50495921157E+03  0.56707979254E+03  0.17478683518E+03 0.  0.
        -24    2    5    5    0    0  0.86011424074E+02  0.88955129543E+01  0.41109429224E+03  0.42714956559E+03  0.77337824141E+02 0.  0.
          5    1    3    3  501    0 -0.14782186240E+03 -0.56015691078E+02 -0.16743730615E+02  0.15903302539E+03  0.47000000000E+01 0. -1.
        -11    1    4    4    0    0 -0.11750607858E+02  0.13216451670E+02 -0.29373159271E+02  0.34286059344E+02  0.00000000000E+00 0.  1.
         12    1    4    4    0    0 -0.27763896141E+02  0.11971754391E+02  0.54227598591E+02  0.62086949362E+02  0.00000000000E+00 0. -1.
         -5    1    5    5    0  502  0.10132494232E+03  0.21931972063E+02  0.93864919325E+02  0.13993022695E+03  0.47000000000E+01 0.  1.
         13    1    6    6    0    0  0.92342163327E+01 -0.71586164100E+01  0.36748915978E+01  0.12248321046E+02  0.00000000000E+00 0. -1.
        -14    1    6    6    0    0  0.76777207741E+02  0.16054129364E+02  0.40741940065E+03  0.41490124454E+03  0.00000000000E+00 0.  1.
</event>
<event>
12    1  0.1594900E-001  0.2721562E+03  0.7818608E-02  0.1101111E+00
         21   -1    0    0  501  502  0.00000000000E+00  0.00000000000E+00  0.22368294348E+03  0.22368294348E+03  0.00000000000E+00 0. -1.
         21   -1    0    0  502  503 -0.00000000000E+00 -0.00000000000E+00 -0.32586626658E+03  0.32586626658E+03  0.00000000000E+00 0. -1.
         -6    2    1    2    0  503  0.19684719515E+03 -0.71377892460E+02 -0.21375182638E+02  0.26564970054E+03  0.16207789237E+03 0.  0.
        -24    2    3    3    0    0  0.17546263630E+03 -0.56934764076E+02 -0.68476388884E+02  0.21173757812E+03  0.78198990111E+02 0.  0.
          6    2    1    2  501    0 -0.19684719515E+03  0.71377892460E+02 -0.80808140460E+02  0.28389950952E+03  0.17385440511E+03 0.  0.
         24    2    5    5    0    0 -0.81911213932E+02  0.87148547311E+02 -0.90475620630E+00  0.14295400890E+03  0.78298874893E+02 0.  0.
          5    1    5    5  501    0 -0.11493598121E+03 -0.15770654851E+02 -0.79903384254E+02  0.14094550063E+03  0.47000000000E+01 0. -1.
        -11    1    6    6    0    0 -0.67347312531E+01  0.58060644550E+02  0.15983882319E+02  0.60596035717E+02  0.00000000000E+00 0.  1.
         12    1    6    6    0    0 -0.75176482679E+02  0.29087902762E+02 -0.16888638526E+02  0.82357973180E+02  0.00000000000E+00 0. -1.
         -5    1    3    3    0  503  0.21384558845E+02 -0.14443128384E+02  0.47101206246E+02  0.53912122425E+02  0.47000000000E+01 0.  1.
         13    1    4    4    0    0  0.55943950544E+02 -0.56720856007E+02 -0.38675444674E+02  0.88559421461E+02  0.00000000000E+00 0. -1.
        -14    1    4    4    0    0  0.11951868576E+03 -0.21390806916E+00 -0.29800944210E+02  0.12317815666E+03  0.00000000000E+00 0.  1.
</event>
<event>
12    1  0.1594900E-001  0.1955933E+03  0.7818608E-02  0.1153794E+00
         21   -1    0    0  501  502  0.00000000000E+00  0.00000000000E+00  0.40910893570E+03  0.40910893570E+03  0.00000000000E+00 0.  1.
         21   -1    0    0  502  503 -0.00000000000E+00 -0.00000000000E+00 -0.11420387082E+03  0.11420387082E+03  0.00000000000E+00 0.  1.
         -6    2    1    2    0  503  0.76973283061E+02  0.50444157033E+02  0.34025851437E+02  0.19725344831E+03  0.17111886225E+03 0.  0.
        -24    2    3    3    0    0  0.38711652768E+02 -0.81442250794E+01 -0.36525350805E+02  0.97774239378E+02  0.81613602863E+02 0.  0.
          6    2    1    2  501    0 -0.76973283061E+02 -0.50444157033E+02  0.26087921344E+03  0.32605935821E+03  0.17258980788E+03 0.  0.
         24    2    5    5    0    0  0.15671543692E+01  0.57012246935E+01  0.50699335026E+02  0.94718537139E+02  0.79788587967E+02 0.  0.
          5    1    5    5  501    0 -0.78540437430E+02 -0.56145381727E+02  0.21017987842E+03  0.23134082107E+03  0.47000000000E+01 0. -1.
        -13    1    6    6    0    0 -0.30881693876E+02  0.12382686279E+02  0.51806474741E+02  0.61570453639E+02  0.00000000000E+00 0.  1.
         14    1    6    6    0    0  0.32448848246E+02 -0.66814615858E+01 -0.11071397151E+01  0.33148083500E+02  0.00000000000E+00 0. -1.
         -5    1    3    3    0  503  0.38261630293E+02  0.58588382113E+02  0.70551202242E+02  0.99479208929E+02  0.47000000000E+01 0.  1.
         13    1    4    4    0    0 -0.21721937844E+02  0.57244079314E+01  0.51745257018E+01  0.23051836068E+02  0.00000000000E+00 0. -1.
        -14    1    4    4    0    0  0.60433590612E+02 -0.13868633011E+02 -0.41699876507E+02  0.74722403310E+02  0.00000000000E+00 0.  1.
</event>
<event>
12    1  0.1594900E-001  0.2103970E+03  0.7818608E-02  0.1141275E+00
         21   -1    0    0  501  502  0.00000000000E+00  0.00000000000E+00  0.11756543511E+04  0.11756543511E+04  0.00000000000E+00 0.  1.
         21   -1    0    0  502  503 -0.00000000000E+00 -0.00000000000E+00 -0.52192581374E+02  0.52192581374E+02  0.00000000000E+00 0.  1.
         -6    2    1    2    0  503  0.11994754276E+03 -0.17961032363E+02  0.88587954468E+03  0.91049508476E+03  0.17178102336E+03 0.  0.
        -24    2    3    3    0    0  0.14711359872E+03  0.18888861905E+01  0.60397143399E+03  0.62654740166E+03  0.78320971849E+02 0.  0.
          6    2    1    2  501    0 -0.11994754276E+03  0.17961032363E+02  0.23758222507E+03  0.31735184774E+03  0.17192111533E+03 0.  0.
         24    2    5    5    0    0 -0.11684982812E+03  0.69688786347E+02  0.18808298302E+03  0.24553526656E+03  0.80012182519E+02 0.  0.
          5    1    5    5  501    0 -0.30977146434E+01 -0.51727753984E+02  0.49499242053E+02  0.71816581178E+02  0.47000000000E+01 0. -1.
        -11    1    6    6    0    0 -0.67468979689E+02 -0.53279197424E+01  0.72831657572E+02  0.99422835876E+02  0.00000000000E+00 0.  1.
         12    1    6    6    0    0 -0.49380848430E+02  0.75016706090E+02  0.11525132544E+03  0.14611243069E+03  0.00000000000E+00 0. -1.
         -5    1    3    3    0  503 -0.27166055959E+02 -0.19849918554E+02  0.28190811070E+03  0.28394768311E+03  0.47000000000E+01 0.  1.
         11    1    4    4    0    0  0.85366908198E+01  0.21177628589E+02  0.46737605756E+02  0.52017024469E+02  0.00000000000E+00 0. -1.
        -12    1    4    4    0    0  0.13857690790E+03 -0.19288742399E+02  0.55723382823E+03  0.57453037719E+03  0.00000000000E+00 0.  1.
</event>
<event>
12    1  0.1594900E-001  0.3288832E+03  0.7818608E-02  0.1071649E+00
         21   -1    0    0  503  502  0.00000000000E+00  0.00000000000E+00  0.47756491255E+03  0.47756491255E+03  0.00000000000E+00 0. -1.
         21   -1    0    0  501  503 -0.00000000000E+00 -0.00000000000E+00 -0.24683571692E+03  0.24683571692E+03  0.00000000000E+00 0.  1.
          6    2    1    2  501    0 -0.98105247180E+02  0.26205964908E+03  0.21963676036E+03  0.39548002870E+03  0.17281275242E+03 0.  0.
         24    2    3    3    0    0 -0.66591723659E+02  0.14370606680E+03  0.47818602812E+02  0.18442496038E+03  0.81486538390E+02 0.  0.
         -6    2    1    2    0  502  0.98105247180E+02 -0.26205964908E+03  0.11092435269E+02  0.32892060077E+03  0.17252773774E+03 0.  0.
        -24    2    5    5    0    0 -0.57090161115E+01 -0.59810355931E+02  0.15041489538E+02  0.10150058654E+03  0.80413003419E+02 0.  0.
          5    1    3    3  501    0 -0.31513523521E+02  0.11835358228E+03  0.17181815755E+03  0.21105506833E+03  0.47000000000E+01 0. -1.
        -13    1    4    4    0    0 -0.45552332692E+01  0.65076552132E+02 -0.14008828283E+02  0.66722972487E+02  0.00000000000E+00 0.  1.
         14    1    4    4    0    0 -0.62036490389E+02  0.78629514670E+02  0.61827431095E+02  0.11770198789E+03  0.00000000000E+00 0. -1.
         -5    1    5    5    0  502  0.10381426329E+03 -0.20224929315E+03 -0.39490542680E+01  0.22742001423E+03  0.47000000000E+01 0.  1.
         11    1    6    6    0    0 -0.16388915579E+01 -0.48604236189E+01  0.40485463832E+02  0.40809097821E+02  0.00000000000E+00 0. -1.
        -12    1    6    6    0    0 -0.40701245536E+01 -0.54949932312E+02 -0.25443974295E+02  0.60691488718E+02  0.00000000000E+00 0.  1.
</event>
<event>
12    1  0.1594900E-001  0.2106547E+03  0.7818608E-02  0.1141477E+00
         21   -1    0    0  501  502  0.00000000000E+00  0.00000000000E+00  0.48698661170E+02  0.48698661170E+02  0.00000000000E+00 0. -1.
         21   -1    0    0  502  503 -0.00000000000E+00 -0.00000000000E+00 -0.15666042334E+04  0.15666042334E+04  0.00000000000E+00 0.  1.
         -6    2    1    2    0  503  0.83336771161E+02 -0.87789610633E+02 -0.12872935280E+04  0.13044155937E+04  0.17240469996E+03 0.  0.
        -24    2    3    3    0    0  0.10488285810E+03 -0.43854044771E+02 -0.61415517406E+03  0.62948455913E+03  0.78362243437E+02 0.  0.
          6    2    1    2  501    0 -0.83336771161E+02  0.87789610633E+02 -0.23061204420E+03  0.31088730089E+03  0.16975560598E+03 0.  0.
         24    2    5    5    0    0  0.16738666844E+02  0.37143428955E+02 -0.64769327752E+02  0.11062241228E+03  0.79890143316E+02 0.  0.
          5    1    5    5  501    0 -0.10007543800E+03  0.50646181678E+02 -0.16584271645E+03  0.20026488861E+03  0.47000000000E+01 0. -1.
        -13    1    6    6    0    0 -0.32680338321E+01 -0.24352145477E+02 -0.13080906751E+02  0.27835537643E+02  0.00000000000E+00 0.  1.
         14    1    6    6    0    0  0.20006700676E+02  0.61495574432E+02 -0.51688421001E+02  0.82786874637E+02  0.00000000000E+00 0. -1.
         -5    1    3    3    0  503 -0.21546086941E+02 -0.43935565862E+02 -0.67313835395E+03  0.67493103453E+03  0.47000000000E+01 0.  1.
         11    1    4    4    0    0  0.46596645194E+02 -0.39604623841E+02 -0.15504014466E+03  0.16666499341E+03  0.00000000000E+00 0. -1.
        -12    1    4    4    0    0  0.58286212908E+02 -0.42494209301E+01 -0.45911502940E+03  0.46281956572E+03  0.00000000000E+00 0.  1.
</event>
<event>
12    1  0.1594900E-001  0.2264845E+03  0.7818608E-02  0.1129164E+00
         21   -1    0    0  503  502  0.00000000000E+00  0.00000000000E+00  0.17146696353E+03  0.17146696353E+03  0.00000000000E+00 0.  1.
         21   -1    0    0  501  503 -0.00000000000E+00 -0.00000000000E+00 -0.38947524470E+03  0.38947524470E+03  0.00000000000E+00 0.  1.
          6    2    1    2  501    0 -0.90189979847E+02 -0.11578482792E+03 -0.24418183983E+03  0.33295033423E+03  0.17231017185E+03 0.  0.
         24    2    3    3    0    0 -0.13166095663E+03 -0.93390156321E+02 -0.17535946652E+03  0.24940410572E+03  0.73451593946E+02 0.  0.
         -6    2    1    2    0  502  0.90189979847E+02  0.11578482792E+03  0.26173558669E+02  0.22799187400E+03  0.17249603066E+03 0.  0.
        -24    2    5    5    0    0  0.33978883899E+02  0.73647089016E+02 -0.51171941576E+02  0.12339888783E+03  0.77654746417E+02 0.  0.
          5    1    3    3  501    0  0.41470976779E+02 -0.22394671599E+02 -0.68822373309E+02  0.83546228514E+02  0.47000000000E+01 0. -1.
        -13    1    4    4    0    0 -0.90950672145E+02 -0.32616988969E+02 -0.63051193419E+02  0.11537480542E+03  0.00000000000E+00 0.  1.
         14    1    4    4    0    0 -0.40710284481E+02 -0.60773167351E+02 -0.11230827310E+03  0.13402930030E+03  0.00000000000E+00 0. -1.
         -5    1    5    5    0  502  0.56211095948E+02  0.42137738903E+02  0.77345500244E+02  0.10459298617E+03  0.47000000000E+01 0.  1.
         11    1    6    6    0    0 -0.24290603695E+02  0.24805270147E+02 -0.68361270581E+01  0.35384565676E+02  0.00000000000E+00 0. -1.
        -12    1    6    6    0    0  0.58269487594E+02  0.48841818869E+02 -0.44335814518E+02  0.88014322152E+02  0.00000000000E+00 0.  1.
</event>
<event>
12    1  0.1594900E-001  0.2340921E+03  0.7818608E-02  0.1123817E+00
         21   -1    0    0  503  502  0.00000000000E+00  0.00000000000E+00  0.60298572828E+02  0.60298572828E+02  0.00000000000E+00 0.  1.
         21   -1    0    0  501  503 -0.00000000000E+00 -0.00000000000E+00 -0.93938331553E+03  0.93938331553E+03  0.00000000000E+00 0.  1.
          6    2    1    2  501    0 -0.78138283748E+02 -0.13822976504E+03 -0.53068839739E+03  0.58002524208E+03  0.17200595048E+03 0.  0.
         24    2    3    3    0    0 -0.11814082179E+03 -0.10775444480E+03 -0.45531420304E+03  0.48929317847E+03  0.80799237972E+02 0.  0.
         -6    2    1    2    0  502  0.78138283748E+02  0.13822976504E+03 -0.34839634531E+03  0.41965664627E+03  0.17180986003E+03 0.  0.
        -24    2    5    5    0    0  0.72046240829E+02  0.30131675538E+02 -0.10713739215E+03  0.15517548925E+03  0.80637664758E+02 0.  0.
          5    1    3    3  501    0  0.40002538046E+02 -0.30475320243E+02 -0.75374194342E+02  0.90732063609E+02  0.47000000000E+01 0. -1.
        -13    1    4    4    0    0 -0.20469634632E+02 -0.38805126031E+02 -0.23077707862E+03  0.23491041647E+03  0.00000000000E+00 0.  1.
         14    1    4    4    0    0 -0.97671187163E+02 -0.68949318771E+02 -0.22453712442E+03  0.25438276200E+03  0.00000000000E+00 0. -1.
         -5    1    5    5    0  502  0.60920429193E+01  0.10809808951E+03 -0.24125895316E+03  0.26448115703E+03  0.47000000000E+01 0.  1.
         13    1    6    6    0    0  0.75486569929E+02  0.43400563297E+02 -0.59138798442E+02  0.10525791474E+03  0.00000000000E+00 0. -1.
        -14    1    6    6    0    0 -0.34403290998E+01 -0.13268887759E+02 -0.47998593708E+02  0.49917574507E+02  0.00000000000E+00 0.  1.
</event>
<event>
12    1  0.1594900E-001  0.2376115E+03  0.7818608E-02  0.1121448E+00
         21   -1    0    0  503  502  0.00000000000E+00  0.00000000000E+00  0.22564046698E+03  0.22564046698E+03  0.00000000000E+00 0. -1.
         21   -1    0    0  501  503 -0.00000000000E+00 -0.00000000000E+00 -0.26281111175E+03  0.26281111175E+03  0.00000000000E+00 0.  1.
          6    2    1    2  501    0 -0.11398396849E+03  0.11797874733E+03  0.35597221654E+02  0.23994727031E+03  0.17145320191E+03 0.  0.
         24    2    3    3    0    0 -0.11414559607E+03  0.46298881378E+02 -0.21352991834E+02  0.14827695820E+03  0.79732694387E+02 0.  0.
         -6    2    1    2    0  502  0.11398396849E+03 -0.11797874733E+03 -0.72767866427E+02  0.24850430842E+03  0.17189502328E+03 0.  0.
        -24    2    5    5    0    0  0.13572850098E+03 -0.13556152721E+03 -0.73570510751E+02  0.22013684326E+03  0.79047176240E+02 0.  0.
          5    1    3    3  501    0  0.16162757708E+00  0.71679865947E+02  0.56950213488E+02  0.91670312108E+02  0.47000000000E+01 0. -1.
        -11    1    4    4    0    0 -0.69859343920E+02  0.61270717797E+02  0.76933007800E+01  0.93239560644E+02  0.00000000000E+00 0.  1.
         12    1    4    4    0    0 -0.44286252151E+02 -0.14971836419E+02 -0.29046292614E+02  0.55037397558E+02  0.00000000000E+00 0. -1.
         -5    1    5    5    0  502 -0.21744532486E+02  0.17582779889E+02  0.80264432387E+00  0.28367465159E+02  0.47000000000E+01 0.  1.
         11    1    6    6    0    0  0.11555685004E+03 -0.72422343366E+02 -0.26722855345E+02  0.13896939378E+03  0.00000000000E+00 0. -1.
        -12    1    6    6    0    0  0.20171650938E+02 -0.63139183848E+02 -0.46847655406E+02  0.81167449483E+02  0.00000000000E+00 0.  1.
</event>
<event>
12    1  0.1594900E-001  0.2543374E+03  0.7818608E-02  0.1110926E+00
         21   -1    0    0  503  502  0.00000000000E+00  0.00000000000E+00  0.21965912719E+03  0.21965912719E+03  0.00000000000E+00 0. -1.
         21   -1    0    0  501  503 -0.00000000000E+00 -0.00000000000E+00 -0.45814508846E+03  0.45814508846E+03  0.00000000000E+00 0. -1.
          6    2    1    2  501    0 -0.15156957376E+03 -0.10768495346E+03 -0.32299699795E+03  0.40979369484E+03  0.17039491410E+03 0.  0.
         24    2    3    3    0    0 -0.52756227242E+02  0.12737559693E+02 -0.12368712866E+03  0.15678742392E+03  0.79613601637E+02 0.  0.
         -6    2    1    2    0  502  0.15156957376E+03  0.10768495346E+03  0.84511036684E+02  0.26801052082E+03  0.17354578375E+03 0.  0.
        -24    2    5    5    0    0  0.18189766530E+03  0.92967315400E+02  0.82024014478E+02  0.23388315224E+03  0.79017134718E+02 0.  0.
          5    1    3    3  501    0 -0.98813346516E+02 -0.12042251315E+03 -0.19930986929E+03  0.25300627091E+03  0.47000000000E+01 0. -1.
        -13    1    4    4    0    0  0.13491717575E+01  0.36755266434E+02 -0.40784838937E+02  0.54919695576E+02  0.00000000000E+00 0.  1.
         14    1    4    4    0    0 -0.54105398999E+02 -0.24017706741E+02 -0.82902289721E+02  0.10186772835E+03  0.00000000000E+00 0. -1.
         -5    1    5    5    0  502 -0.30328091538E+02  0.14717638055E+02  0.24870222058E+01  0.34127368573E+02  0.47000000000E+01 0.  1.
         11    1    6    6    0    0  0.62865986598E+02  0.46695068988E+02 -0.63661487345E+01  0.78569011630E+02  0.00000000000E+00 0. -1.
        -12    1    6    6    0    0  0.11903167870E+03  0.46272246413E+02  0.88390163213E+02  0.15531414061E+03  0.00000000000E+00 0.  1.
</event>
<event>
12    1  0.1594900E-001  0.2328579E+03  0.7818608E-02  0.1125418E+00
         21   -1    0    0  501  502  0.00000000000E+00  0.00000000000E+00  0.26635507786E+03  0.26635507786E+03  0.00000000000E+00 0.  1.
         21   -1    0    0  502  503 -0.00000000000E+00 -0.00000000000E+00 -0.66231270524E+03  0.66231270524E+03  0.00000000000E+00 0.  1.
         -6    2    1    2    0  503  0.13461454425E+03 -0.75547590871E+02 -0.58545842738E+03  0.62844563034E+03  0.16838594388E+03 0.  0.
        -24    2    3    3    0    0  0.13062625525E+03 -0.51838607971E+02 -0.28518665527E+03  0.32717623354E+03  0.77216576054E+02 0.  0.
          6    2    1    2  501    0 -0.13461454425E+03  0.75547590871E+02  0.18950080000E+03  0.30022215275E+03  0.17433953595E+03 0.  0.
         24    2    5    5    0    0 -0.52534530883E+02  0.78061417708E+02  0.17095091964E+03  0.21590349538E+03  0.92393942033E+02 0.  0.
          5    1    5    5  501    0 -0.82080013363E+02 -0.25138268371E+01  0.18549880362E+02  0.84318657369E+02  0.47000000000E+01 0. -1.
        -11    1    6    6    0    0 -0.24186327593E+02 -0.17368478181E+02  0.59026281211E+02  0.66111605262E+02  0.00000000000E+00 0.  1.
         12    1    6    6    0    0 -0.28348203290E+02  0.95429895890E+02  0.11192463843E+03  0.14979189012E+03  0.00000000000E+00 0. -1.
         -5    1    3    3    0  503  0.39882890003E+01 -0.23708982901E+02 -0.30027177211E+03  0.30126939680E+03  0.47000000000E+01 0.  1.
         13    1    4    4    0    0  0.13856235807E+03 -0.37400831610E+02 -0.26196450908E+03  0.29870345378E+03  0.00000000000E+00 0. -1.
        -14    1    4    4    0    0 -0.79361028242E+01 -0.14437776360E+02 -0.23222146186E+02  0.28472779769E+02  0.00000000000E+00 0.  1.
</event>
<event>
12    1  0.1594900E-001  0.1955340E+03  0.7818608E-02  0.1153988E+00
         21   -1    0    0  501  502  0.00000000000E+00  0.00000000000E+00  0.61924591815E+03  0.61924591815E+03  0.00000000000E+00 0.  1.
         21   -1    0    0  502  503 -0.00000000000E+00 -0.00000000000E+00 -0.73942741577E+02  0.73942741577E+02  0.00000000000E+00 0.  1.
         -6    2    1    2    0  503 -0.86016746660E+02  0.32110775092E+02  0.12724442017E+03  0.23166222147E+03  0.17042963301E+03 0.  0.
        -24    2    3    3    0    0 -0.18930908211E+02  0.70646939969E+02  0.10604165960E+03  0.15130556163E+03  0.79367310633E+02 0.  0.
          6    2    1    2  501    0  0.86016746660E+02 -0.32110775092E+02  0.41805875640E+03  0.46152643826E+03  0.17263703781E+03 0.  0.
         24    2    5    5    0    0  0.86657515488E+02 -0.25299604802E+02  0.42987147954E+03  0.44708922755E+03  0.83364821557E+02 0.  0.
          5    1    5    5  501    0 -0.64076882795E+00 -0.68111702904E+01 -0.11812723134E+02  0.14437210716E+02  0.47000000000E+01 0. -1.
        -11    1    6    6    0    0  0.63373489900E+02 -0.35084916178E+02  0.15534828164E+03  0.17140664857E+03  0.00000000000E+00 0.  1.
         12    1    6    6    0    0  0.23284025587E+02  0.97853113768E+01  0.27452319790E+03  0.27568257898E+03  0.00000000000E+00 0. -1.
         -5    1    3    3    0  503 -0.67085838449E+02 -0.38536164877E+02  0.21202760565E+02  0.80356659832E+02  0.47000000000E+01 0.  1.
         11    1    4    4    0    0 -0.13710974456E+02  0.86717016552E+02  0.72938940274E+02  0.11413991759E+03  0.00000000000E+00 0. -1.
        -12    1    4    4    0    0 -0.52199337556E+01 -0.16070076583E+02  0.33102719329E+02  0.37165644039E+02  0.00000000000E+00 0.  1.
</event>
<event>
12    1  0.1594900E-001  0.3575061E+03  0.7818608E-02  0.1059579E+00
         21   -1    0    0  501  502  0.00000000000E+00  0.00000000000E+00  0.67608562958E+02  0.67608562958E+02  0.00000000000E+00 0. -1.
         21   -1    0    0  502  503 -0.00000000000E+00 -0.00000000000E+00 -0.19851147018E+04  0.19851147018E+04  0.00000000000E+00 0.  1.
         -6    2    1    2    0  503 -0.25549808486E+03 -0.17743934917E+03 -0.11831110771E+04  0.12359459551E+04  0.17620042295E+03 0.  0.
        -24    2    3    3    0    0 -0.58076591639E+02 -0.11224856168E+03 -0.50297463756E+03  0.52472675455E+03  0.79887738882E+02 0.  0.
          6    2    1    2  501    0  0.25549808486E+03  0.17743934917E+03 -0.73439506174E+03  0.81677730971E+03  0.17613935658E+03 0.  0.
         24    2    5    5    0    0  0.78453377969E+02  0.86729508376E+02 -0.19285760083E+03  0.23983882510E+03  0.81557756757E+02 0.  0.
          5    1    5    5  501    0  0.17704470689E+03  0.90709840798E+02 -0.54153746091E+03  0.57693848461E+03  0.47000000000E+01 0. -1.
        -11    1    6    6    0    0  0.64328831849E+02  0.14839516113E+02 -0.66039606112E+02  0.93379009531E+02  0.00000000000E+00 0.  1.
         12    1    6    6    0    0  0.14124546119E+02  0.71889992263E+02 -0.12681799472E+03  0.14645981557E+03  0.00000000000E+00 0. -1.
         -5    1    3    3    0  503 -0.19742149322E+03 -0.65190787492E+02 -0.68013643957E+03  0.71121920052E+03  0.47000000000E+01 0.  1.
         11    1    4    4    0    0 -0.48924640503E+02 -0.12422544473E+03 -0.46728967763E+03  0.48598891385E+03  0.00000000000E+00 0. -1.
        -12    1    4    4    0    0 -0.91519511364E+01  0.11976883053E+02 -0.35684959926E+02  0.38737840701E+02  0.00000000000E+00 0.  1.
</event>
<event>
12    1  0.1594900E-001  0.1789655E+03  0.7818608E-02  0.1169015E+00
         21   -1    0    0  503  502  0.00000000000E+00  0.00000000000E+00  0.18084098419E+03  0.18084098419E+03  0.00000000000E+00 0.  1.
         21   -1    0    0  501  503 -0.00000000000E+00 -0.00000000000E+00 -0.22161017646E+03  0.22161017646E+03  0.00000000000E+00 0.  1.
          6    2    1    2  501    0  0.45003406914E+02 -0.75261718945E+01 -0.11144001092E+03  0.21082582041E+03  0.17305115031E+03 0.  0.
         24    2    3    3    0    0  0.15063624816E+02  0.31141421104E+02 -0.13152037076E+03  0.15775149374E+03  0.79945137145E+02 0.  0.
         -6    2    1    2    0  502 -0.45003406914E+02  0.75261718945E+01  0.70670818650E+02  0.19162534024E+03  0.17217420398E+03 0.  0.
        -24    2    5    5    0    0 -0.63583499518E+01  0.64535152498E+02  0.90964897894E+01  0.99121544256E+02  0.74411826258E+02 0.  0.
          5    1    3    3  501    0  0.29939782098E+02 -0.38667592999E+02  0.20080359839E+02  0.53074326672E+02  0.47000000000E+01 0. -1.
        -11    1    4    4    0    0 -0.16792598346E+02  0.35254593134E+02 -0.24698591121E+02  0.46204957522E+02  0.00000000000E+00 0.  1.
         12    1    4    4    0    0  0.31856223162E+02 -0.41131720299E+01 -0.10682177964E+03  0.11154653622E+03  0.00000000000E+00 0. -1.
         -5    1    5    5    0  502 -0.38645056962E+02 -0.57008980604E+02  0.61574328860E+02  0.92503795985E+02  0.47000000000E+01 0.  1.
         13    1    6    6    0    0  0.21495752368E+02  0.40936482899E+02 -0.21964560229E+02  0.51188913918E+02  0.00000000000E+00 0. -1.
        -14    1    6    6    0    0 -0.27854102319E+02  0.23598669599E+02  0.31061050019E+02  0.47932630338E+02  0.00000000000E+00 0.  1.
</event>
<event>
12    1  0.1594900E-001  0.3234533E+03  0.7818608E-02  0.1074124E+00
         21   -1    0    0  501  502  0.00000000000E+00  0.00000000000E+00  0.24245330383E+04  0.24245330383E+04  0.00000000000E+00 0.  1.
         21   -1    0    0  502  503 -0.00000000000E+00 -0.00000000000E+00 -0.58050970987E+02  0.58050970987E+02  0.00000000000E+00 0. -1.
         -6    2    1    2    0  503 -0.23367375401E+03 -0.14089197163E+03  0.55369800967E+03  0.64125154538E+03  0.17368962997E+03 0.  0.
        -24    2    3    3    0    0 -0.14931614185E+03 -0.11915978766E+03  0.49283016944E+03  0.53487730732E+03  0.81962142226E+02 0.  0.
          6    2    1    2  501    0  0.23367375401E+03  0.14089197163E+03  0.18127840577E+04  0.18413324639E+04  0.17281560114E+03 0.  0.
         24    2    5    5    0    0  0.17336364296E+03  0.17095027916E+03  0.14115845525E+04  0.14344861240E+04  0.76814975849E+02 0.  0.
          5    1    5    5  501    0  0.60310111050E+02 -0.30058307534E+02  0.40119950513E+03  0.40684633987E+03  0.47000000000E+01 0. -1.
        -11    1    6    6    0    0  0.13072821179E+03  0.15171414166E+03  0.12610180937E+04  0.12768217099E+04  0.00000000000E+00 0.  1.
         12    1    6    6    0    0  0.42635431177E+02  0.19236137507E+02  0.15056645881E+03  0.15766441417E+03  0.00000000000E+00 0. -1.
         -5    1    3    3    0  503 -0.84357612164E+02 -0.21732183969E+02  0.60867840226E+02  0.10637423806E+03  0.47000000000E+01 0.  1.
         11    1    4    4    0    0 -0.53381234521E+02 -0.69789229028E+02  0.13449849197E+03  0.16065471368E+03  0.00000000000E+00 0. -1.
        -12    1    4    4    0    0 -0.95934907329E+02 -0.49370558633E+02  0.35833167748E+03  0.37422259364E+03  0.00000000000E+00 0.  1.
</event>
<event>
12    1  0.1594900E-001  0.2056761E+03  0.7818608E-02  0.1146618E+00
         21   -1    0    0  503  502  0.00000000000E+00  0.00000000000E+00  0.11492197517E+04  0.11492197517E+04  0.00000000000E+00 0.  1.
         21   -1    0    0  501  503 -0.00000000000E+00 -0.00000000000E+00 -0.14612409043E+03  0.14612409043E+03  0.00000000000E+00 0.  1.
          6    2    1    2  501    0  0.69172055984E+02 -0.69963581453E+02 -0.64360591796E+02  0.20825345964E+03  0.17189398365E+03 0.  0.
         24    2    3    3    0    0  0.36118698782E+02 -0.11256363016E+03 -0.59557580799E+02  0.15391703091E+03  0.78537989145E+02 0.  0.
         -6    2    1    2    0  502 -0.69172055984E+02  0.69963581453E+02  0.10674562531E+04  0.10870903825E+04  0.18061830321E+03 0.  0.
        -24    2    5    5    0    0 -0.10841865418E+03  0.12549840959E+02  0.66221081204E+03  0.67589384732E+03  0.79982686802E+02 0.  0.
          5    1    3    3  501    0  0.33053357202E+02  0.42600048703E+02 -0.48030109964E+01  0.54336428723E+02  0.47000000000E+01 0. -1.
        -13    1    4    4    0    0  0.69754473854E+01 -0.87381266659E-01  0.14528503073E+02  0.16116510269E+02  0.00000000000E+00 0.  1.
         14    1    4    4    0    0  0.29143251397E+02 -0.11247624889E+03 -0.74086083872E+02  0.13780052064E+03  0.00000000000E+00 0. -1.
         -5    1    5    5    0  502  0.39246598192E+02  0.57413740494E+02  0.40524544104E+03  0.41119653519E+03  0.47000000000E+01 0.  1.
         11    1    6    6    0    0 -0.49569379911E+02  0.30517306407E+02  0.16657006911E+03  0.17644834184E+03  0.00000000000E+00 0. -1.
        -12    1    6    6    0    0 -0.58849274265E+02 -0.17967465449E+02  0.49564074293E+03  0.49944550549E+03  0.00000000000E+00 0.  1.
</event>
<event>
12    1  0.1594900E-001  0.2546438E+03  0.7818608E-02  0.1110449E+00
         21   -1    0    0  503  502  0.00000000000E+00  0.00000000000E+00  0.13442601405E+03  0.13442601405E+03  0.00000000000E+00 0.  1.
         21   -1    0    0  501  503 -0.00000000000E+00 -0.00000000000E+00 -0.48313202850E+03  0.48313202850E+03  0.00000000000E+00 0. -1.
          6    2    1    2  501    0  0.12398412373E+03  0.14159570990E+03 -0.15842990028E+03  0.29990584107E+03  0.17152863378E+03 0.  0.
         24    2    3    3    0    0  0.69909215975E+02  0.16182024769E+03 -0.13934056750E+03  0.23891715193E+03  0.81194339046E+02 0.  0.
         -6    2    1    2    0  502 -0.12398412373E+03 -0.14159570990E+03 -0.19027611418E+03  0.31765220148E+03  0.17110380907E+03 0.  0.
        -24    2    5    5    0    0 -0.95359533478E+02 -0.20609161558E+02 -0.12006689192E+03  0.17479375078E+03  0.81354892964E+02 0.  0.
          5    1    3    3  501    0  0.54074907757E+02 -0.20224537788E+02 -0.19089332775E+02  0.60988689143E+02  0.47000000000E+01 0. -1.
        -13    1    4    4    0    0  0.19792950199E+02  0.61903184871E+02 -0.65167841011E+01  0.65316411795E+02  0.00000000000E+00 0.  1.
         14    1    4    4    0    0  0.50116265776E+02  0.99917062817E+02 -0.13282378340E+03  0.17360074013E+03  0.00000000000E+00 0. -1.
         -5    1    5    5    0  502 -0.28624590254E+02 -0.12098654834E+03 -0.70209222256E+02  0.14285845070E+03  0.47000000000E+01 0.  1.
         11    1    6    6    0    0 -0.46197766726E+02  0.43415326456E+00 -0.11142581513E+03  0.12062393799E+03  0.00000000000E+00 0. -1.
        -12    1    6    6    0    0 -0.49161766752E+02 -0.21043314823E+02 -0.86410767938E+01  0.54169812784E+02  0.00000000000E+00 0.  1.
</event>
<event>
12    1  0.1594900E-001  0.1771173E+03  0.7818608E-02  0.1170755E+00
         21   -1    0    0  503  502  0.00000000000E+00  0.00000000000E+00  0.21582986295E+03  0.21582986295E+03  0.00000000000E+00 0. -1.
         21   -1    0    0  501  503 -0.00000000000E+00 -0.00000000000E+00 -0.20512641227E+03  0.20512641227E+03  0.00000000000E+00 0. -1.
          6    2    1    2  501    0 -0.37721243187E+02 -0.12067753834E+02 -0.10869244756E+03  0.20735405484E+03  0.17208466820E+03 0.  0.
         24    2    3    3    0    0  0.69498821955E+01  0.47318850588E+02 -0.92757812005E+02  0.13120761147E+03  0.79523902919E+02 0.  0.
         -6    2    1    2    0  502  0.37721243187E+02  0.12067753834E+02  0.11939589824E+03  0.21360222039E+03  0.17263257273E+03 0.  0.
        -24    2    5    5    0    0 -0.21430394174E+02 -0.31358923145E+02  0.65841843159E+02  0.12263563701E+03  0.96237764412E+02 0.  0.
          5    1    3    3  501    0 -0.44671125383E+02 -0.59386604422E+02 -0.15934635554E+02  0.76146443371E+02  0.47000000000E+01 0. -1.
        -11    1    4    4    0    0  0.36321812154E+02  0.70163528633E+01 -0.63215873656E+02  0.73244453222E+02  0.00000000000E+00 0.  1.
         12    1    4    4    0    0 -0.29371929959E+02  0.40302497724E+02 -0.29541938350E+02  0.57963158246E+02  0.00000000000E+00 0. -1.
         -5    1    5    5    0  502  0.59151637362E+02  0.43426676979E+02  0.53554055078E+02  0.90966583377E+02  0.47000000000E+01 0.  1.
         11    1    6    6    0    0  0.56755661718E+01 -0.33163950256E+02 -0.15377431260E+02  0.36993581066E+02  0.00000000000E+00 0. -1.
        -12    1    6    6    0    0 -0.27105960346E+02  0.18050271104E+01  0.81219274420E+02  0.85642055944E+02  0.00000000000E+00 0.  1.
</event>
<event>
12    1  0.1594900E-001  0.1925536E+03  0.7818608E-02  0.1156374E+00
         21   -1    0    0  503  502  0.00000000000E+00  0.00000000000E+00  0.39348695263E+03  0.39348695263E+03  0.00000000000E+00 0.  1.
         21   -1    0    0  501  503 -0.00000000000E+00 -0.00000000000E+00 -0.15819898991E+03  0.15819898991E+03  0.00000000000E+00 0. -1.
          6    2    1    2  501    0 -0.93412009681E+01 -0.83699714713E+02 -0.58518269321E+02  0.20040403168E+03  0.17217574681E+03 0.  0.
         24    2    3    3    0    0  0.44169062448E+02 -0.81219635196E+02 -0.81453866352E+00  0.12152875281E+03  0.78873563803E+02 0.  0.
         -6    2    1    2    0  502  0.93412009681E+01  0.83699714713E+02  0.29380623205E+03  0.35128191086E+03  0.17315882487E+03 0.  0.
        -24    2    5    5    0    0  0.39353944723E+02  0.32168531098E+02  0.27251010428E+03  0.28778511779E+03  0.77297928358E+02 0.  0.
          5    1    3    3  501    0 -0.53510263416E+02 -0.24800795164E+01 -0.57703730657E+02  0.78875278871E+02  0.47000000000E+01 0. -1.
        -13    1    4    4    0    0  0.16604356702E+02 -0.86646450935E+02  0.14694318260E+02  0.89438443134E+02  0.00000000000E+00 0.  1.
         14    1    4    4    0    0  0.27564705746E+02  0.54268157387E+01 -0.15508856924E+02  0.32090309674E+02  0.00000000000E+00 0. -1.
         -5    1    5    5    0  502 -0.30012743754E+02  0.51531183615E+02  0.21296127761E+02  0.63496793069E+02  0.47000000000E+01 0.  1.
         13    1    6    6    0    0  0.84666174376E+00 -0.24104862527E+02  0.79917858313E+02  0.83478292453E+02  0.00000000000E+00 0. -1.
        -14    1    6    6    0    0  0.38507282979E+02  0.56273393625E+02  0.19259224597E+03  0.20430682534E+03  0.00000000000E+00 0.  1.
</event>
<event>
12    1  0.1594900E-001  0.1732842E+03  0.7818608E-02  0.1174549E+00
         21   -1    0    0  501  502  0.00000000000E+00  0.00000000000E+00  0.81189946127E+02  0.81189946127E+02  0.00000000000E+00 0.  1.
         21   -1    0    0  502  503 -0.00000000000E+00 -0.00000000000E+00 -0.37920325347E+03  0.37920325347E+03  0.00000000000E+00 0.  1.
         -6    2    1    2    0  503 -0.70488188081E+01 -0.23240067416E+02 -0.11137081969E+03  0.20571135572E+03  0.17124227227E+03 0.  0.
        -24    2    3    3    0    0 -0.69847098319E+02 -0.28207437909E+02 -0.55493094398E+02  0.12137447848E+03  0.77317551713E+02 0.  0.
          6    2    1    2  501    0  0.70488188081E+01  0.23240067416E+02 -0.18664248766E+03  0.25468184388E+03  0.17157399810E+03 0.  0.
         24    2    5    5    0    0 -0.36317460447E+02  0.66408412042E+02 -0.98543914302E+02  0.14731523463E+03  0.79131789980E+02 0.  0.
          5    1    5    5  501    0  0.43366279256E+02 -0.43168344627E+02 -0.88098573354E+02  0.10736660925E+03  0.47000000000E+01 0. -1.
        -11    1    6    6    0    0 -0.66145553782E+01  0.45983402477E+02 -0.45895009796E+01  0.46682857298E+02  0.00000000000E+00 0.  1.
         12    1    6    6    0    0 -0.29702905069E+02  0.20425009565E+02 -0.93954413322E+02  0.10063237733E+03  0.00000000000E+00 0. -1.
         -5    1    3    3    0  503  0.62798279510E+02  0.49673704931E+01 -0.55877725291E+02  0.84336877241E+02  0.47000000000E+01 0.  1.
         13    1    4    4    0    0 -0.13380011332E+02  0.25679851923E+02 -0.81356167310E+01  0.30077695351E+02  0.00000000000E+00 0. -1.
        -14    1    4    4    0    0 -0.56467086987E+02 -0.53887289832E+02 -0.47357477667E+02  0.91296783126E+02  0.00000000000E+00 0.  1.
</event>
<event>
12    1  0.1594900E-001  0.1932794E+03  0.7818608E-02  0.1155560E+00
         21   -1    0    0  501  502  0.00000000000E+00  0.00000000000E+00  0.25945832149E+03  0.25945832149E+03  0.00000000000E+00 0. -1.
         21   -1    0    0  502  503 -0.00000000000E+00 -0.00000000000E+00 -0.18159810919E+03  0.18159810919E+03  0.00000000000E+00 0. -1.
         -6    2    1    2    0  503  0.85247304837E+02 -0.92430778641E+01 -0.61555651213E+02  0.20274215625E+03  0.17309750505E+03 0.  0.
        -24    2    3    3    0    0  0.62259683026E+02  0.53339309011E+02 -0.62444036486E+01  0.11598727160E+03  0.81808951717E+02 0.  0.
          6    2    1    2  501    0 -0.85247304837E+02  0.92430778641E+01  0.13941586352E+03  0.23831427443E+03  0.17321770385E+03 0.  0.
         24    2    5    5    0    0  0.17545033014E+02  0.81441303926E+01  0.32276391226E+02  0.89759809909E+02  0.81491735783E+02 0.  0.
          5    1    5    5  501    0 -0.10279233785E+03  0.10989474714E+01  0.10713947229E+03  0.14855446452E+03  0.47000000000E+01 0. -1.
        -11    1    6    6    0    0 -0.46285937533E+01  0.42540612911E+02  0.15109669008E+02  0.45380940101E+02  0.00000000000E+00 0.  1.
         12    1    6    6    0    0  0.22173626767E+02 -0.34396482518E+02  0.17166722219E+02  0.44378869807E+02  0.00000000000E+00 0. -1.
         -5    1    3    3    0  503  0.22987621810E+02 -0.62582386875E+02 -0.55311247564E+02  0.86754884650E+02  0.47000000000E+01 0.  1.
         11    1    4    4    0    0 -0.86112211995E+01  0.27984720705E+02 -0.24904828047E+02  0.38438888948E+02  0.00000000000E+00 0. -1.
        -12    1    4    4    0    0  0.70870904226E+02  0.25354588307E+02  0.18660424398E+02  0.77548382657E+02  0.00000000000E+00 0.  1.
</event>
<event>
12    1  0.1594900E-001  0.1939190E+03  0.7818608E-02  0.1155287E+00
         21   -1    0    0  503  502  0.00000000000E+00  0.00000000000E+00  0.93139787286E+03  0.93139787286E+03  0.00000000000E+00 0. -1.
         21   -1    0    0  501  503 -0.00000000000E+00 -0.00000000000E+00 -0.21569114454E+03  0.21569114454E+03  0.00000000000E+00 0. -1.
          6    2    1    2  501    0  0.81053421477E+02  0.37661431769E+02 -0.15942272154E+03  0.25103822357E+03  0.17209458148E+03 0.  0.
         24    2    3    3    0    0  0.10046922988E+02 -0.39243013478E+02 -0.61592259117E+02  0.10768863025E+03  0.78500190663E+02 0.  0.
         -6    2    1    2    0  502 -0.81053421477E+02 -0.37661431769E+02  0.87512944987E+03  0.89605079383E+03  0.17049173155E+03 0.  0.
        -24    2    5    5    0    0 -0.92962084256E+02 -0.70945528751E+02  0.78354716441E+03  0.79777031575E+03  0.93894092951E+02 0.  0.
          5    1    3    3  501    0  0.71006498489E+02  0.76904445248E+02 -0.97830462425E+02  0.14334959332E+03  0.47000000000E+01 0. -1.
        -13    1    4    4    0    0  0.83955554883E+01 -0.86072531310E+01  0.18419415923E+02  0.21996477931E+02  0.00000000000E+00 0.  1.
         14    1    4    4    0    0  0.16513675001E+01 -0.30635760347E+02 -0.80011675040E+02  0.85692152321E+02  0.00000000000E+00 0. -1.
         -5    1    5    5    0  502  0.11908662778E+02  0.33284096981E+02  0.91582285460E+02  0.98280478077E+02  0.47000000000E+01 0.  1.
         13    1    6    6    0    0 -0.37151778175E+02 -0.52564206170E+02  0.17623201722E+03  0.18761922685E+03  0.00000000000E+00 0. -1.
        -14    1    6    6    0    0 -0.55810306081E+02 -0.18381322581E+02  0.60731514719E+03  0.61015108890E+03  0.00000000000E+00 0.  1.
</event>
<event>
12    1  0.1594900E-001  0.2998272E+03  0.7818608E-02  0.1086381E+00
         21   -1    0    0  503  502  0.00000000000E+00  0.00000000000E+00  0.36546026545E+03  0.36546026545E+03  0.00000000000E+00 0.  1.
         21   -1    0    0  501  503 -0.00000000000E+00 -0.00000000000E+00 -0.42579998432E+03  0.42579998432E+03  0.00000000000E+00 0. -1.
          6    2    1    2  501    0 -0.17039399450E+03  0.16232914150E+03 -0.29228749529E+03  0.41872223225E+03  0.18577261460E+03 0.  0.
         24    2    3    3    0    0 -0.62488679208E+02  0.15402731158E+03 -0.18381392861E+03  0.26542160565E+03  0.95035891394E+02 0.  0.
         -6    2    1    2    0  502  0.17039399450E+03 -0.16232914150E+03  0.23194777642E+03  0.37253801753E+03  0.17204633090E+03 0.  0.
        -24    2    5    5    0    0  0.11335536948E+03 -0.18042185372E+03  0.20703342548E+03  0.30754905029E+03  0.79511596531E+02 0.  0.
          5    1    3    3  501    0 -0.10790531529E+03  0.83018299194E+01 -0.10847356668E+03  0.15330062660E+03  0.47000000000E+01 0. -1.
        -11    1    4    4    0    0  0.10762869755E+02  0.67381001984E+02 -0.30630279730E+02  0.74794737984E+02  0.00000000000E+00 0.  1.
         12    1    4    4    0    0 -0.73251548962E+02  0.86646309595E+02 -0.15318364888E+03  0.19062686766E+03  0.00000000000E+00 0. -1.
         -5    1    5    5    0  502  0.57038625014E+02  0.18092712219E+02  0.24914350942E+02  0.64988967231E+02  0.47000000000E+01 0.  1.
         13    1    6    6    0    0  0.56366166521E+02 -0.25878112470E+02  0.46244800338E+02  0.77365386263E+02  0.00000000000E+00 0. -1.
        -14    1    6    6    0    0  0.56989202962E+02 -0.15454374125E+03  0.16078862514E+03  0.23018366403E+03  0.00000000000E+00 0.  1.
</event>
<event>
12    1  0.1594900E-001  0.1899607E+03  0.7818608E-02  0.1160503E+00
         21   -1    0    0  503  502  0.00000000000E+00  0.00000000000E+00  0.29784011557E+02  0.29784011557E+02  0.00000000000E+00 0.  1.
         21   -1    0    0  501  503 -0.00000000000E+00 -0.00000000000E+00 -0.15856268191E+04  0.15856268191E+04  0.00000000000E+00 0.  1.
          6    2    1    2  501    0 -0.29479948648E+02 -0.48642740889E+02 -0.12111082737E+04  0.12259152958E+04  0.18124535349E+03 0.  0.
         24    2    3    3    0    0 -0.60332033268E+02  0.73579569342E+00 -0.38261283245E+03  0.39536314378E+03  0.79239764451E+02 0.  0.
         -6    2    1    2    0  502  0.29479948648E+02  0.48642740889E+02 -0.34473453380E+03  0.38949553485E+03  0.17213276637E+03 0.  0.
        -24    2    5    5    0    0  0.28133584533E+02  0.34208023034E+02 -0.66382668780E+02  0.11072676949E+03  0.76759829009E+02 0.  0.
          5    1    3    3  501    0  0.30852084620E+02 -0.49378536583E+02 -0.82849544129E+03  0.83055215203E+03  0.47000000000E+01 0. -1.
        -11    1    4    4    0    0 -0.43169498522E+02 -0.12731759636E+02 -0.36374836859E+03  0.36652227621E+03  0.00000000000E+00 0.  1.
         12    1    4    4    0    0 -0.17162534745E+02  0.13467555330E+02 -0.18864463860E+02  0.28840867569E+02  0.00000000000E+00 0. -1.
         -5    1    5    5    0  502  0.13463641149E+01  0.14434717856E+02 -0.27835186502E+03  0.27876876535E+03  0.47000000000E+01 0.  1.
         13    1    6    6    0    0  0.16351517769E+02 -0.45966710278E+01 -0.68050817415E+02  0.70138543389E+02  0.00000000000E+00 0. -1.
        -14    1    6    6    0    0  0.11782066764E+02  0.38804694061E+02  0.16681486350E+01  0.40588226104E+02  0.00000000000E+00 0.  1.
</event>
<event>
12    1  0.1594900E-001  0.2064504E+03  0.7818608E-02  0.1144644E+00
         21   -1    0    0  503  502  0.00000000000E+00  0.00000000000E+00  0.14348120891E+03  0.14348120891E+03  0.00000000000E+00 0. -1.
         21   -1    0    0  501  503 -0.00000000000E+00 -0.00000000000E+00 -0.55616239134E+03  0.55616239134E+03  0.00000000000E+00 0. -1.
          6    2    1    2  501    0 -0.75076488412E+02 -0.84367647567E+02  0.33510494329E+02  0.20800473366E+03  0.17143114340E+03 0.  0.
         24    2    3    3    0    0 -0.23806553667E+02 -0.11372204018E+03  0.49711504282E+01  0.14222578016E+03  0.81877993290E+02 0.  0.
         -6    2    1    2    0  502  0.75076488412E+02  0.84367647567E+02 -0.44619167675E+03  0.49163886659E+03  0.17282182636E+03 0.  0.
        -24    2    5    5    0    0  0.11132797130E+03  0.38028379436E+02 -0.27191497622E+03  0.30763898580E+03  0.82848756505E+02 0.  0.
          5    1    3    3  501    0 -0.51269934746E+02  0.29354392609E+02  0.28539343901E+02  0.65778953507E+02  0.47000000000E+01 0. -1.
        -11    1    4    4    0    0  0.11222037041E+02 -0.50244817300E+01 -0.21708283656E+02  0.24948529241E+02  0.00000000000E+00 0.  1.
         12    1    4    4    0    0 -0.35028590708E+02 -0.10869755845E+03  0.26679434084E+02  0.11727725091E+03  0.00000000000E+00 0. -1.
         -5    1    5    5    0  502 -0.36251482884E+02  0.46339268132E+02 -0.17427670053E+03  0.18399988079E+03  0.47000000000E+01 0.  1.
         13    1    6    6    0    0  0.63176610321E+02  0.30627552554E+02 -0.67125762133E+02  0.97134952561E+02  0.00000000000E+00 0. -1.
        -14    1    6    6    0    0  0.48151360975E+02  0.74008268813E+01 -0.20478921409E+03  0.21050403324E+03  0.00000000000E+00 0.  1.
</event>
<event>
12    1  0.1594900E-001  0.1867352E+03  0.7818608E-02  0.1161672E+00
         21   -1    0    0  503  502  0.00000000000E+00  0.00000000000E+00  0.71523784762E+03  0.71523784762E+03  0.00000000000E+00 0. -1.
         21   -1    0    0  501  503 -0.00000000000E+00 -0.00000000000E+00 -0.50322120145E+02  0.50322120145E+02  0.00000000000E+00 0. -1.
          6    2    1    2  501    0 -0.65315469626E+02 -0.16413200808E+02  0.25856090809E+03  0.31835275576E+03  0.17308734840E+03 0.  0.
         24    2    3    3    0    0  0.14565865190E+02 -0.15389604922E+02  0.51024184079E+02  0.95921514224E+02  0.78412149324E+02 0.  0.
         -6    2    1    2    0  502  0.65315469626E+02  0.16413200808E+02  0.40635481939E+03  0.44720721201E+03  0.17416815867E+03 0.  0.
        -24    2    5    5    0    0 -0.29066405746E+01 -0.44061312094E+02  0.19833215905E+03  0.22003560232E+03  0.84440352874E+02 0.  0.
          5    1    3    3  501    0 -0.79881334815E+02 -0.10235958860E+01  0.20753672401E+03  0.22243124154E+03  0.47000000000E+01 0. -1.
        -13    1    4    4    0    0 -0.15919347303E+02 -0.37248160946E+02  0.39747317467E+02  0.56751214597E+02  0.00000000000E+00 0.  1.
         14    1    4    4    0    0  0.30485212493E+02  0.21858556025E+02  0.11276866612E+02  0.39170299626E+02  0.00000000000E+00 0. -1.
         -5    1    5    5    0  502  0.68222110200E+02  0.60474512901E+02  0.20802266034E+03  0.22717160968E+03  0.47000000000E+01 0.  1.
         13    1    6    6    0    0 -0.17807106259E+02 -0.20352915717E+02  0.87895469962E+01  0.28435723094E+02  0.00000000000E+00 0. -1.
        -14    1    6    6    0    0  0.14900465684E+02 -0.23708396377E+02  0.18954261205E+03  0.19159987923E+03  0.00000000000E+00 0.  1.
</event>
<event>
12    1  0.1594900E-001  0.2958365E+03  0.7818608E-02  0.1087460E+00
         21   -1    0    0  503  502  0.00000000000E+00  0.00000000000E+00  0.20739589639E+03  0.20739589639E+03  0.00000000000E+00 0.  1.
         21   -1    0    0  501  503 -0.00000000000E+00 -0.00000000000E+00 -0.42244640172E+03  0.42244640172E+03  0.00000000000E+00 0. -1.
          6    2    1    2  501    0  0.58582501635E+02  0.23245101285E+03 -0.12817522984E+03  0.32240991382E+03  0.17336054948E+03 0.  0.
         24    2    3    3    0    0  0.82949594175E+02  0.21505141850E+03 -0.65159446853E+02  0.25248438209E+03  0.79842732373E+02 0.  0.
         -6    2    1    2    0  502 -0.58582501635E+02 -0.23245101285E+03 -0.86875275487E+02  0.30743238429E+03  0.17176138841E+03 0.  0.
        -24    2    5    5    0    0  0.26195182659E+02 -0.16259270484E+03 -0.70582451013E+02  0.19627940376E+03  0.80132057802E+02 0.  0.
          5    1    3    3  501    0 -0.24367092540E+02  0.17399594344E+02 -0.63015782986E+02  0.69925531728E+02  0.47000000000E+01 0. -1.
        -13    1    4    4    0    0  0.53558450238E+02  0.11989428951E+03  0.37656233753E+01  0.13136715026E+03  0.00000000000E+00 0.  1.
         14    1    4    4    0    0  0.29391143937E+02  0.95157128998E+02 -0.68925070229E+02  0.12111723183E+03  0.00000000000E+00 0. -1.
         -5    1    5    5    0  502 -0.84777684294E+02 -0.69858308005E+02 -0.16292824473E+02  0.11115298053E+03  0.47000000000E+01 0.  1.
         11    1    6    6    0    0  0.40009385787E+02 -0.15948721424E+03 -0.51082417176E+02  0.17218111338E+03  0.00000000000E+00 0. -1.
        -12    1    6    6    0    0 -0.13814203127E+02 -0.31054905976E+01 -0.19500033837E+02  0.24098290387E+02  0.00000000000E+00 0.  1.
</event>
<event>
12    1  0.1594900E-001  0.2209899E+03  0.7818608E-02  0.1133175E+00
         21   -1    0    0  503  502  0.00000000000E+00  0.00000000000E+00  0.12823695824E+03  0.12823695824E+03  0.00000000000E+00 0. -1.
         21   -1    0    0  501  503 -0.00000000000E+00 -0.00000000000E+00 -0.39245392898E+03  0.39245392898E+03  0.00000000000E+00 0.  1.
          6    2    1    2  501    0 -0.11887316341E+03  0.71055363667E+02 -0.86858515959E+02  0.23744667942E+03  0.17221158523E+03 0.  0.
         24    2    3    3    0    0 -0.91579021592E+01  0.25021597094E+01 -0.74129964782E+02  0.10736560339E+03  0.77084324853E+02 0.  0.
         -6    2    1    2    0  502  0.11887316341E+03 -0.71055363667E+02 -0.17735845478E+03  0.28324420780E+03  0.17202199302E+03 0.  0.
        -24    2    5    5    0    0  0.89221775415E+02 -0.39589295412E+01 -0.17099888741E+03  0.20946297455E+03  0.81596077597E+02 0.  0.
          5    1    3    3  501    0 -0.10971526126E+03  0.68553203957E+02 -0.12728551178E+02  0.13008107603E+03  0.47000000000E+01 0. -1.
        -11    1    4    4    0    0 -0.97673998157E+01 -0.68035564957E+01  0.14208821546E+02  0.18535940490E+02  0.00000000000E+00 0.  1.
         12    1    4    4    0    0  0.60949765658E+00  0.93057162050E+01 -0.88338786327E+02  0.88829662902E+02  0.00000000000E+00 0. -1.
         -5    1    5    5    0  502  0.29651387999E+02 -0.67096434126E+02 -0.63595673696E+01  0.73781233249E+02  0.47000000000E+01 0.  1.
         11    1    6    6    0    0 -0.88333969506E+01  0.17762676738E+02 -0.37266058380E+02  0.42217303251E+02  0.00000000000E+00 0. -1.
        -12    1    6    6    0    0  0.98055172365E+02 -0.21721606279E+02 -0.13373282903E+03  0.16724567130E+03  0.00000000000E+00 0.  1.
</event>
<event>
12    1  0.1594900E-001  0.2355897E+03  0.7818608E-02  0.1122996E+00
         21   -1    0    0  501  502  0.00000000000E+00  0.00000000000E+00  0.68967930324E+03  0.68967930324E+03  0.00000000000E+00 0. -1.
         21   -1    0    0  502  503 -0.00000000000E+00 -0.00000000000E+00 -0.14915397816E+03  0.14915397816E+03  0.00000000000E+00 0. -1.
         -6    2    1    2    0  503 -0.15915897629E+03  0.14396238857E+02 -0.14872544628E+02  0.23605869770E+03  0.17310021591E+03 0.  0.
        -24    2    3    3    0    0 -0.80440196926E+02  0.21088914343E+02  0.58047766177E+02  0.12844410827E+03  0.78822447325E+02 0.  0.
          6    2    1    2  501    0  0.15915897629E+03 -0.14396238857E+02  0.55539786971E+03  0.60277458370E+03  0.17126463046E+03 0.  0.
         24    2    5    5    0    0  0.26318248395E+02 -0.19163819966E+02  0.32810739706E+03  0.33942607359E+03  0.80595863631E+02 0.  0.
          5    1    5    5  501    0  0.13284072789E+03  0.47675811088E+01  0.22729047265E+03  0.26334851011E+03  0.47000000000E+01 0. -1.
        -11    1    6    6    0    0  0.21574797953E+02 -0.42655916153E+02  0.10911707796E+03  0.11912823255E+03  0.00000000000E+00 0.  1.
         12    1    6    6    0    0  0.47434504413E+01  0.23492096186E+02  0.21899031910E+03  0.22029784104E+03  0.00000000000E+00 0. -1.
         -5    1    3    3    0  503 -0.78718779361E+02 -0.66926754852E+01 -0.72920310805E+02  0.10761458942E+03  0.47000000000E+01 0.  1.
         13    1    4    4    0    0 -0.32452002488E+02  0.42885285038E+02  0.52983300205E+02  0.75495100761E+02  0.00000000000E+00 0. -1.
        -14    1    4    4    0    0 -0.47988194438E+02 -0.21796370695E+02  0.50644659717E+01  0.52949007512E+02  0.00000000000E+00 0.  1.
</event>
<event>
12    1  0.1594900E-001  0.2288031E+03  0.7818608E-02  0.1127592E+00
         21   -1    0    0  501  502  0.00000000000E+00  0.00000000000E+00  0.26835530198E+03  0.26835530198E+03  0.00000000000E+00 0.  1.
         21   -1    0    0  502  503 -0.00000000000E+00 -0.00000000000E+00 -0.22659474374E+03  0.22659474374E+03  0.00000000000E+00 0. -1.
         -6    2    1    2    0  503  0.11257308764E+03  0.10013949366E+03 -0.72138054866E+02  0.23990569989E+03  0.17219241455E+03 0.  0.
        -24    2    3    3    0    0  0.11954334102E+03  0.12925879364E+03 -0.77456992269E+02  0.20913397328E+03  0.82091333355E+02 0.  0.
          6    2    1    2  501    0 -0.11257308764E+03 -0.10013949366E+03  0.11389861311E+03  0.25504434583E+03  0.17138875699E+03 0.  0.
         24    2    5    5    0    0 -0.88320663262E+01  0.63582194265E+00  0.24557191155E+02  0.84980112630E+02  0.80871220097E+02 0.  0.
          5    1    5    5  501    0 -0.10374102132E+03 -0.10077531560E+03  0.89341421954E+02  0.17006423320E+03  0.47000000000E+01 0. -1.
        -11    1    6    6    0    0 -0.10708043534E+02  0.13609132359E+01  0.54202400323E+02  0.55266757476E+02  0.00000000000E+00 0.  1.
         12    1    6    6    0    0  0.18759772075E+01 -0.72509129326E+00 -0.29645209168E+02  0.29713355154E+02  0.00000000000E+00 0. -1.
         -5    1    3    3    0  503 -0.69702533790E+01 -0.29119299983E+02  0.53189374025E+01  0.30771726614E+02  0.47000000000E+01 0.  1.
         13    1    4    4    0    0  0.79058750010E+02  0.13180367653E+03 -0.61500594283E+02  0.16554400683E+03  0.00000000000E+00 0. -1.
        -14    1    4    4    0    0  0.40484591014E+02 -0.25448828896E+01 -0.15956397985E+02  0.43589966450E+02  0.00000000000E+00 0.  1.
</event>
<event>
12    1  0.1594900E-001  0.1926594E+03  0.7818608E-02  0.1156638E+00
         21   -1    0    0  503  502  0.00000000000E+00  0.00000000000E+00  0.18932992270E+03  0.18932992270E+03  0.00000000000E+00 0. -1.
         21   -1    0    0  501  503 -0.00000000000E+00 -0.00000000000E+00 -0.23746731511E+03  0.23746731511E+03  0.00000000000E+00 0. -1.
          6    2    1    2  501    0 -0.80565312254E+02  0.10240738518E+02 -0.11598805654E+03  0.22487968766E+03  0.17470547329E+03 0.  0.
         24    2    3    3    0    0 -0.11656934602E+03 -0.59651191278E+01 -0.11801104933E+03  0.18506633853E+03  0.81847094108E+02 0.  0.
         -6    2    1    2    0  502  0.80565312254E+02 -0.10240738518E+02  0.67850664139E+02  0.20191755015E+03  0.17196320004E+03 0.  0.
        -24    2    5    5    0    0  0.10957852922E+02 -0.45373282799E+02 -0.58554126513E+01  0.94520297770E+02  0.81981653439E+02 0.  0.
          5    1    3    3  501    0  0.36004033765E+02  0.16205857646E+02  0.20229927935E+01  0.39813349134E+02  0.47000000000E+01 0. -1.
        -13    1    4    4    0    0 -0.85222079064E+02 -0.31537936255E+02 -0.44552309239E+02  0.10120450801E+03  0.00000000000E+00 0.  1.
         14    1    4    4    0    0 -0.31347266956E+02  0.25572817128E+02 -0.73458740096E+02  0.83861830518E+02  0.00000000000E+00 0. -1.
         -5    1    5    5    0  502  0.69607459332E+02  0.35132544281E+02  0.73706076790E+02  0.10739725238E+03  0.47000000000E+01 0.  1.
         11    1    6    6    0    0  0.29413736615E+02 -0.60963875161E+02  0.53275265541E+01  0.67898045005E+02  0.00000000000E+00 0. -1.
        -12    1    6    6    0    0 -0.18455883692E+02  0.15590592362E+02 -0.11182939205E+02  0.26622252766E+02  0.00000000000E+00 0.  1.
</event>
<event>
12    1  0.1594900E-001  0.1881962E+03  0.7818608E-02  0.1160174E+00
         21   -1    0    0  503  502  0.00000000000E+00  0.00000000000E+00  0.11968180719E+04  0.11968180719E+04  0.00000000000E+00 0.  1.
         21   -1    0    0  501  503 -0.00000000000E+00 -0.00000000000E+00 -0.33772713430E+02  0.33772713430E+02  0.00000000000E+00 0. -1.
          6    2    1    2  501    0 -0.21044676892E+02 -0.71465648227E+02  0.36417522545E+03  0.40992854107E+03  0.17282244254E+03 0.  0.
         24    2    3    3    0    0 -0.67119706207E+02 -0.58409736129E+01  0.24158833175E+03  0.26337089796E+03  0.80374970745E+02 0.  0.
         -6    2    1    2    0  502  0.21044676892E+02  0.71465648227E+02  0.79887013301E+03  0.82066224426E+03  0.17246104612E+03 0.  0.
        -24    2    5    5    0    0 -0.16067042644E+02  0.10584783648E+03  0.49384958916E+03  0.51143896446E+03  0.78870040628E+02 0.  0.
          5    1    3    3  501    0  0.46075029315E+02 -0.65624674614E+02  0.12258689370E+03  0.14655764311E+03  0.47000000000E+01 0. -1.
        -13    1    4    4    0    0 -0.70378432227E+02 -0.48736242303E+01  0.24705693145E+03  0.25693190404E+03  0.00000000000E+00 0.  1.
         14    1    4    4    0    0  0.32587260196E+01 -0.96734938259E+00 -0.54685996991E+01  0.64389939251E+01  0.00000000000E+00 0. -1.
         -5    1    5    5    0  502  0.37111719536E+02 -0.34382188252E+02  0.30502054385E+03  0.30922327979E+03  0.47000000000E+01 0.  1.
         11    1    6    6    0    0 -0.14844684671E+01  0.63898163474E+02  0.12972460491E+03  0.14461553188E+03  0.00000000000E+00 0. -1.
        -12    1    6    6    0    0 -0.14582574177E+02  0.41949673006E+02  0.36412498426E+03  0.36682343259E+03  0.00000000000E+00 0.  1.
</event>
<event>
12    1  0.1594900E-001  0.1945197E+03  0.7818608E-02  0.1155493E+00
         21   -1    0    0  503  502  0.00000000000E+00  0.00000000000E+00  0.79438871972E+03  0.79438871972E+03  0.00000000000E+00 0.  1.
         21   -1    0    0  501  503 -0.00000000000E+00 -0.00000000000E+00 -0.46503144773E+02  0.46503144773E+02  0.00000000000E+00 0. -1.
          6    2    1    2  501    0  0.19437707991E+02  0.79518826218E+02  0.37818587151E+03  0.42314101222E+03  0.17123870647E+03 0.  0.
         24    2    3    3    0    0 -0.43703767237E+02  0.15898541601E+02  0.24467423142E+03  0.26226269003E+03  0.82179414499E+02 0.  0.
         -6    2    1    2    0  502 -0.19437707991E+02 -0.79518826218E+02  0.36969970343E+03  0.41775085227E+03  0.17645632786E+03 0.  0.
        -24    2    5    5    0    0 -0.69733599738E+02 -0.37572417734E+02  0.14472179515E+03  0.18338718801E+03  0.80074972546E+02 0.  0.
          5    1    3    3  501    0  0.63141475228E+02  0.63620284617E+02  0.13351164009E+03  0.16087832218E+03  0.47000000000E+01 0. -1.
        -13    1    4    4    0    0  0.15000663583E+01  0.25817093132E+02  0.18473532670E+03  0.18653662758E+03  0.00000000000E+00 0.  1.
         14    1    4    4    0    0 -0.45203833595E+02 -0.99185515317E+01  0.59938904718E+02  0.75726062455E+02  0.00000000000E+00 0. -1.
         -5    1    5    5    0  502  0.50295891747E+02 -0.41946408483E+02  0.22497790828E+03  0.23436366426E+03  0.47000000000E+01 0.  1.
         11    1    6    6    0    0 -0.50174684355E+02 -0.62796346831E+02  0.10978995575E+03  0.13606878595E+03  0.00000000000E+00 0. -1.
        -12    1    6    6    0    0 -0.19558915383E+02  0.25223929096E+02  0.34931839402E+02  0.47318402066E+02  0.00000000000E+00 0.  1.
</event>
<event>
12    1  0.1594900E-001  0.2174535E+03  0.7818608E-02  0.1135846E+00
         21   -1    0    0  503  502  0.00000000000E+00  0.00000000000E+00  0.40201332839E+03  0.40201332839E+03  0.00000000000E+00 0. -1.
         21   -1    0    0  501  503 -0.00000000000E+00 -0.00000000000E+00 -0.15286436644E+03  0.15286436644E+03  0.00000000000E+00 0.  1.
          6    2    1    2  501    0  0.80287490421E+02  0.10591182185E+03 -0.89659003214E+01  0.21737314675E+03  0.17177689727E+03 0.  0.
         24    2    3    3    0    0 -0.94947036690E+01  0.94263574899E+02 -0.19687143077E+02  0.12608481739E+03  0.80833326185E+02 0.  0.
         -6    2    1    2    0  502 -0.80287490421E+02 -0.10591182185E+03  0.25811486227E+03  0.33750454808E+03  0.17211229684E+03 0.  0.
        -24    2    5    5    0    0 -0.11220833903E+03 -0.10409710991E+03  0.24963285565E+03  0.30409394809E+03  0.82034425700E+02 0.  0.
          5    1    3    3  501    0  0.89782194090E+02  0.11648246953E+02  0.10721242755E+02  0.91288329368E+02  0.47000000000E+01 0. -1.
        -13    1    4    4    0    0 -0.42837428266E+02  0.31108717898E+02 -0.11742573595E+02  0.54228088887E+02  0.00000000000E+00 0.  1.
         14    1    4    4    0    0  0.33342724597E+02  0.63154857000E+02 -0.79445694821E+01  0.71856728499E+02  0.00000000000E+00 0. -1.
         -5    1    5    5    0  502  0.31920848611E+02 -0.18147119390E+01  0.84820066109E+01  0.33410599989E+02  0.47000000000E+01 0.  1.
         11    1    6    6    0    0 -0.12229919009E+03 -0.90750968320E+02  0.19784732428E+03  0.24967257333E+03  0.00000000000E+00 0. -1.
        -12    1    6    6    0    0  0.10090851061E+02 -0.13346141593E+02  0.51785531378E+02  0.54421374759E+02  0.00000000000E+00 0.  1.
</event>
<event>
12    1  0.1594900E-001  0.2454255E+03  0.7818608E-02  0.1116585E+00
         21   -1    0    0  501  502  0.00000000000E+00  0.00000000000E+00  0.12404023699E+03  0.12404023699E+03  0.00000000000E+00 0. -1.
         21   -1    0    0  502  503 -0.00000000000E+00 -0.00000000000E+00 -0.79556628625E+03  0.79556628625E+03  0.00000000000E+00 0. -1.
         -6    2    1    2    0  503 -0.11357945339E+03  0.13131372734E+03 -0.62384798634E+03  0.66959277475E+03  0.17036603748E+03 0.  0.
        -24    2    3    3    0    0 -0.12874190424E+03  0.54890093360E+02 -0.47306808308E+03  0.49980720125E+03  0.80164998155E+02 0.  0.
          6    2    1    2  501    0  0.11357945339E+03 -0.13131372734E+03 -0.47678062923E+02  0.25001374849E+03  0.17346495187E+03 0.  0.
         24    2    5    5    0    0  0.42151875021E+02  0.26953525573E+01  0.19337497134E+01  0.90189612641E+02  0.79664178569E+02 0.  0.
          5    1    5    5  501    0  0.71427578374E+02 -0.13400907989E+03 -0.49611812637E+02  0.15982413585E+03  0.47000000000E+01 0. -1.
        -13    1    6    6    0    0  0.13885708979E+00 -0.63816894445E+01 -0.33735823224E+02  0.34334399807E+02  0.00000000000E+00 0.  1.
         14    1    6    6    0    0  0.42013017931E+02  0.90770420018E+01  0.35669572938E+02  0.55855212834E+02  0.00000000000E+00 0. -1.
         -5    1    3    3    0  503  0.15162450848E+02  0.76423633976E+02 -0.15077990326E+03  0.16978557351E+03  0.47000000000E+01 0.  1.
         13    1    4    4    0    0 -0.11063688614E+02 -0.20870911146E+01 -0.16184209884E+03  0.16223324601E+03  0.00000000000E+00 0. -1.
        -14    1    4    4    0    0 -0.11767821563E+03  0.56977184475E+02 -0.31122598424E+03  0.33757395524E+03  0.00000000000E+00 0.  1.
</event>
<event>
12    1  0.1594900E-001  0.1865523E+03  0.7818608E-02  0.1161711E+00
         21   -1    0    0  501  502  0.00000000000E+00  0.00000000000E+00  0.12944414073E+03  0.12944414073E+03  0.00000000000E+00 0. -1.
         21   -1    0    0  502  503 -0.00000000000E+00 -0.00000000000E+00 -0.26823524312E+03  0.26823524312E+03  0.00000000000E+00 0. -1.
         -6    2    1    2    0  503 -0.16031200417E+02  0.69842943537E+02 -0.71244810992E+02  0.19969367830E+03  0.17224025636E+03 0.  0.
        -24    2    3    3    0    0 -0.12829570524E+02  0.43918356770E+02  0.36457794099E+02  0.88769038219E+02  0.66763399063E+02 0.  0.
          6    2    1    2  501    0  0.16031200417E+02 -0.69842943537E+02 -0.67546291398E+02  0.19798570555E+03  0.17175797498E+03 0.  0.
         24    2    5    5    0    0  0.83098961090E+01 -0.11109466907E+03 -0.25163031859E+02  0.13815465935E+03  0.77733209501E+02 0.  0.
          5    1    5    5  501    0  0.77213043079E+01  0.41251725532E+02 -0.42383259539E+02  0.59831046194E+02  0.47000000000E+01 0. -1.
        -13    1    6    6    0    0 -0.18836021850E+01  0.54243189322E+01  0.13739219917E+02  0.14890848095E+02  0.00000000000E+00 0.  1.
         14    1    6    6    0    0  0.10193498294E+02 -0.11651898800E+03 -0.38902251776E+02  0.12326381126E+03  0.00000000000E+00 0. -1.
         -5    1    3    3    0  503 -0.32016298927E+01  0.25924586767E+02 -0.10770260509E+03  0.11092464008E+03  0.47000000000E+01 0.  1.
         13    1    4    4    0    0  0.23805174028E+02  0.13392939091E+02 -0.21715318389E+01  0.27400231359E+02  0.00000000000E+00 0. -1.
        -14    1    4    4    0    0 -0.36634744553E+02  0.30525417679E+02  0.38629325938E+02  0.61368806859E+02  0.00000000000E+00 0.  1.
</event>
<event>
12    1  0.1594900E-001  0.1918739E+03  0.7818608E-02  0.1156806E+00
         21   -1    0    0  503  502  0.00000000000E+00  0.00000000000E+00  0.50195681374E+03  0.50195681374E+03  0.00000000000E+00 0. -1.
         21   -1    0    0  501  503 -0.00000000000E+00 -0.00000000000E+00 -0.10124656822E+03  0.10124656822E+03  0.00000000000E+00 0.  1.
          6    2    1    2  501    0 -0.70972715094E+02  0.49993517654E+02  0.41865606218E+02  0.19628191084E+03  0.17098941910E+03 0.  0.
         24    2    3    3    0    0  0.19589781495E+02  0.25547133137E+02 -0.12446593909E+02  0.87787226241E+02  0.80717184296E+02 0.  0.
         -6    2    1    2    0  502  0.70972715094E+02 -0.49993517654E+02  0.35884463930E+03  0.40692147111E+03  0.17111145607E+03 0.  0.
        -24    2    5    5    0    0 -0.29230550585E+02 -0.30278467529E+02  0.14415185785E+03  0.16913068478E+03  0.77808866654E+02 0.  0.
          5    1    3    3  501    0 -0.90562496589E+02  0.24446384518E+02  0.54312200127E+02  0.10849468460E+03  0.47000000000E+01 0. -1.
        -11    1    4    4    0    0 -0.21818093144E+02 -0.19289415468E+01 -0.28152808729E+02  0.35669744087E+02  0.00000000000E+00 0.  1.
         12    1    4    4    0    0  0.41407874639E+02  0.27476074684E+02  0.15706214820E+02  0.52117482154E+02  0.00000000000E+00 0. -1.
         -5    1    5    5    0  502  0.10020326568E+03 -0.19715050125E+02  0.21469278146E+03  0.23779078633E+03  0.47000000000E+01 0.  1.
         11    1    6    6    0    0 -0.47828070012E+02 -0.12044938622E+02  0.13095142522E+03  0.13993169975E+03  0.00000000000E+00 0. -1.
        -12    1    6    6    0    0  0.18597519426E+02 -0.18233528908E+02  0.13200432624E+02  0.29198985028E+02  0.00000000000E+00 0.  1.
</event>
<event>
12    1  0.1594900E-001  0.2197031E+03  0.7818608E-02  0.1134307E+00
         21   -1    0    0  503  502  0.00000000000E+00  0.00000000000E+00  0.14609840546E+03  0.14609840546E+03  0.00000000000E+00 0.  1.
         21   -1    0    0  501  503 -0.00000000000E+00 -0.00000000000E+00 -0.34098767913E+03  0.34098767913E+03  0.00000000000E+00 0.  1.
          6    2    1    2  501    0  0.12769369552E+03 -0.42486774279E+02 -0.51113606117E+02  0.22452014433E+03  0.17229593325E+03 0.  0.
         24    2    3    3    0    0  0.10691175939E+03  0.32913331933E+02 -0.15387533346E+02  0.13840680528E+03  0.80039089518E+02 0.  0.
         -6    2    1    2    0  502 -0.12769369552E+03  0.42486774279E+02 -0.14377566755E+03  0.26256594026E+03  0.17366238667E+03 0.  0.
        -24    2    5    5    0    0 -0.14650245791E+03  0.63198575194E+02 -0.97677173105E+02  0.20843730246E+03  0.91914355967E+02 0.  0.
          5    1    3    3  501    0  0.20781936124E+02 -0.75400106212E+02 -0.35726072770E+02  0.86113339045E+02  0.47000000000E+01 0. -1.
        -13    1    4    4    0    0  0.64956326420E+02  0.35064392967E+01  0.28428141456E+02  0.70991398670E+02  0.00000000000E+00 0.  1.
         14    1    4    4    0    0  0.41955432975E+02  0.29406892637E+02 -0.43815674802E+02  0.67415406614E+02  0.00000000000E+00 0. -1.
         -5    1    5    5    0  502  0.18808762390E+02 -0.20711800915E+02 -0.46098494447E+02  0.54128637800E+02  0.47000000000E+01 0.  1.
         13    1    6    6    0    0 -0.46864285975E+02  0.50071875004E+02 -0.41902708928E+00  0.68583012110E+02  0.00000000000E+00 0. -1.
        -14    1    6    6    0    0 -0.99638171933E+02  0.13126700190E+02 -0.97258146015E+02  0.13985429035E+03  0.00000000000E+00 0.  1.
</event>
<event>
12    1  0.1594900E-001  0.2558363E+03  0.7818608E-02  0.1109743E+00
         21   -1    0    0  503  502  0.00000000000E+00  0.00000000000E+00  0.11160470335E+04  0.11160470335E+04  0.00000000000E+00 0.  1.
         21   -1    0    0  501  503 -0.00000000000E+00 -0.00000000000E+00 -0.15434815688E+03  0.15434815688E+03  0.00000000000E+00 0. -1.
          6    2    1    2  501    0  0.39559616499E+01  0.18946882929E+03 -0.19771463113E+02  0.25612883878E+03  0.17116361879E+03 0.  0.
         24    2    3    3    0    0  0.42820642976E+02  0.81766998230E+02 -0.58069503478E+02  0.13530260916E+03  0.80095438990E+02 0.  0.
         -6    2    1    2    0  502 -0.39559616499E+01 -0.18946882929E+03  0.98147033975E+03  0.10142663516E+04  0.17186656829E+03 0.  0.
        -24    2    5    5    0    0  0.19091476741E+02 -0.30097339164E+02  0.46246620056E+03  0.47083480783E+03  0.80870855652E+02 0.  0.
          5    1    3    3  501    0 -0.38864681326E+02  0.10770183106E+03  0.38298040365E+02  0.12082622962E+03  0.47000000000E+01 0. -1.
        -11    1    4    4    0    0  0.22085529749E+02 -0.12367570105E+02 -0.72246398306E+01  0.26323427499E+02  0.00000000000E+00 0.  1.
         12    1    4    4    0    0  0.20735113227E+02  0.94134568335E+02 -0.50844863647E+02  0.10897918166E+03  0.00000000000E+00 0. -1.
         -5    1    5    5    0  502 -0.23047438391E+02 -0.15937149013E+03  0.51900413919E+03  0.54343154378E+03  0.47000000000E+01 0.  1.
         11    1    6    6    0    0  0.39225085026E+02 -0.92952551185E+00  0.11384321621E+03  0.12041490435E+03  0.00000000000E+00 0. -1.
        -12    1    6    6    0    0 -0.20133608285E+02 -0.29167813652E+02  0.34862298435E+03  0.35041990348E+03  0.00000000000E+00 0.  1.
</event>
<event>
12    1  0.1594900E-001  0.2233234E+03  0.7818608E-02  0.1131572E+00
         21   -1    0    0  501  502  0.00000000000E+00  0.00000000000E+00  0.52202243595E+03  0.52202243595E+03  0.00000000000E+00 0.  1.
         21   -1    0    0  502  503 -0.00000000000E+00 -0.00000000000E+00 -0.95205990409E+02  0.95205990409E+02  0.00000000000E+00 0. -1.
         -6    2    1    2    0  503  0.15415576089E+02 -0.14194719493E+03  0.21399825435E+03  0.30874027672E+03  0.17070049639E+03 0.  0.
        -24    2    3    3    0    0 -0.44878107881E+02 -0.32619843553E+02  0.95304117805E+02  0.13640865995E+03  0.80289157919E+02 0.  0.
          6    2    1    2  501    0 -0.15415576089E+02  0.14194719493E+03  0.21281819119E+03  0.30848814964E+03  0.17171694684E+03 0.  0.
         24    2    5    5    0    0 -0.73015807112E+02  0.11558682065E+03  0.16517544964E+03  0.22908678461E+03  0.80661047130E+02 0.  0.
          5    1    5    5  501    0  0.57600231024E+02  0.26360374284E+02  0.47642741543E+02  0.79401365027E+02  0.47000000000E+01 0. -1.
        -13    1    6    6    0    0 -0.66075890694E+02  0.38890711755E+02  0.53734967926E+02  0.93626692614E+02  0.00000000000E+00 0.  1.
         14    1    6    6    0    0 -0.69399164178E+01  0.76696108891E+02  0.11144048172E+03  0.13546009200E+03  0.00000000000E+00 0. -1.
         -5    1    3    3    0  503  0.60293683970E+02 -0.10932735138E+03  0.11869413655E+03  0.17233161676E+03  0.47000000000E+01 0.  1.
         13    1    4    4    0    0 -0.45007269861E+02 -0.21938747002E+02  0.10846174485E+03  0.11946092690E+03  0.00000000000E+00 0. -1.
        -14    1    4    4    0    0  0.12916197916E+00 -0.10681096551E+02 -0.13157627042E+02  0.16947733055E+02  0.00000000000E+00 0.  1.
</event>
<event>
12    1  0.1594900E-001  0.1763895E+03  0.7818608E-02  0.1172019E+00
         21   -1    0    0  501  502  0.00000000000E+00  0.00000000000E+00  0.10014690015E+03  0.10014690015E+03  0.00000000000E+00 0.  1.
         21   -1    0    0  502  503 -0.00000000000E+00 -0.00000000000E+00 -0.11367992733E+04  0.11367992733E+04  0.00000000000E+00 0.  1.
         -6    2    1    2    0  503  0.29594723376E+02  0.23164347267E+02 -0.10481347976E+04  0.10628733682E+04  0.17233922450E+03 0.  0.
        -24    2    3    3    0    0 -0.76205187307E+00  0.64077357762E+02 -0.43740167791E+03  0.45000107997E+03  0.84108594258E+02 0.  0.
          6    2    1    2  501    0 -0.29594723376E+02 -0.23164347267E+02  0.11482424459E+02  0.17407280522E+03  0.16957906949E+03 0.  0.
         24    2    5    5    0    0 -0.74227442516E+02 -0.51791763095E+02  0.55773202470E+01  0.12051378347E+03  0.79374842101E+02 0.  0.
          5    1    5    5  501    0  0.44632719140E+02  0.28627415828E+02  0.59051042119E+01  0.53559021748E+02  0.47000000000E+01 0. -1.
        -11    1    6    6    0    0 -0.26406939823E+02 -0.64518650547E+02  0.11569979596E+02  0.70667157627E+02  0.00000000000E+00 0.  1.
         12    1    6    6    0    0 -0.47820502692E+02  0.12726887452E+02 -0.59926593487E+01  0.49846625844E+02  0.00000000000E+00 0. -1.
         -5    1    3    3    0  503  0.30356775249E+02 -0.40913010495E+02 -0.61073311966E+03  0.61287228823E+03  0.47000000000E+01 0.  1.
         13    1    4    4    0    0  0.23295816071E+02  0.35254630309E+01 -0.25907203553E+03  0.26014119922E+03  0.00000000000E+00 0. -1.
        -14    1    4    4    0    0 -0.24057867944E+02  0.60551894731E+02 -0.17832964238E+03  0.18985988075E+03  0.00000000000E+00 0.  1.
</event>
<event>
12    1  0.1594900E-001  0.2039886E+03  0.7818608E-02  0.1147278E+00
         21   -1    0    0  503  502  0.00000000000E+00  0.00000000000E+00  0.60001145782E+02  0.60001145782E+02  0.00000000000E+00 0. -1.
         21   -1    0    0  501  503 -0.00000000000E+00 -0.00000000000E+00 -0.72080881885E+03  0.72080881885E+03  0.00000000000E+00 0. -1.
          6    2    1    2  501    0 -0.55138606395E+02 -0.83538681615E+02 -0.24013337914E+03  0.31507997834E+03  0.17774244213E+03 0.  0.
         24    2    3    3    0    0 -0.45714064273E+02 -0.12280675833E+03 -0.22440689110E+03  0.27148850820E+03  0.78589323370E+02 0.  0.
         -6    2    1    2    0  502  0.55138606395E+02  0.83538681615E+02 -0.42067429393E+03  0.46572998629E+03  0.17296988558E+03 0.  0.
        -24    2    5    5    0    0  0.61083842051E+02  0.91683413940E+02 -0.18192167963E+03  0.22671830598E+03  0.78540490164E+02 0.  0.
          5    1    3    3  501    0 -0.94245421220E+01  0.39268076716E+02 -0.15726488046E+02  0.43591470146E+02  0.47000000000E+01 0. -1.
        -13    1    4    4    0    0 -0.18106478383E+02 -0.23463926366E+02 -0.63892120231E+01  0.30318681209E+02  0.00000000000E+00 0.  1.
         14    1    4    4    0    0 -0.27607585889E+02 -0.99342831965E+02 -0.21801767907E+03  0.24116982699E+03  0.00000000000E+00 0. -1.
         -5    1    5    5    0  502 -0.59452356569E+01 -0.81447323255E+01 -0.23875261430E+03  0.23901168031E+03  0.47000000000E+01 0.  1.
         11    1    6    6    0    0  0.27131394850E+02  0.86994167095E+02 -0.16500535549E+03  0.18849632632E+03  0.00000000000E+00 0. -1.
        -12    1    6    6    0    0  0.33952447201E+02  0.46892468456E+01 -0.16916324145E+02  0.38221979665E+02  0.00000000000E+00 0.  1.
</event>
<event>
12    1  0.1594900E-001  0.2159133E+03  0.7818608E-02  0.1137574E+00
         21   -1    0    0  501  502  0.00000000000E+00  0.00000000000E+00  0.10254168801E+04  0.10254168801E+04  0.00000000000E+00 0.  1.
         21   -1    0    0  502  503 -0.00000000000E+00 -0.00000000000E+00 -0.52190590057E+02  0.52190590057E+02  0.00000000000E+00 0. -1.
         -6    2    1    2    0  503  0.12316088440E+03  0.45787362046E+02  0.68626686084E+03  0.71849152249E+03  0.16734030485E+03 0.  0.
        -24    2    3    3    0    0  0.88752275537E+02  0.64049709746E+02  0.65350861881E+03  0.66737735489E+03  0.79622152950E+02 0.  0.
          6    2    1    2  501    0 -0.12316088440E+03 -0.45787362046E+02  0.28695942922E+03  0.35911594769E+03  0.17132852622E+03 0.  0.
         24    2    5    5    0    0 -0.12479084223E+03 -0.85100980011E+02  0.19837950937E+03  0.26207621603E+03  0.80712961580E+02 0.  0.
          5    1    5    5  501    0  0.16299578339E+01  0.39313617965E+02  0.88579919844E+02  0.97039731655E+02  0.47000000000E+01 0. -1.
        -11    1    6    6    0    0 -0.10575897587E+03 -0.30885825242E+02  0.10356688397E+03  0.15121175428E+03  0.00000000000E+00 0.  1.
         12    1    6    6    0    0 -0.19031866366E+02 -0.54215154769E+02  0.94812625400E+02  0.11086446175E+03  0.00000000000E+00 0. -1.
         -5    1    3    3    0  503  0.34408608862E+02 -0.18262347700E+02  0.32758242036E+02  0.51114167592E+02  0.47000000000E+01 0.  1.
         11    1    4    4    0    0  0.20422777709E+02  0.60541335879E+02  0.24584213163E+03  0.25400924566E+03  0.00000000000E+00 0. -1.
        -12    1    4    4    0    0  0.68329497829E+02  0.35083738676E+01  0.40766648718E+03  0.41336810923E+03  0.00000000000E+00 0.  1.
</event>
<event>
12    1  0.1594900E-001  0.2503332E+03  0.7818608E-02  0.1113289E+00
         21   -1    0    0  501  502  0.00000000000E+00  0.00000000000E+00  0.43138541112E+03  0.43138541112E+03  0.00000000000E+00 0.  1.
         21   -1    0    0  502  503 -0.00000000000E+00 -0.00000000000E+00 -0.44014833136E+03  0.44014833136E+03  0.00000000000E+00 0. -1.
         -6    2    1    2    0  503  0.16481334436E+02 -0.18013078154E+03 -0.36148813734E+03  0.43900419753E+03  0.17126669017E+03 0.  0.
        -24    2    3    3    0    0  0.74969546814E+02 -0.99219490131E+02 -0.19334887343E+03  0.24340151315E+03  0.79972305062E+02 0.  0.
          6    2    1    2  501    0 -0.16481334436E+02  0.18013078154E+03  0.35272521710E+03  0.43252954495E+03  0.17305489197E+03 0.  0.
         24    2    5    5    0    0 -0.26421050449E+02  0.18872195160E+03  0.36193865810E+03  0.41580878982E+03  0.74721553407E+02 0.  0.
          5    1    5    5  501    0  0.99397160131E+01 -0.85911700539E+01 -0.92134409958E+01  0.16720755135E+02  0.47000000000E+01 0. -1.
        -13    1    6    6    0    0 -0.51508134860E+02  0.11344230894E+03  0.23816486241E+03  0.26878382968E+03  0.00000000000E+00 0.  1.
         14    1    6    6    0    0  0.25087084411E+02  0.75279642659E+02  0.12377379569E+03  0.14702496013E+03  0.00000000000E+00 0. -1.
         -5    1    3    3    0  503 -0.58488212378E+02 -0.80911291411E+02 -0.16813926392E+03  0.19560268438E+03  0.47000000000E+01 0.  1.
         11    1    4    4    0    0  0.62420110645E+02 -0.47758008801E+02 -0.56892855648E+02  0.97025226830E+02  0.00000000000E+00 0. -1.
        -12    1    4    4    0    0  0.12549436169E+02 -0.51461481330E+02 -0.13645601778E+03  0.14637628632E+03  0.00000000000E+00 0.  1.
</event>
<event>
12    1  0.1594900E-001  0.2552996E+03  0.7818608E-02  0.1110344E+00
         21   -1    0    0  501  502  0.00000000000E+00  0.00000000000E+00  0.49263235864E+03  0.49263235864E+03  0.00000000000E+00 0. -1.
         21   -1    0    0  502  503 -0.00000000000E+00 -0.00000000000E+00 -0.15887699875E+03  0.15887699875E+03  0.00000000000E+00 0. -1.
         -6    2    1    2    0  503 -0.17154487640E+03  0.69353963422E+02  0.31410582614E+02  0.25722458160E+03  0.17589839060E+03 0.  0.
        -24    2    3    3    0    0 -0.16880415142E+03  0.69391531107E+02  0.75145836228E+02  0.21315219349E+03  0.80479405821E+02 0.  0.
          6    2    1    2  501    0  0.17154487640E+03 -0.69353963422E+02  0.30234477727E+03  0.39428477579E+03  0.17265718409E+03 0.  0.
         24    2    5    5    0    0  0.18100249544E+03 -0.56776401295E+02  0.18595250047E+03  0.27673949207E+03  0.77594786814E+02 0.  0.
          5    1    5    5  501    0 -0.94576190380E+01 -0.12577562127E+02  0.11639227680E+03  0.11754528372E+03  0.47000000000E+01 0. -1.
        -11    1    6    6    0    0  0.81873226765E+02 -0.12432547809E+02  0.32974170275E+02  0.89135231033E+02  0.00000000000E+00 0.  1.
         12    1    6    6    0    0  0.99129268677E+02 -0.44343853487E+02  0.15297833020E+03  0.18760426104E+03  0.00000000000E+00 0. -1.
         -5    1    3    3    0  503 -0.27407249866E+01 -0.37567684706E-01 -0.43735253615E+02  0.44072388108E+02  0.47000000000E+01 0.  1.
         13    1    4    4    0    0 -0.87386818568E+02  0.55349144714E+02  0.30284902302E+01  0.10348505029E+03  0.00000000000E+00 0. -1.
        -14    1    4    4    0    0 -0.81417332849E+02  0.14042386393E+02  0.72117345998E+02  0.10966714320E+03  0.00000000000E+00 0.  1.
</event>
<event>
12    1  0.1594900E-001  0.1798668E+03  0.7818608E-02  0.1168745E+00
         21   -1    0    0  503  502  0.00000000000E+00  0.00000000000E+00  0.18541747003E+04  0.18541747003E+04  0.00000000000E+00 0. -1.
         21   -1    0    0  501  503 -0.00000000000E+00 -0.00000000000E+00 -0.17957136603E+02  0.17957136603E+02  0.00000000000E+00 0.  1.
          6    2    1    2  501    0 -0.20992758133E+02 -0.47827688411E+02  0.72506622451E+03  0.74704289847E+03  0.17211588702E+03 0.  0.
         24    2    3    3    0    0 -0.51134839313E+01 -0.41922483263E+02  0.16653442924E+03  0.18823445265E+03  0.76908066687E+02 0.  0.
         -6    2    1    2    0  502  0.20992758133E+02  0.47827688411E+02  0.11111513392E+04  0.11250889384E+04  0.16864055598E+03 0.  0.
        -24    2    5    5    0    0 -0.99336091815E+01  0.25456061622E+02  0.10488979888E+04  0.10519144926E+04  0.74769119767E+02 0.  0.
          5    1    3    3  501    0 -0.15879274202E+02 -0.59052051473E+01  0.55853179527E+03  0.55880844583E+03  0.47000000000E+01 0. -1.
        -11    1    4    4    0    0  0.11894825009E+02 -0.60380442616E+02  0.10389770474E+03  0.12075602578E+03  0.00000000000E+00 0.  1.
         12    1    4    4    0    0 -0.17008308941E+02  0.18457959353E+02  0.62636724499E+02  0.67478426867E+02  0.00000000000E+00 0. -1.
         -5    1    5    5    0  502  0.30926367315E+02  0.22371626788E+02  0.62253350375E+02  0.73174445768E+02  0.47000000000E+01 0.  1.
         13    1    6    6    0    0  0.82073682768E+01  0.25911890136E+02  0.12876030351E+03  0.13159788259E+03  0.00000000000E+00 0. -1.
        -14    1    6    6    0    0 -0.18140977458E+02 -0.45582851392E+00  0.92013768529E+03  0.92031661005E+03  0.00000000000E+00 0.  1.
</event>
<event>
12    1  0.1594900E-001  0.1913554E+03  0.7818608E-02  0.1157513E+00
         21   -1    0    0  501  502  0.00000000000E+00  0.00000000000E+00  0.17737532695E+03  0.17737532695E+03  0.00000000000E+00 0.  1.
         21   -1    0    0  502  503 -0.00000000000E+00 -0.00000000000E+00 -0.21491384975E+03  0.21491384975E+03  0.00000000000E+00 0.  1.
         -6    2    1    2    0  503 -0.81574888051E+02  0.69844781763E+01 -0.60636215472E+02  0.20073278172E+03  0.17295564094E+03 0.  0.
        -24    2    3    3    0    0 -0.76983194158E+02 -0.58565445774E+02 -0.27429300589E+02  0.12695835947E+03  0.77522479876E+02 0.  0.
          6    2    1    2  501    0  0.81574888051E+02 -0.69844781763E+01  0.23097692671E+02  0.19155639498E+03  0.17163071914E+03 0.  0.
         24    2    5    5    0    0  0.19607209308E+02 -0.13658507436E+02  0.72116686699E+02  0.11212411155E+03  0.82462127108E+02 0.  0.
          5    1    5    5  501    0  0.61967678743E+02  0.66740292598E+01 -0.49018994028E+02  0.79432283430E+02  0.47000000000E+01 0. -1.
        -11    1    6    6    0    0 -0.27505244482E+02 -0.20801282975E+02  0.46895667715E+02  0.58210269694E+02  0.00000000000E+00 0.  1.
         12    1    6    6    0    0  0.47112453791E+02  0.71427755385E+01  0.25221018984E+02  0.53913841851E+02  0.00000000000E+00 0. -1.
         -5    1    3    3    0  503 -0.45916938933E+01  0.65549923950E+02 -0.33206914883E+02  0.73774422253E+02  0.47000000000E+01 0.  1.
         11    1    4    4    0    0 -0.47158518972E+02 -0.10765066023E+02  0.20932997752E+02  0.52706763826E+02  0.00000000000E+00 0. -1.
        -12    1    4    4    0    0 -0.29824675186E+02 -0.47800379751E+02 -0.48362298341E+02  0.74251595640E+02  0.00000000000E+00 0.  1.
</event>
<event>
12    1  0.1594900E-001  0.1813220E+03  0.7818608E-02  0.1166799E+00
         21   -1    0    0  503  502  0.00000000000E+00  0.00000000000E+00  0.80949867492E+02  0.80949867492E+02  0.00000000000E+00 0. -1.
         21   -1    0    0  501  503 -0.00000000000E+00 -0.00000000000E+00 -0.41174829085E+03  0.41174829085E+03  0.00000000000E+00 0. -1.
          6    2    1    2  501    0  0.47107290791E+02 -0.34203706412E+02 -0.19945866399E+03  0.26880580356E+03  0.17053976372E+03 0.  0.
         24    2    3    3    0    0  0.52438344764E+02  0.25679955440E+02 -0.18100801930E+03  0.20574242764E+03  0.78465300391E+02 0.  0.
         -6    2    1    2    0  502 -0.47107290791E+02  0.34203706412E+02 -0.13133975938E+03  0.22389235479E+03  0.17172263614E+03 0.  0.
        -24    2    5    5    0    0 -0.91588731860E+02 -0.60711374841E+01 -0.92003364407E+02  0.15198892219E+03  0.78807733708E+02 0.  0.
          5    1    3    3  501    0 -0.53310539730E+01 -0.59883661852E+02 -0.18450644686E+02  0.63063375921E+02  0.47000000000E+01 0. -1.
        -11    1    4    4    0    0 -0.14936861220E+02  0.11718862742E+02 -0.88143598502E+02  0.90165046021E+02  0.00000000000E+00 0.  1.
         12    1    4    4    0    0  0.67375205984E+02  0.13961092698E+02 -0.92864420797E+02  0.11557738161E+03  0.00000000000E+00 0. -1.
         -5    1    5    5    0  502  0.44481441069E+02  0.40274843896E+02 -0.39336394968E+02  0.71903432599E+02  0.47000000000E+01 0.  1.
         13    1    6    6    0    0 -0.19131021571E+02  0.75749121813E+01  0.12513394290E+02  0.24082365281E+02  0.00000000000E+00 0. -1.
        -14    1    6    6    0    0 -0.72457710289E+02 -0.13646049665E+02 -0.10451675870E+03  0.12790655691E+03  0.00000000000E+00 0.  1.
</event>
<event>
12    1  0.1594900E-001  0.2390686E+03  0.7818608E-02  0.1120654E+00
         21   -1    0    0  503  502  0.00000000000E+00  0.00000000000E+00  0.11658816945E+03  0.11658816945E+03  0.00000000000E+00 0.  1.
         21   -1    0    0  501  503 -0.00000000000E+00 -0.00000000000E+00 -0.48738383199E+03  0.48738383199E+03  0.00000000000E+00 0. -1.
          6    2    1    2  501    0  0.48201602215E+02  0.16007190301E+03 -0.18988437581E+03  0.30530288926E+03  0.17090163670E+03 0.  0.
         24    2    3    3    0    0 -0.20392234283E+02  0.14802769574E+03 -0.12636466343E+03  0.21092587302E+03  0.78699770132E+02 0.  0.
         -6    2    1    2    0  502 -0.48201602215E+02 -0.16007190301E+03 -0.18091128672E+03  0.29866911218E+03  0.16890215012E+03 0.  0.
        -24    2    5    5    0    0 -0.87110370514E+02 -0.14270209764E+03 -0.11224467524E+03  0.21771977047E+03  0.82770320859E+02 0.  0.
          5    1    3    3  501    0  0.68593836497E+02  0.12044207268E+02 -0.63519712382E+02  0.94377016245E+02  0.47000000000E+01 0. -1.
        -11    1    4    4    0    0 -0.30900194249E+02  0.74942057852E+02 -0.23680238551E+02  0.84450504661E+02  0.00000000000E+00 0.  1.
         12    1    4    4    0    0  0.10507959967E+02  0.73085637893E+02 -0.10268442487E+03  0.12647536836E+03  0.00000000000E+00 0. -1.
         -5    1    5    5    0  502  0.38908768299E+02 -0.17369805374E+02 -0.68666611488E+02  0.80949341705E+02  0.47000000000E+01 0.  1.
         13    1    6    6    0    0 -0.57182057905E+02 -0.77772167006E+02 -0.10977611628E+03  0.14618171367E+03  0.00000000000E+00 0. -1.
        -14    1    6    6    0    0 -0.29928312609E+02 -0.64929930632E+02 -0.24685589562E+01  0.71538056801E+02  0.00000000000E+00 0.  1.
</event>
<event>
12    1  0.1594900E-001  0.2318525E+03  0.7818608E-02  0.1125607E+00
         21   -1    0    0  503  502  0.00000000000E+00  0.00000000000E+00  0.15499322366E+04  0.15499322366E+04  0.00000000000E+00 0. -1.
         21   -1    0    0  501  503 -0.00000000000E+00 -0.00000000000E+00 -0.61464175732E+02  0.61464175732E+02  0.00000000000E+00 0. -1.
          6    2    1    2  501    0 -0.15165585741E+03  0.29720601332E+02  0.21152284930E+03  0.31384310155E+03  0.17283739000E+03 0.  0.
         24    2    3    3    0    0 -0.55112191387E+02  0.70920888735E+02  0.78495703453E+02  0.14432479969E+03  0.81246207589E+02 0.  0.
         -6    2    1    2    0  502  0.15165585741E+03 -0.29720601332E+02  0.12769452116E+04  0.12975533108E+04  0.17080019835E+03 0.  0.
        -24    2    5    5    0    0  0.16426079314E+03 -0.29490520647E+02  0.82892718825E+03  0.84933330168E+03  0.79971713490E+02 0.  0.
          5    1    3    3  501    0 -0.96543666023E+02 -0.41200287403E+02  0.13302714585E+03  0.16951830186E+03  0.47000000000E+01 0. -1.
        -13    1    4    4    0    0  0.85072741309E+01  0.30444921173E+02 -0.47944689478E+01  0.31972705092E+02  0.00000000000E+00 0.  1.
         14    1    4    4    0    0 -0.63619465518E+02  0.40475967561E+02  0.83290172401E+02  0.11235209460E+03  0.00000000000E+00 0. -1.
         -5    1    5    5    0  502 -0.12604935726E+02 -0.23008068485E+00  0.44801802334E+03  0.44822000913E+03  0.47000000000E+01 0.  1.
         11    1    6    6    0    0  0.77351082103E+02 -0.37806714194E+02  0.56025216109E+03  0.56682891735E+03  0.00000000000E+00 0. -1.
        -12    1    6    6    0    0  0.86909711034E+02  0.83161935469E+01  0.26867502717E+03  0.28250438434E+03  0.00000000000E+00 0.  1.
</event>
<event>
12    1  0.1594900E-001  0.2231331E+03  0.7818608E-02  0.1132038E+00
         21   -1    0    0  501  502  0.00000000000E+00  0.00000000000E+00  0.19070483478E+02  0.19070483478E+02  0.00000000000E+00 0.  1.
         21   -1    0    0  502  503 -0.00000000000E+00 -0.00000000000E+00 -0.27410617402E+04  0.27410617402E+04  0.00000000000E+00 0.  1.
         -6    2    1    2    0  503 -0.12535282838E+03 -0.36946846245E+02 -0.10348874028E+04  0.10586691313E+04  0.18085903932E+03 0.  0.
        -24    2    3    3    0    0 -0.90772760833E+02 -0.50511578090E+02 -0.39874785380E+03  0.42142867528E+03  0.88380788640E+02 0.  0.
          6    2    1    2  501    0  0.12535282838E+03  0.36946846245E+02 -0.16871038540E+04  0.17014630924E+04  0.17770436042E+03 0.  0.
         24    2    5    5    0    0  0.46557228111E+02  0.47373674131E+02 -0.45289167149E+03  0.46468531659E+03  0.80060832270E+02 0.  0.
          5    1    5    5  501    0  0.78795600264E+02 -0.10426827886E+02 -0.12342121825E+04  0.12367777758E+04  0.47000000000E+01 0. -1.
        -11    1    6    6    0    0  0.48811305913E+02  0.43367906229E+02 -0.45497675218E+03  0.45963807926E+03  0.00000000000E+00 0.  1.
         12    1    6    6    0    0 -0.22540778022E+01  0.40057679021E+01  0.20850806952E+01  0.50472373363E+01  0.00000000000E+00 0. -1.
         -5    1    3    3    0  503 -0.34580067543E+02  0.13564731845E+02 -0.63613954899E+03  0.63724045603E+03  0.47000000000E+01 0.  1.
         13    1    4    4    0    0 -0.58885381592E+02 -0.75503739548E+02 -0.28827682564E+03  0.30376278747E+03  0.00000000000E+00 0. -1.
        -14    1    4    4    0    0 -0.31887379240E+02  0.24992161458E+02 -0.11047102816E+03  0.11766588780E+03  0.00000000000E+00 0.  1.
</event>
<event>
12    1  0.1594900E-001  0.1777620E+03  0.7818608E-02  0.1170272E+00
         21   -1    0    0  501  502  0.00000000000E+00  0.00000000000E+00  0.15237358981E+03  0.15237358981E+03  0.00000000000E+00 0. -1.
         21   -1    0    0  502  503 -0.00000000000E+00 -0.00000000000E+00 -0.10595146347E+04  0.10595146347E+04  0.00000000000E+00 0. -1.
         -6    2    1    2    0  503 -0.20032195965E+02 -0.37925132360E+02 -0.99770450774E+03  0.10134168031E+04  0.17251007925E+03 0.  0.
        -24    2    3    3    0    0 -0.73740586983E+02 -0.53571894289E+02 -0.62879888589E+03  0.64026420659E+03  0.79010083678E+02 0.  0.
          6    2    1    2  501    0  0.20032195965E+02  0.37925132360E+02  0.90563462868E+02  0.19847142143E+03  0.17131713218E+03 0.  0.
         24    2    5    5    0    0  0.63449811232E+02 -0.77575476489E+01  0.60481661175E+02  0.12847855492E+03  0.93609025452E+02 0.  0.
          5    1    5    5  501    0 -0.43417615268E+02  0.45682680009E+02  0.30081801693E+02  0.69992866504E+02  0.47000000000E+01 0. -1.
        -13    1    6    6    0    0  0.43352787231E+02 -0.17101929510E+02 -0.15669437483E+02  0.49167788487E+02  0.00000000000E+00 0.  1.
         14    1    6    6    0    0  0.20097024001E+02  0.93443818613E+01  0.76151098658E+02  0.79310766438E+02  0.00000000000E+00 0. -1.
         -5    1    3    3    0  503  0.53708391019E+02  0.15646761929E+02 -0.36890562185E+03  0.37315259648E+03  0.47000000000E+01 0.  1.
         13    1    4    4    0    0 -0.77329337462E+02 -0.14307057589E+02 -0.47641157680E+03  0.48285868412E+03  0.00000000000E+00 0. -1.
        -14    1    4    4    0    0  0.35887504786E+01 -0.39264836700E+02 -0.15238730909E+03  0.15740552247E+03  0.00000000000E+00 0.  1.
</event>
<event>
12    1  0.1594900E-001  0.1876714E+03  0.7818608E-02  0.1160985E+00
         21   -1    0    0  503  502  0.00000000000E+00  0.00000000000E+00  0.50499672682E+03  0.50499672682E+03  0.00000000000E+00 0.  1.
         21   -1    0    0  501  503 -0.00000000000E+00 -0.00000000000E+00 -0.12647020980E+03  0.12647020980E+03  0.00000000000E+00 0.  1.
          6    2    1    2  501    0  0.70931569703E+02  0.10892818317E+02 -0.23893632359E+02  0.18743707055E+03  0.17149871334E+03 0.  0.
         24    2    3    3    0    0  0.21083986579E+02  0.63538995331E+02  0.15061255154E+02  0.10499936826E+03  0.79475074780E+02 0.  0.
         -6    2    1    2    0  502 -0.70931569703E+02 -0.10892818317E+02  0.40242014938E+03  0.44402986607E+03  0.17340877793E+03 0.  0.
        -24    2    5    5    0    0 -0.10284216419E+03  0.13921351770E+02  0.36835403425E+03  0.39095803476E+03  0.79957336299E+02 0.  0.
          5    1    3    3  501    0  0.49847583124E+02 -0.52646177014E+02 -0.38954887513E+02  0.82437702288E+02  0.47000000000E+01 0. -1.
        -13    1    4    4    0    0 -0.35329159863E+01 -0.17173294323E+02  0.10622652887E+02  0.20499860673E+02  0.00000000000E+00 0.  1.
         14    1    4    4    0    0  0.24616902565E+02  0.80712289654E+02  0.44386022671E+01  0.84499507591E+02  0.00000000000E+00 0. -1.
         -5    1    5    5    0  502  0.31910594492E+02 -0.24814170088E+02  0.34066115133E+02  0.53071831306E+02  0.47000000000E+01 0.  1.
         13    1    6    6    0    0 -0.97344842306E+01 -0.26284331963E+02  0.10717311951E+03  0.11077772265E+03  0.00000000000E+00 0. -1.
        -14    1    6    6    0    0 -0.93107679964E+02  0.40205683734E+02  0.26118091474E+03  0.28018031212E+03  0.00000000000E+00 0.  1.
</event>
<event>
12    1  0.1594900E-001  0.2253548E+03  0.7818608E-02  0.1130362E+00
         21   -1    0    0  501  502  0.00000000000E+00  0.00000000000E+00  0.28441799655E+03  0.28441799655E+03  0.00000000000E+00 0. -1.
         21   -1    0    0  502  503 -0.00000000000E+00 -0.00000000000E+00 -0.17679229958E+03  0.17679229958E+03  0.00000000000E+00 0.  1.
         -6    2    1    2    0  503 -0.57670027288E+02  0.13998502302E+03  0.51373877576E+02  0.22894095065E+03  0.16386898691E+03 0.  0.
        -24    2    3    3    0    0 -0.49620581278E+02  0.15549602133E+03  0.11026326688E+02  0.18472105114E+03  0.85785034354E+02 0.  0.
          6    2    1    2  501    0  0.57670027288E+02 -0.13998502302E+03  0.56251819393E+02  0.23226934548E+03  0.16692256572E+03 0.  0.
         24    2    5    5    0    0  0.65734332838E+02 -0.13035554153E+03 -0.85400262064E+01  0.16610414923E+03  0.78766024552E+02 0.  0.
          5    1    5    5  501    0 -0.80643055496E+01 -0.96294814853E+01  0.64791845599E+02  0.66165196242E+02  0.47000000000E+01 0. -1.
        -13    1    6    6    0    0  0.74085641257E+02 -0.69943188585E+02 -0.20571339387E+02  0.10394186776E+03  0.00000000000E+00 0.  1.
         14    1    6    6    0    0 -0.83513084193E+01 -0.60412352947E+02  0.12031313181E+02  0.62162281472E+02  0.00000000000E+00 0. -1.
         -5    1    3    3    0  503 -0.80494460105E+01 -0.15510998313E+02  0.40347550887E+02  0.44219899506E+02  0.47000000000E+01 0.  1.
         13    1    4    4    0    0 -0.29679991227E+02  0.64644257884E+02  0.46709071109E+02  0.85097116757E+02  0.00000000000E+00 0. -1.
        -14    1    4    4    0    0 -0.19940590051E+02  0.90851763447E+02 -0.35682744421E+02  0.99623934385E+02  0.00000000000E+00 0.  1.
</event>
<event>
12    1  0.1594900E-001  0.1910790E+03  0.7818608E-02  0.1157571E+00
         21   -1    0    0  503  502  0.00000000000E+00  0.00000000000E+00  0.34646166874E+03  0.34646166874E+03  0.00000000000E+00 0. -1.
         21   -1    0    0  501  503 -0.00000000000E+00 -0.00000000000E+00 -0.12746626392E+03  0.12746626392E+03  0.00000000000E+00 0. -1.
          6    2    1    2  501    0 -0.75807390828E+02  0.34700135181E+02  0.10515560124E+02  0.19136811134E+03  0.17193114072E+03 0.  0.
         24    2    3    3    0    0 -0.41975864657E+02  0.34371779449E+00  0.68718217802E+02  0.11564113504E+03  0.82997513821E+02 0.  0.
         -6    2    1    2    0  502  0.75807390828E+02 -0.34700135181E+02  0.20847984469E+03  0.28255982132E+03  0.17153817970E+03 0.  0.
        -24    2    5    5    0    0  0.54060757379E+02  0.47356560419E+02  0.89125636278E+02  0.13602063057E+03  0.73437208519E+02 0.  0.
          5    1    3    3  501    0 -0.33831526172E+02  0.34356417387E+02 -0.58202657678E+02  0.75726976300E+02  0.47000000000E+01 0. -1.
        -13    1    4    4    0    0 -0.28929502379E+02 -0.40021908992E+02  0.27647962475E+02  0.56595751928E+02  0.00000000000E+00 0.  1.
         14    1    4    4    0    0 -0.13046362277E+02  0.40365626786E+02  0.41070255326E+02  0.59045383114E+02  0.00000000000E+00 0. -1.
         -5    1    5    5    0  502  0.21746633450E+02 -0.82056695600E+02  0.11935420842E+03  0.14653919075E+03  0.47000000000E+01 0.  1.
         13    1    6    6    0    0  0.72085219018E+02  0.42750542679E+02  0.68469198606E+02  0.10822161918E+03  0.00000000000E+00 0. -1.
        -14    1    6    6    0    0 -0.18024461640E+02  0.46060177403E+01  0.20656437672E+02  0.27799011388E+02  0.00000000000E+00 0.  1.
</event>
<event>
12    1  0.1594900E-001  0.2373762E+03  0.7818608E-02  0.1123915E+00
         21   -1    0    0  503  502  0.00000000000E+00  0.00000000000E+00  0.10991080461E+03  0.10991080461E+03  0.00000000000E+00 0. -1.
         21   -1    0    0  501  503 -0.00000000000E+00 -0.00000000000E+00 -0.13555619618E+04  0.13555619618E+04  0.00000000000E+00 0.  1.
          6    2    1    2  501    0  0.14209910470E+03 -0.37621125263E+01 -0.12038051341E+04  0.12244363897E+04  0.17289118669E+03 0.  0.
         24    2    3    3    0    0  0.86952742946E+02 -0.17966781444E+02 -0.10905943477E+04  0.10976228810E+04  0.86581596460E+02 0.  0.
         -6    2    1    2    0  502 -0.14209910470E+03  0.37621125263E+01 -0.41846023132E+02  0.24103637678E+03  0.19010822242E+03 0.  0.
        -24    2    5    5    0    0 -0.17352196799E+03 -0.10659153129E+02 -0.58138565367E+01  0.19087886218E+03  0.78596744085E+02 0.  0.
          5    1    3    3  501    0  0.55146361751E+02  0.14204668918E+02 -0.11321078636E+03  0.12681350867E+03  0.47000000000E+01 0. -1.
        -13    1    4    4    0    0  0.91050165092E+02  0.33825767619E+01 -0.10115044858E+04  0.10155997731E+04  0.00000000000E+00 0.  1.
         14    1    4    4    0    0 -0.40974221465E+01 -0.21349358206E+02 -0.79089861952E+02  0.82023107888E+02  0.00000000000E+00 0. -1.
         -5    1    5    5    0  502  0.31422863291E+02  0.14421265656E+02 -0.36032166595E+02  0.50157514592E+02  0.47000000000E+01 0.  1.
         13    1    6    6    0    0 -0.13040549643E+03 -0.38109541781E+02 -0.21191116360E+02  0.13750270574E+03  0.00000000000E+00 0. -1.
        -14    1    6    6    0    0 -0.43116471557E+02  0.27450388651E+02  0.15377259823E+02  0.53376156440E+02  0.00000000000E+00 0.  1.
</event>
<event>
12    1  0.1594900E-001  0.2225442E+03  0.7818608E-02  0.1134014E+00
         21   -1    0    0  503  502  0.00000000000E+00  0.00000000000E+00  0.30466529720E+03  0.30466529720E+03  0.00000000000E+00 0.  1.
         21   -1    0    0  501  503 -0.00000000000E+00 -0.00000000000E+00 -0.16757026791E+03  0.16757026791E+03  0.00000000000E+00 0.  1.
          6    2    1    2  501    0  0.10850614124E+03 -0.84822267737E+02  0.19519698612E+01  0.21187123484E+03  0.16098822992E+03 0.  0.
         24    2    3    3    0    0  0.10755534536E+01 -0.19827969392E+02  0.23771199495E+02  0.84341791994E+02  0.78448472043E+02 0.  0.
         -6    2    1    2    0  502 -0.10850614124E+03  0.84822267737E+02  0.13514305943E+03  0.26036433027E+03  0.17480714566E+03 0.  0.
        -24    2    5    5    0    0 -0.24083541725E+02 -0.19895122804E+02  0.33505701441E+02  0.91707430828E+02  0.79446761713E+02 0.  0.
          5    1    3    3  501    0  0.10743058779E+03 -0.64994298345E+02 -0.21819229634E+02  0.12752944284E+03  0.47000000000E+01 0. -1.
        -11    1    4    4    0    0  0.32775516492E+02 -0.32502836228E+02  0.84707223431E+01  0.46929968903E+02  0.00000000000E+00 0.  1.
         12    1    4    4    0    0 -0.31699963039E+02  0.12674866835E+02  0.15300477152E+02  0.37411823092E+02  0.00000000000E+00 0. -1.
         -5    1    5    5    0  502 -0.84422599519E+02  0.10471739054E+03  0.10163735799E+03  0.16865689944E+03  0.47000000000E+01 0.  1.
         11    1    6    6    0    0  0.19699095461E+02 -0.17540822382E+02  0.39454969083E+02  0.47459766088E+02  0.00000000000E+00 0. -1.
        -12    1    6    6    0    0 -0.43782637186E+02 -0.23543004217E+01 -0.59492676417E+01  0.44247664740E+02  0.00000000000E+00 0.  1.
</event>
<event>
12    1  0.1594900E-001  0.2347351E+03  0.7818608E-02  0.1123705E+00
         21   -1    0    0  503  502  0.00000000000E+00  0.00000000000E+00  0.19892174860E+03  0.19892174860E+03  0.00000000000E+00 0.  1.
         21   -1    0    0  501  503 -0.00000000000E+00 -0.00000000000E+00 -0.11717493048E+04  0.11717493048E+04  0.00000000000E+00 0.  1.
          6    2    1    2  501    0 -0.15231089038E+03 -0.47174476760E+02 -0.10855974452E+04  0.11102528811E+04  0.16945680410E+03 0.  0.
         24    2    3    3    0    0 -0.13835047582E+03 -0.27574498538E+02 -0.53014787289E+03  0.55426244084E+03  0.79049851763E+02 0.  0.
         -6    2    1    2    0  502  0.15231089038E+03  0.47174476760E+02  0.11276988902E+03  0.26041817225E+03  0.17226879574E+03 0.  0.
        -24    2    5    5    0    0  0.58222765781E+02 -0.37521725207E+02  0.32649325173E+02  0.11052682304E+03  0.79702132089E+02 0.  0.
          5    1    3    3  501    0 -0.13960414556E+02 -0.19599978222E+02 -0.55544957229E+03  0.55599044028E+03  0.47000000000E+01 0. -1.
        -11    1    4    4    0    0 -0.65217904492E+02  0.16937819029E+02 -0.14762247291E+03  0.16227340906E+03  0.00000000000E+00 0.  1.
         12    1    4    4    0    0 -0.73132571331E+02 -0.44512317567E+02 -0.38252539998E+03  0.39198903178E+03  0.00000000000E+00 0. -1.
         -5    1    5    5    0  502  0.94088124598E+02  0.84696201967E+02  0.80120563844E+02  0.14989134921E+03  0.47000000000E+01 0.  1.
         13    1    6    6    0    0  0.81157721514E+01 -0.46039206389E+02 -0.53673329655E+01  0.47056163738E+02  0.00000000000E+00 0. -1.
        -14    1    6    6    0    0  0.50106993630E+02  0.85174811824E+01  0.38016658139E+02  0.63470659303E+02  0.00000000000E+00 0.  1.
</event>
<event>
12    1  0.1594900E-001  0.1944487E+03  0.7818608E-02  0.1155238E+00
         21   -1    0    0  503  502  0.00000000000E+00  0.00000000000E+00  0.82279310900E+02  0.82279310900E+02  0.00000000000E+00 0. -1.
         21   -1    0    0  501  503 -0.00000000000E+00 -0.00000000000E+00 -0.54758274972E+03  0.54758274972E+03  0.00000000000E+00 0. -1.
          6    2    1    2  501    0 -0.86769366649E+02  0.62883221430E+01 -0.36602669825E+03  0.41447056539E+03  0.17390181067E+03 0.  0.
         24    2    3    3    0    0 -0.33873183660E+02  0.16996980276E+02 -0.34537773399E+03  0.35649512870E+03  0.79791652072E+02 0.  0.
         -6    2    1    2    0  502  0.86769366649E+02 -0.62883221430E+01 -0.99276740572E+02  0.21539149524E+03  0.17020328733E+03 0.  0.
        -24    2    5    5    0    0  0.45323035229E+02 -0.23687475066E+02 -0.12941175438E+03  0.16107079966E+03  0.81124141489E+02 0.  0.
          5    1    3    3  501    0 -0.52896182989E+02 -0.10708658133E+02 -0.20648964259E+02  0.57975436685E+02  0.47000000000E+01 0. -1.
        -11    1    4    4    0    0  0.47952558928E+01  0.40200591294E+02 -0.20804934381E+03  0.21195190841E+03  0.00000000000E+00 0.  1.
         12    1    4    4    0    0 -0.38668439553E+02 -0.23203611018E+02 -0.13732839019E+03  0.14454322029E+03  0.00000000000E+00 0. -1.
         -5    1    5    5    0  502  0.41446331420E+02  0.17399152923E+02  0.30135013812E+02  0.54320695578E+02  0.47000000000E+01 0.  1.
         13    1    6    6    0    0  0.57674236874E+02  0.80260102111E+00 -0.11803930777E+03  0.13137823239E+03  0.00000000000E+00 0. -1.
        -14    1    6    6    0    0 -0.12351201645E+02 -0.24490076088E+02 -0.11372446612E+02  0.29692567265E+02  0.00000000000E+00 0.  1.
</event>
<event>
12    1  0.1594900E-001  0.1809247E+03  0.7818608E-02  0.1167466E+00
         21   -1    0    0  503  502  0.00000000000E+00  0.00000000000E+00  0.17250611510E+03  0.17250611510E+03  0.00000000000E+00 0.  1.
         21   -1    0    0  501  503 -0.00000000000E+00 -0.00000000000E+00 -0.18753481117E+03  0.18753481117E+03  0.00000000000E+00 0.  1.
          6    2    1    2  501    0  0.46891519184E+02  0.32977713921E+02 -0.13019395912E+02  0.17910504054E+03  0.16918264299E+03 0.  0.
         24    2    3    3    0    0  0.88996988492E+01 -0.19289077796E+01  0.53062984891E+02  0.95135869386E+02  0.78436139333E+02 0.  0.
         -6    2    1    2    0  502 -0.46891519184E+02 -0.32977713921E+02 -0.20093001554E+01  0.18093588574E+03  0.17160248621E+03 0.  0.
        -24    2    5    5    0    0 -0.26335336120E+02 -0.10523150677E+02 -0.66362015255E+02  0.10959076668E+03  0.82473828843E+02 0.  0.
          5    1    3    3  501    0  0.37991820335E+02  0.34906621700E+02 -0.66082380803E+02  0.83969171149E+02  0.47000000000E+01 0. -1.
        -13    1    4    4    0    0 -0.11806035471E+02 -0.35561408142E+02  0.36497135286E+02  0.52307142023E+02  0.00000000000E+00 0.  1.
         14    1    4    4    0    0  0.20705734320E+02  0.33632500362E+02  0.16565849605E+02  0.42828727363E+02  0.00000000000E+00 0. -1.
         -5    1    5    5    0  502 -0.20556183064E+02 -0.22454563244E+02  0.64352715100E+02  0.71345119058E+02  0.47000000000E+01 0.  1.
         11    1    6    6    0    0 -0.14999657709E+02  0.25962368588E+02  0.32742863344E+01  0.30162149544E+02  0.00000000000E+00 0. -1.
        -12    1    6    6    0    0 -0.11335678411E+02 -0.36485519265E+02 -0.69636301590E+02  0.79428617136E+02  0.00000000000E+00 0.  1.
</event>
<event>
12    1  0.1594900E-001  0.1931496E+03  0.7818608E-02  0.1157443E+00
         21   -1    0    0  503  502  0.00000000000E+00  0.00000000000E+00  0.37963009526E+03  0.37963009526E+03  0.00000000000E+00 0.  1.
         21   -1    0    0  501  503 -0.00000000000E+00 -0.00000000000E+00 -0.14284670475E+03  0.14284670475E+03  0.00000000000E+00 0.  1.
          6    2    1    2  501    0  0.66422424723E+02  0.46585648388E+01 -0.35558954607E+02  0.18859489996E+03  0.17282926924E+03 0.  0.
         24    2    3    3    0    0  0.47434887389E+02  0.62914907348E+02 -0.55598178852E+02  0.12395753828E+03  0.77884271176E+02 0.  0.
         -6    2    1    2    0  502 -0.66422424723E+02 -0.46585648388E+01  0.27234234511E+03  0.33388190005E+03  0.18130948544E+03 0.  0.
        -24    2    5    5    0    0 -0.18968729239E+02 -0.53098788504E+02  0.64598113812E+02  0.11529996090E+03  0.77083530322E+02 0.  0.
          5    1    3    3  501    0  0.18987537333E+02 -0.58256342509E+02  0.20039224245E+02  0.64637361680E+02  0.47000000000E+01 0. -1.
        -13    1    4    4    0    0  0.24140668009E+02 -0.34379473830E+01 -0.47210783633E+02  0.53136140483E+02  0.00000000000E+00 0.  1.
         14    1    4    4    0    0  0.23294219380E+02  0.66352854731E+02 -0.83873952189E+01  0.70821397798E+02  0.00000000000E+00 0. -1.
         -5    1    5    5    0  502 -0.47453695484E+02  0.48440223665E+02  0.20774423130E+03  0.21858193915E+03  0.47000000000E+01 0.  1.
         11    1    6    6    0    0  0.14029865605E+02  0.11284437631E+02  0.30273961080E+02  0.35223406721E+02  0.00000000000E+00 0. -1.
        -12    1    6    6    0    0 -0.32998594843E+02 -0.64383226135E+02  0.34324152731E+02  0.80076554183E+02  0.00000000000E+00 0.  1.
</event>
<event>
12    1  0.1594900E-001  0.3396387E+03  0.7818608E-02  0.1066951E+00
         21   -1    0    0  503  502  0.00000000000E+00  0.00000000000E+00  0.41951891402E+03  0.41951891402E+03  0.00000000000E+00 0.  1.
         21   -1    0    0  501  503 -0.00000000000E+00 -0.00000000000E+00 -0.27845994382E+03  0.27845994382E+03  0.00000000000E+00 0.  1.
          6    2    1    2  501    0  0.27836945387E+03 -0.91343062270E+02  0.31398345648E+02  0.34107568325E+03  0.17179539495E+03 0.  0.
         24    2    3    3    0    0  0.19731643131E+03 -0.11910317353E+02 -0.24689433632E+02  0.21439860397E+03  0.79256315380E+02 0.  0.
         -6    2    1    2    0  502 -0.27836945387E+03  0.91343062270E+02  0.10966062455E+03  0.35690317459E+03  0.17181768123E+03 0.  0.
        -24    2    5    5    0    0 -0.78144076272E+02 -0.71146888517E+01  0.10360613326E+02  0.11263546731E+03  0.80139195991E+02 0.  0.
          5    1    3    3  501    0  0.81053022556E+02 -0.79432744917E+02  0.56087779280E+02  0.12667707928E+03  0.47000000000E+01 0. -1.
        -11    1    4    4    0    0  0.18245470529E+02 -0.22274480436E+02 -0.19831952889E+02  0.34962208581E+02  0.00000000000E+00 0.  1.
         12    1    4    4    0    0  0.17907096078E+03  0.10364163083E+02 -0.48574807435E+01  0.17943639539E+03  0.00000000000E+00 0. -1.
         -5    1    5    5    0  502 -0.20022537760E+03  0.98457751121E+02  0.99300011228E+02  0.24426770728E+03  0.47000000000E+01 0.  1.
         11    1    6    6    0    0 -0.36133459667E+02 -0.55899185435E+01  0.45129260156E+02  0.58082047304E+02  0.00000000000E+00 0. -1.
        -12    1    6    6    0    0 -0.42010616605E+02 -0.15247703082E+01 -0.34768646830E+02  0.54553420007E+02  0.00000000000E+00 0.  1.
</event>
<event>
12    1  0.1594900E-001  0.2643000E+03  0.7818608E-02  0.1104680E+00
         21   -1    0    0  503  502  0.00000000000E+00  0.00000000000E+00  0.19837988253E+03  0.19837988253E+03  0.00000000000E+00 0. -1.
         21   -1    0    0  501  503 -0.00000000000E+00 -0.00000000000E+00 -0.50442208179E+03  0.50442208179E+03  0.00000000000E+00 0. -1.
          6    2    1    2  501    0  0.58945827704E+02 -0.19171443034E+03 -0.34651371006E+03  0.43542127394E+03  0.17114584756E+03 0.  0.
         24    2    3    3    0    0  0.12793860174E+02 -0.18192971938E+02 -0.12046953004E+03  0.14670383084E+03  0.80712076096E+02 0.  0.
         -6    2    1    2    0  502 -0.58945827704E+02  0.19171443034E+03  0.40471510792E+02  0.26738069038E+03  0.17212047234E+03 0.  0.
        -24    2    5    5    0    0 -0.96920193913E+02  0.10196850541E+03 -0.25092426937E+00  0.16166035058E+03  0.79642362488E+02 0.  0.
          5    1    3    3  501    0  0.46151967529E+02 -0.17352145841E+03 -0.22604418001E+03  0.28871744310E+03  0.47000000000E+01 0. -1.
        -11    1    4    4    0    0  0.37387468290E+02 -0.18466296797E+02 -0.26127415437E+02  0.49208421433E+02  0.00000000000E+00 0.  1.
         12    1    4    4    0    0 -0.24593608116E+02  0.27332485851E+00 -0.94342114608E+02  0.97495409406E+02  0.00000000000E+00 0. -1.
         -5    1    5    5    0  502  0.37974366209E+02  0.89745924932E+02  0.40722435062E+02  0.10572033980E+03  0.47000000000E+01 0.  1.
         13    1    6    6    0    0 -0.37121208349E+02  0.56039595799E+02  0.37888431084E+02  0.77161866337E+02  0.00000000000E+00 0. -1.
        -14    1    6    6    0    0 -0.59798985564E+02  0.45928909614E+02 -0.38139355353E+02  0.84498484244E+02  0.00000000000E+00 0.  1.
</event>
<event>
12    1  0.1594900E-001  0.1791236E+03  0.7818608E-02  0.1168963E+00
         21   -1    0    0  501  502  0.00000000000E+00  0.00000000000E+00  0.43830312341E+02  0.43830312341E+02  0.00000000000E+00 0.  1.
         21   -1    0    0  502  503 -0.00000000000E+00 -0.00000000000E+00 -0.74892833724E+03  0.74892833724E+03  0.00000000000E+00 0. -1.
         -6    2    1    2    0  503  0.59998770116E+01  0.47065870303E+02 -0.42176439420E+03  0.45822534483E+03  0.17272541143E+03 0.  0.
        -24    2    3    3    0    0  0.60577632037E+02  0.28217734224E+01 -0.31152387932E+03  0.32741505252E+03  0.80472835915E+02 0.  0.
          6    2    1    2  501    0 -0.59998770116E+01 -0.47065870303E+02 -0.28333363069E+03  0.33453330475E+03  0.17141584243E+03 0.  0.
         24    2    5    5    0    0 -0.57614068527E+02 -0.51036095016E+02 -0.11584993516E+03  0.15916892491E+03  0.77391700408E+02 0.  0.
          5    1    5    5  501    0  0.51614191515E+02  0.39702247136E+01 -0.16748369553E+03  0.17536437984E+03  0.47000000000E+01 0. -1.
        -11    1    6    6    0    0 -0.96446267041E+01 -0.28422709718E+02  0.18517997373E+01  0.30071554903E+02  0.00000000000E+00 0.  1.
         12    1    6    6    0    0 -0.47969441823E+02 -0.22613385298E+02 -0.11770173490E+03  0.12909737000E+03  0.00000000000E+00 0. -1.
         -5    1    3    3    0  503 -0.54577755025E+02  0.44244096880E+02 -0.11024051489E+03  0.13081029231E+03  0.47000000000E+01 0.  1.
         13    1    4    4    0    0 -0.10696133998E+02 -0.22472924893E+02 -0.67625883353E+02  0.72060389501E+02  0.00000000000E+00 0. -1.
        -14    1    4    4    0    0  0.71273766035E+02  0.25294698316E+02 -0.24389799597E+03  0.25535466302E+03  0.00000000000E+00 0.  1.
</event>
<event>
12    1  0.1594900E-001  0.2328260E+03  0.7818608E-02  0.1124675E+00
         21   -1    0    0  501  502  0.00000000000E+00  0.00000000000E+00  0.19452466507E+04  0.19452466507E+04  0.00000000000E+00 0.  1.
         21   -1    0    0  502  503 -0.00000000000E+00 -0.00000000000E+00 -0.57399316192E+02  0.57399316192E+02  0.00000000000E+00 0. -1.
         -6    2    1    2    0  503  0.15393176002E+03  0.29960652580E+02  0.22555807630E+03  0.32413069879E+03  0.17202219819E+03 0.  0.
        -24    2    3    3    0    0  0.18223790608E+03  0.31879877286E+02  0.17965959042E+03  0.26996722093E+03  0.79860822403E+02 0.  0.
          6    2    1    2  501    0 -0.15393176002E+03 -0.29960652580E+02  0.16622892582E+04  0.16785152681E+04  0.17209096390E+03 0.  0.
         24    2    5    5    0    0 -0.81751193921E+02  0.48748550895E+02  0.10319542712E+04  0.10391800988E+04  0.76850380725E+02 0.  0.
          5    1    5    5  501    0 -0.72180566096E+02 -0.78709203474E+02  0.63033498702E+03  0.63933516930E+03  0.47000000000E+01 0. -1.
        -13    1    6    6    0    0 -0.87085745208E+02  0.46226003853E+02  0.10262421261E+04  0.10309673476E+04  0.00000000000E+00 0.  1.
         14    1    6    6    0    0  0.53345512861E+01  0.25225470417E+01  0.57121451277E+01  0.82127512419E+01  0.00000000000E+00 0. -1.
         -5    1    3    3    0  503 -0.28306146064E+02 -0.19192247064E+01  0.45898485878E+02  0.54163477865E+02  0.47000000000E+01 0.  1.
         11    1    4    4    0    0  0.10664739847E+03  0.24946471584E+02  0.51535219172E+02  0.12104492084E+03  0.00000000000E+00 0. -1.
        -12    1    4    4    0    0  0.75590507609E+02  0.69334057028E+01  0.12812437125E+03  0.14892230009E+03  0.00000000000E+00 0.  1.
</event>
<event>
12    1  0.1594900E-001  0.1900849E+03  0.7818608E-02  0.1158995E+00
         21   -1    0    0  503  502  0.00000000000E+00  0.00000000000E+00  0.13169775160E+03  0.13169775160E+03  0.00000000000E+00 0. -1.
         21   -1    0    0  501  503 -0.00000000000E+00 -0.00000000000E+00 -0.27050524573E+03  0.27050524573E+03  0.00000000000E+00 0.  1.
          6    2    1    2  501    0  0.77470314782E+02  0.47158352879E+01 -0.71139237989E+02  0.20296071199E+03  0.17351763787E+03 0.  0.
         24    2    3    3    0    0  0.10489121978E+03  0.39277590810E+02 -0.78253938950E+02  0.15802598215E+03  0.79395434033E+02 0.  0.
         -6    2    1    2    0  502 -0.77470314782E+02 -0.47158352879E+01 -0.67668256132E+02  0.19924228535E+03  0.17057141204E+03 0.  0.
        -24    2    5    5    0    0 -0.75745348576E+02  0.57332070213E+02 -0.31822868722E+02  0.12740984223E+03  0.78716255101E+02 0.  0.
          5    1    3    3  501    0 -0.27420905001E+02 -0.34561755522E+02  0.71147009608E+01  0.44934729838E+02  0.47000000000E+01 0. -1.
        -13    1    4    4    0    0 -0.22913170003E+01  0.28922903180E+02 -0.10782454702E+02  0.30952314798E+02  0.00000000000E+00 0.  1.
         14    1    4    4    0    0  0.10718253678E+03  0.10354687630E+02 -0.67471484248E+02  0.12707366735E+03  0.00000000000E+00 0. -1.
         -5    1    5    5    0  502 -0.17249662056E+01 -0.62047905501E+02 -0.35845387411E+02  0.71832443117E+02  0.47000000000E+01 0.  1.
         13    1    6    6    0    0 -0.34266726053E+02 -0.10104879397E+02 -0.32409182859E+02  0.48235590964E+02  0.00000000000E+00 0. -1.
        -14    1    6    6    0    0 -0.41478622523E+02  0.67436949610E+02  0.58631413685E+00  0.79174251265E+02  0.00000000000E+00 0.  1.
</event>
<event>
12    1  0.1594900E-001  0.1833584E+03  0.7818608E-02  0.1164922E+00
         21   -1    0    0  503  502  0.00000000000E+00  0.00000000000E+00  0.97463762792E+02  0.97463762792E+02  0.00000000000E+00 0.  1.
         21   -1    0    0  501  503 -0.00000000000E+00 -0.00000000000E+00 -0.98004662167E+03  0.98004662167E+03  0.00000000000E+00 0.  1.
          6    2    1    2  501    0 -0.12764744687E+02 -0.58358810929E+02 -0.87529266572E+03  0.89400714055E+03  0.17188026988E+03 0.  0.
         24    2    3    3    0    0  0.56769001514E+02 -0.78177591182E+01 -0.47789349346E+03  0.48738995954E+03  0.76700356457E+02 0.  0.
         -6    2    1    2    0  502  0.12764744687E+02  0.58358810929E+02 -0.72901931551E+01  0.18350324391E+03  0.17335398492E+03 0.  0.
        -24    2    5    5    0    0  0.79664856898E+01 -0.23030967345E+02  0.39115099682E+02  0.89573160867E+02  0.76808005920E+02 0.  0.
          5    1    3    3  501    0 -0.69533746201E+02 -0.50541051810E+02 -0.39739917226E+03  0.40661718101E+03  0.47000000000E+01 0. -1.
        -13    1    4    4    0    0  0.22715319634E+02 -0.41422124671E+02 -0.26600215538E+03  0.27016462542E+03  0.00000000000E+00 0.  1.
         14    1    4    4    0    0  0.34053681880E+02  0.33604365553E+02 -0.21189133807E+03  0.21722533412E+03  0.00000000000E+00 0. -1.
         -5    1    5    5    0  502  0.47982589974E+01  0.81389778273E+02 -0.46405292838E+02  0.93930083041E+02  0.47000000000E+01 0.  1.
         11    1    6    6    0    0  0.31996030070E+02 -0.31637917729E+02  0.26660612260E+01  0.45075621581E+02  0.00000000000E+00 0. -1.
        -12    1    6    6    0    0 -0.24029544380E+02  0.86069503847E+01  0.36449038456E+02  0.44497539285E+02  0.00000000000E+00 0.  1.
</event>
<event>
12    1  0.1594900E-001  0.2091885E+03  0.7818608E-02  0.1142750E+00
         21   -1    0    0  501  502  0.00000000000E+00  0.00000000000E+00  0.20665514145E+02  0.20665514145E+02  0.00000000000E+00 0.  1.
         21   -1    0    0  502  503 -0.00000000000E+00 -0.00000000000E+00 -0.21161000683E+04  0.21161000683E+04  0.00000000000E+00 0.  1.
         -6    2    1    2    0  503  0.54099164529E+02 -0.10131798635E+03 -0.11589163268E+04  0.11771686855E+04  0.17160130412E+03 0.  0.
        -24    2    3    3    0    0 -0.25448401566E+01 -0.48091078628E+02 -0.28452771180E+03  0.29931950309E+03  0.79479041842E+02 0.  0.
          6    2    1    2  501    0 -0.54099164529E+02  0.10131798635E+03 -0.93651822738E+03  0.95959689700E+03  0.17483638223E+03 0.  0.
         24    2    5    5    0    0 -0.70581000474E+02  0.13408719445E+03 -0.80096150239E+03  0.81908644327E+03  0.80013873175E+02 0.  0.
          5    1    5    5  501    0  0.16481835945E+02 -0.32769208099E+02 -0.13555672499E+03  0.14051045372E+03  0.47000000000E+01 0. -1.
        -13    1    6    6    0    0 -0.14097917782E+02  0.95525996240E+02 -0.57327625932E+03  0.58135156037E+03  0.00000000000E+00 0.  1.
         14    1    6    6    0    0 -0.56483082693E+02  0.38561198209E+02 -0.22768524307E+03  0.23773488290E+03  0.00000000000E+00 0. -1.
         -5    1    3    3    0  503  0.56644004686E+02 -0.53226907722E+02 -0.87438861502E+03  0.87784918240E+03  0.47000000000E+01 0.  1.
         13    1    4    4    0    0 -0.12912833225E+02  0.13797043701E+02 -0.14629813816E+03  0.14751354143E+03  0.00000000000E+00 0. -1.
        -14    1    4    4    0    0  0.10367993069E+02 -0.61888122329E+02 -0.13822957364E+03  0.15180596166E+03  0.00000000000E+00 0.  1.
</event>
<event>
12    1  0.1594900E-001  0.2060563E+03  0.7818608E-02  0.1144784E+00
         21   -1    0    0  503  502  0.00000000000E+00  0.00000000000E+00  0.21014942497E+02  0.21014942497E+02  0.00000000000E+00 0. -1.
         21   -1    0    0  501  503 -0.00000000000E+00 -0.00000000000E+00 -0.20918714797E+04  0.20918714797E+04  0.00000000000E+00 0. -1.
          6    2    1    2  501    0 -0.55573836569E+02 -0.98517776193E+02 -0.12350103522E+04  0.12520821712E+04  0.17223527499E+03 0.  0.
         24    2    3    3    0    0  0.32553912431E+02 -0.64795635935E+02 -0.78075113238E+03  0.78810241772E+03  0.79214004088E+02 0.  0.
         -6    2    1    2    0  502  0.55573836569E+02  0.98517776193E+02 -0.83584618499E+03  0.86080425094E+03  0.17190378107E+03 0.  0.
        -24    2    5    5    0    0  0.84956941146E+02  0.32025088145E+02 -0.36630671166E+03  0.38564738062E+03  0.79372583781E+02 0.  0.
          5    1    3    3  501    0 -0.88127749000E+02 -0.33722140258E+02 -0.45425921980E+03  0.46397975350E+03  0.47000000000E+01 0. -1.
        -13    1    4    4    0    0  0.16477261393E+02 -0.79424073303E+02 -0.50262660805E+03  0.50912983676E+03  0.00000000000E+00 0.  1.
         14    1    4    4    0    0  0.16076651038E+02  0.14628437369E+02 -0.27812452434E+03  0.27897258096E+03  0.00000000000E+00 0. -1.
         -5    1    5    5    0  502 -0.29383104577E+02  0.66492688049E+02 -0.46953947333E+03  0.47515687032E+03  0.47000000000E+01 0.  1.
         11    1    6    6    0    0  0.15091165262E+02 -0.22005866389E+02 -0.14376274475E+03  0.14621808439E+03  0.00000000000E+00 0. -1.
        -12    1    6    6    0    0  0.69865775884E+02  0.54030954533E+02 -0.22254396690E+03  0.23942929623E+03  0.00000000000E+00 0.  1.
</event>
<event>
12    1  0.1594900E-001  0.2593213E+03  0.7818608E-02  0.1107606E+00
         21   -1    0    0  501  502  0.00000000000E+00  0.00000000000E+00  0.23968236784E+03  0.23968236784E+03  0.00000000000E+00 0. -1.
         21   -1    0    0  502  503 -0.00000000000E+00 -0.00000000000E+00 -0.32919405686E+03  0.32919405686E+03  0.00000000000E+00 0. -1.
         -6    2    1    2    0  503 -0.13770953590E+03 -0.13379737318E+03  0.65023949708E+02  0.26700091968E+03  0.17376916794E+03 0.  0.
        -24    2    3    3    0    0 -0.15937688594E+03 -0.12749692956E+03  0.23013467170E+02  0.21908286160E+03  0.76231369888E+02 0.  0.
          6    2    1    2  501    0  0.13770953590E+03  0.13379737318E+03 -0.15453563873E+03  0.30187550502E+03  0.17430405486E+03 0.  0.
         24    2    5    5    0    0  0.80658910895E+02  0.47264147112E+02 -0.15502918882E+03  0.19812047324E+03  0.80485483292E+02 0.  0.
          5    1    5    5  501    0  0.57050625009E+02  0.86533226072E+02  0.49355008623E+00  0.10375503178E+03  0.47000000000E+01 0. -1.
        -11    1    6    6    0    0 -0.10005692092E+02  0.27661017882E+02 -0.49848537056E+02  0.57880242148E+02  0.00000000000E+00 0.  1.
         12    1    6    6    0    0  0.90664602987E+02  0.19603129230E+02 -0.10518065176E+03  0.14024023109E+03  0.00000000000E+00 0. -1.
         -5    1    3    3    0  503  0.21667350036E+02 -0.63004436215E+01  0.42010482538E+02  0.47918058083E+02  0.47000000000E+01 0.  1.
         11    1    4    4    0    0 -0.58799292371E+02 -0.81235180094E+01  0.21034635500E+02  0.62974631550E+02  0.00000000000E+00 0. -1.
        -12    1    4    4    0    0 -0.10057759357E+03 -0.11937341155E+03  0.19788316700E+01  0.15610823005E+03  0.00000000000E+00 0.  1.
</event>
<event>
12    1  0.1594900E-001  0.2170186E+03  0.7818608E-02  0.1136369E+00
         21   -1    0    0  503  502  0.00000000000E+00  0.00000000000E+00  0.70146843148E+03  0.70146843148E+03  0.00000000000E+00 0.  1.
         21   -1    0    0  501  503 -0.00000000000E+00 -0.00000000000E+00 -0.66858591466E+02  0.66858591466E+02  0.00000000000E+00 0.  1.
          6    2    1    2  501    0 -0.84720166664E+02 -0.10217945848E+03  0.33405151198E+03  0.39835597289E+03  0.17169426346E+03 0.  0.
         24    2    3    3    0    0 -0.53564418845E+02  0.11342564719E+02  0.12905363894E+03  0.16191539193E+03  0.81018218197E+02 0.  0.
         -6    2    1    2    0  502  0.84720166664E+02  0.10217945848E+03  0.30055832803E+03  0.36997105006E+03  0.17007386911E+03 0.  0.
        -24    2    5    5    0    0 -0.85538948398E+01  0.49189204548E+02  0.20736094591E+03  0.22778856310E+03  0.79977000647E+02 0.  0.
          5    1    3    3  501    0 -0.31155747819E+02 -0.11352202320E+03  0.20499787304E+03  0.23644058096E+03  0.47000000000E+01 0. -1.
        -13    1    4    4    0    0 -0.34032317215E+02  0.52779581798E+01  0.13601799310E+03  0.14031019173E+03  0.00000000000E+00 0.  1.
         14    1    4    4    0    0 -0.19532101629E+02  0.60646065389E+01 -0.69643541626E+01  0.21605200194E+02  0.00000000000E+00 0. -1.
         -5    1    5    5    0  502  0.93274061504E+02  0.52990253930E+02  0.93197382128E+02  0.14218248695E+03  0.47000000000E+01 0.  1.
         11    1    6    6    0    0 -0.61938498105E+01  0.25183993162E+02  0.20123846564E+03  0.20290272876E+03  0.00000000000E+00 0. -1.
        -12    1    6    6    0    0 -0.23600450293E+01  0.24005211385E+02  0.61224802690E+01  0.24885834341E+02  0.00000000000E+00 0.  1.
</event>
<event>
12    1  0.1594900E-001  0.1881724E+03  0.7818608E-02  0.1162055E+00
         21   -1    0    0  503  502  0.00000000000E+00  0.00000000000E+00  0.35604540988E+03  0.35604540988E+03  0.00000000000E+00 0. -1.
         21   -1    0    0  501  503 -0.00000000000E+00 -0.00000000000E+00 -0.16039772282E+03  0.16039772282E+03  0.00000000000E+00 0. -1.
          6    2    1    2  501    0 -0.50769611985E+02  0.34402563045E+02 -0.68177619799E+02  0.19238661226E+03  0.16912519295E+03 0.  0.
         24    2    3    3    0    0 -0.56840277305E+02  0.24448195748E+02  0.20455703834E+02  0.10286623210E+03  0.79589537558E+02 0.  0.
         -6    2    1    2    0  502  0.50769611985E+02 -0.34402563045E+02  0.26382530686E+03  0.32405652043E+03  0.17789813391E+03 0.  0.
        -24    2    5    5    0    0  0.71355015715E+02 -0.79004184102E+02  0.12224519960E+03  0.17412293440E+03  0.63574429496E+02 0.  0.
          5    1    3    3  501    0  0.60706653196E+01  0.99543672968E+01 -0.88633323632E+02  0.89520380159E+02  0.47000000000E+01 0. -1.
        -13    1    4    4    0    0 -0.17518422863E+02 -0.28120313566E+02 -0.27326782238E+01  0.33243265558E+02  0.00000000000E+00 0.  1.
         14    1    4    4    0    0 -0.39321854442E+02  0.52568509315E+02  0.23188382057E+02  0.69622966547E+02  0.00000000000E+00 0. -1.
         -5    1    5    5    0  502 -0.20585403730E+02  0.44601621057E+02  0.14158010726E+03  0.14993358603E+03  0.47000000000E+01 0.  1.
         13    1    6    6    0    0 -0.56844781275E+01 -0.34383681418E+02  0.37837786186E+02  0.51441703927E+02  0.00000000000E+00 0. -1.
        -14    1    6    6    0    0  0.77039493843E+02 -0.44620502684E+02  0.84407413413E+02  0.12268123047E+03  0.00000000000E+00 0.  1.
</event>
<event>
12    1  0.1594900E-001  0.2433154E+03  0.7818608E-02  0.1119183E+00
         21   -1    0    0  501  502  0.00000000000E+00  0.00000000000E+00  0.33749759567E+03  0.33749759567E+03  0.00000000000E+00 0. -1.
         21   -1    0    0  502  503 -0.00000000000E+00 -0.00000000000E+00 -0.16998964555E+03  0.16998964555E+03  0.00000000000E+00 0.  1.
         -6    2    1    2    0  503 -0.15243399888E+03 -0.87283993848E+02  0.63035480514E+02  0.25134808516E+03  0.16836795572E+03 0.  0.
        -24    2    3    3    0    0 -0.34429836889E+02  0.18488486982E+02  0.20149996923E+01  0.81470514455E+02  0.71457306713E+02 0.  0.
          6    2    1    2  501    0  0.15243399888E+03  0.87283993848E+02  0.10447246961E+03  0.25613915606E+03  0.15439608403E+03 0.  0.
         24    2    5    5    0    0  0.10635903953E+03  0.60769312118E+02  0.77076917605E+01  0.14563376045E+03  0.78387684526E+02 0.  0.
          5    1    5    5  501    0  0.46074959349E+02  0.26514681730E+02  0.96764777853E+02  0.11050539561E+03  0.47000000000E+01 0. -1.
        -11    1    6    6    0    0  0.75229632883E+02  0.64349679628E+02  0.34058814861E+02  0.10469184210E+03  0.00000000000E+00 0.  1.
         12    1    6    6    0    0  0.31129406648E+02 -0.35803675102E+01 -0.26351123100E+02  0.40941918353E+02  0.00000000000E+00 0. -1.
         -5    1    3    3    0  503 -0.11800416199E+03 -0.10577248083E+03  0.61020480822E+02  0.16987757070E+03  0.47000000000E+01 0.  1.
         11    1    4    4    0    0 -0.54709514672E+02  0.16183018926E+02 -0.97982201701E+01  0.57888048989E+02  0.00000000000E+00 0. -1.
        -12    1    4    4    0    0  0.20279677783E+02  0.23054680556E+01  0.11813219862E+02  0.23582465466E+02  0.00000000000E+00 0.  1.
</event>
<event>
12    1  0.1594900E-001  0.2915844E+03  0.7818608E-02  0.1089944E+00
         21   -1    0    0  501  502  0.00000000000E+00  0.00000000000E+00  0.48513369951E+02  0.48513369951E+02  0.00000000000E+00 0. -1.
         21   -1    0    0  502  503 -0.00000000000E+00 -0.00000000000E+00 -0.27530763868E+04  0.27530763868E+04  0.00000000000E+00 0. -1.
         -6    2    1    2    0  503  0.27696708389E+02  0.23415981765E+03 -0.22095398182E+04  0.22286964073E+04  0.17153291147E+03 0.  0.
        -24    2    3    3    0    0 -0.51390117973E+01  0.23598918867E+03 -0.17087592098E+04  0.17268151076E+04  0.79467430193E+02 0.  0.
          6    2    1    2  501    0 -0.27696708389E+02 -0.23415981765E+03 -0.49502319863E+03  0.57289334946E+03  0.16601474278E+03 0.  0.
         24    2    5    5    0    0 -0.76509467642E+02 -0.18873215641E+03 -0.41043801494E+03  0.46508286217E+03  0.79807136708E+02 0.  0.
          5    1    5    5  501    0  0.48812759252E+02 -0.45427661232E+02 -0.84585183686E+02  0.10781048729E+03  0.47000000000E+01 0. -1.
        -11    1    6    6    0    0 -0.69582212892E+02 -0.10115053220E+03 -0.29866638627E+03  0.32291597174E+03  0.00000000000E+00 0.  1.
         12    1    6    6    0    0 -0.69272547500E+01 -0.87581624219E+02 -0.11177162867E+03  0.14216689043E+03  0.00000000000E+00 0. -1.
         -5    1    3    3    0  503  0.32835720187E+02 -0.18293710233E+01 -0.50078060849E+03  0.50188129967E+03  0.47000000000E+01 0.  1.
         13    1    4    4    0    0 -0.93479956436E+01  0.19479580284E+03 -0.15683147242E+04  0.15803935788E+04  0.00000000000E+00 0. -1.
        -14    1    4    4    0    0  0.42089838463E+01  0.41193385833E+02 -0.14044448553E+03  0.14642152880E+03  0.00000000000E+00 0.  1.
</event>
<event>
12    1  0.1594900E-001  0.4363880E+03  0.7818608E-02  0.1031919E+00
         21   -1    0    0  501  502  0.00000000000E+00  0.00000000000E+00  0.22993169276E+03  0.22993169276E+03  0.00000000000E+00 0. -1.
         21   -1    0    0  502  503 -0.00000000000E+00 -0.00000000000E+00 -0.12309174109E+04  0.12309174109E+04  0.00000000000E+00 0. -1.
         -6    2    1    2    0  503 -0.26599156745E+03 -0.29928587730E+03 -0.91872206387E+03  0.10167750304E+04  0.17163240203E+03 0.  0.
        -24    2    3    3    0    0 -0.27464303015E+03 -0.30769083106E+03 -0.86594276689E+03  0.96243135323E+03  0.79465669512E+02 0.  0.
          6    2    1    2  501    0  0.26599156745E+03  0.29928587730E+03 -0.82263654265E+02  0.44407407330E+03  0.17352499375E+03 0.  0.
         24    2    5    5    0    0  0.12527235937E+03  0.13442067699E+03  0.25702161855E+02  0.20187345966E+03  0.79562617899E+02 0.  0.
          5    1    5    5  501    0  0.14071920808E+03  0.16486520031E+03 -0.10796581612E+03  0.24220061364E+03  0.47000000000E+01 0. -1.
        -13    1    6    6    0    0  0.76481431965E+02  0.61379114934E+02  0.50905443495E+02  0.11049058495E+03  0.00000000000E+00 0.  1.
         14    1    6    6    0    0  0.48790927402E+02  0.73041562060E+02 -0.25203281640E+02  0.91382874710E+02  0.00000000000E+00 0. -1.
         -5    1    3    3    0  503  0.86514626965E+01  0.84049537610E+01 -0.52779296980E+02  0.54343677132E+02  0.47000000000E+01 0.  1.
         13    1    4    4    0    0 -0.84068118796E+02 -0.11148490302E+03 -0.37934297784E+03  0.40422447605E+03  0.00000000000E+00 0. -1.
        -14    1    4    4    0    0 -0.19057491135E+03 -0.19620592804E+03 -0.48659978905E+03  0.55820687719E+03  0.00000000000E+00 0.  1.
</event>
<event>
12    1  0.1594900E-001  0.1857365E+03  0.7818608E-02  0.1165230E+00
         21   -1    0    0  501  502  0.00000000000E+00  0.00000000000E+00  0.13877430968E+02  0.13877430968E+02  0.00000000000E+00 0.  1.
         21   -1    0    0  502  503 -0.00000000000E+00 -0.00000000000E+00 -0.23470747267E+04  0.23470747267E+04  0.00000000000E+00 0.  1.
         -6    2    1    2    0  503 -0.12024014427E+02 -0.64636462158E+02 -0.12316201404E+04  0.12438262642E+04  0.16091350540E+03 0.  0.
        -24    2    3    3    0    0  0.37761824657E+02 -0.85913679490E+02 -0.96062088197E+03  0.96743155043E+03  0.65758727021E+02 0.  0.
          6    2    1    2  501    0  0.12024014427E+02  0.64636462158E+02 -0.11015771553E+04  0.11171258934E+04  0.17371120703E+03 0.  0.
         24    2    5    5    0    0  0.19443783760E+02  0.27921337830E+02 -0.10462872700E+04  0.10501772956E+04  0.83651891679E+02 0.  0.
          5    1    5    5  501    0 -0.74197693329E+01  0.36715124328E+02 -0.55289885324E+02  0.66948597823E+02  0.47000000000E+01 0. -1.
        -11    1    6    6    0    0  0.37064810606E+02  0.41957425708E+02 -0.93263494085E+03  0.93431373674E+03  0.00000000000E+00 0.  1.
         12    1    6    6    0    0 -0.17621026846E+02 -0.14036087878E+02 -0.11365232916E+03  0.11586355887E+03  0.00000000000E+00 0. -1.
         -5    1    3    3    0  503 -0.49785839084E+02  0.21277217332E+02 -0.27099925840E+03  0.27639471378E+03  0.47000000000E+01 0.  1.
         11    1    4    4    0    0  0.55190228864E+02 -0.63394849278E+02 -0.62914407712E+03  0.63473391122E+03  0.00000000000E+00 0. -1.
        -12    1    4    4    0    0 -0.17428404207E+02 -0.22518830212E+02 -0.33147680485E+03  0.33269763922E+03  0.00000000000E+00 0.  1.
</event>
<event>
12    1  0.1594900E-001  0.1816524E+03  0.7818608E-02  0.1166414E+00
         21   -1    0    0  501  502  0.00000000000E+00  0.00000000000E+00  0.28717418520E+03  0.28717418520E+03  0.00000000000E+00 0.  1.
         21   -1    0    0  502  503 -0.00000000000E+00 -0.00000000000E+00 -0.11548655943E+03  0.11548655943E+03  0.00000000000E+00 0.  1.
         -6    2    1    2    0  503  0.47694696218E+01 -0.58779067404E+02  0.65907972777E+02  0.19245385715E+03  0.17092951662E+03 0.  0.
        -24    2    3    3    0    0 -0.42449158869E+02 -0.54909556459E+02  0.73260958828E+02  0.14427991819E+03  0.10311419022E+03 0.  0.
          6    2    1    2  501    0 -0.47694696218E+01  0.58779067404E+02  0.10577965299E+03  0.21020688748E+03  0.17181348594E+03 0.  0.
         24    2    5    5    0    0 -0.59935641761E+02  0.72950422982E+02  0.75788084754E+02  0.14566451354E+03  0.80995502029E+02 0.  0.
          5    1    5    5  501    0  0.55166172139E+02 -0.14171355578E+02  0.29991568235E+02  0.64542373931E+02  0.47000000000E+01 0. -1.
        -11    1    6    6    0    0 -0.61082178189E+02  0.18168899159E+02  0.62548393864E+02  0.89294137344E+02  0.00000000000E+00 0.  1.
         12    1    6    6    0    0  0.11465364282E+01  0.54781523823E+02  0.13239690890E+02  0.56370376201E+02  0.00000000000E+00 0. -1.
         -5    1    3    3    0  503  0.47218628491E+02 -0.38695109451E+01 -0.73529860506E+01  0.48173938964E+02  0.47000000000E+01 0.  1.
         13    1    4    4    0    0  0.26399409630E+02 -0.26914081422E+01  0.46987534107E+02  0.53962958295E+02  0.00000000000E+00 0. -1.
        -14    1    4    4    0    0 -0.68848568498E+02 -0.52218148317E+02  0.26273424721E+02  0.90316959894E+02  0.00000000000E+00 0.  1.
</event>
<event>
12    1  0.1594900E-001  0.1830744E+03  0.7818608E-02  0.1164963E+00
         21   -1    0    0  503  502  0.00000000000E+00  0.00000000000E+00  0.72278924361E+02  0.72278924361E+02  0.00000000000E+00 0.  1.
         21   -1    0    0  501  503 -0.00000000000E+00 -0.00000000000E+00 -0.54756680200E+03  0.54756680200E+03  0.00000000000E+00 0.  1.
          6    2    1    2  501    0 -0.60682012774E+02  0.18100098781E+02 -0.35948113908E+03  0.40321828766E+03  0.17131368277E+03 0.  0.
         24    2    3    3    0    0 -0.30850522165E+02 -0.36359413472E+00 -0.35761604633E+03  0.36777263407E+03  0.80097358588E+02 0.  0.
         -6    2    1    2    0  502  0.60682012774E+02 -0.18100098781E+02 -0.11580673856E+03  0.21662743870E+03  0.17177405581E+03 0.  0.
        -24    2    5    5    0    0  0.15156459386E+02  0.35440731575E+02 -0.12057500893E+03  0.14602982593E+03  0.72805312771E+02 0.  0.
          5    1    3    3  501    0 -0.29831490609E+02  0.18463692916E+02 -0.18650927427E+01  0.35445653598E+02  0.47000000000E+01 0. -1.
        -13    1    4    4    0    0  0.20978147952E+02 -0.17666232073E+02 -0.17570535976E+03  0.17783293254E+03  0.00000000000E+00 0.  1.
         14    1    4    4    0    0 -0.51828670117E+02  0.17302637938E+02 -0.18191068658E+03  0.18993970153E+03  0.00000000000E+00 0. -1.
         -5    1    5    5    0  502  0.45525553389E+02 -0.53540830356E+02  0.47682703632E+01  0.70597612770E+02  0.47000000000E+01 0.  1.
         13    1    6    6    0    0  0.25908061125E+02 -0.15465554061E+02 -0.48941379723E+02  0.57494953195E+02  0.00000000000E+00 0. -1.
        -14    1    6    6    0    0 -0.10751601739E+02  0.50906285636E+02 -0.71633629203E+02  0.88534872734E+02  0.00000000000E+00 0.  1.
</event>
<event>
12    1  0.1594900E-001  0.2090627E+03  0.7818608E-02  0.1143141E+00
         21   -1    0    0  501  502  0.00000000000E+00  0.00000000000E+00  0.27018992809E+03  0.27018992809E+03  0.00000000000E+00 0.  1.
         21   -1    0    0  502  503 -0.00000000000E+00 -0.00000000000E+00 -0.17437216876E+03  0.17437216876E+03  0.00000000000E+00 0.  1.
         -6    2    1    2    0  503 -0.10759138878E+03 -0.43655925131E+02 -0.18531003522E+02  0.20988238689E+03  0.17385474252E+03 0.  0.
        -24    2    3    3    0    0 -0.12843657602E+03 -0.71616517823E+02 -0.35313695118E+02  0.17089437191E+03  0.79579831643E+02 0.  0.
          6    2    1    2  501    0  0.10759138878E+03  0.43655925131E+02  0.11434876286E+03  0.23467970996E+03  0.16887030516E+03 0.  0.
         24    2    5    5    0    0  0.48484380816E+02  0.67646304521E+02  0.15176613081E+02  0.11666961724E+03  0.80341224186E+02 0.  0.
          5    1    5    5  501    0  0.59107007962E+02 -0.23990379390E+02  0.99172149778E+02  0.11801009273E+03  0.47000000000E+01 0. -1.
        -13    1    6    6    0    0  0.45737781499E+02  0.75274217243E+01  0.29320968134E+02  0.54848207870E+02  0.00000000000E+00 0.  1.
         14    1    6    6    0    0  0.27465993172E+01  0.60118882797E+02 -0.14144355053E+02  0.61821409369E+02  0.00000000000E+00 0. -1.
         -5    1    3    3    0  503  0.20845187237E+02  0.27960592692E+02  0.16782691595E+02  0.38988014977E+02  0.47000000000E+01 0.  1.
         13    1    4    4    0    0 -0.52026436082E+01 -0.29911100525E+01  0.18862928929E+02  0.19794552979E+02  0.00000000000E+00 0. -1.
        -14    1    4    4    0    0 -0.12323393241E+03 -0.68625407771E+02 -0.54176624046E+02  0.15109981893E+03  0.00000000000E+00 0.  1.
</event>
<event>
12    1  0.1594900E-001  0.1876397E+03  0.7818608E-02  0.1160633E+00
         21   -1    0    0  501  502  0.00000000000E+00  0.00000000000E+00  0.19098052098E+03  0.19098052098E+03  0.00000000000E+00 0.  1.
         21   -1    0    0  502  503 -0.00000000000E+00 -0.00000000000E+00 -0.27333237849E+03  0.27333237849E+03  0.00000000000E+00 0.  1.
         -6    2    1    2    0  503 -0.36854445771E+02 -0.60738959786E+02 -0.17370295186E+03  0.25561767692E+03  0.17355174980E+03 0.  0.
        -24    2    3    3    0    0  0.10784796335E+02 -0.63973475654E+02 -0.28466907522E+02  0.10266161114E+03  0.74297538044E+02 0.  0.
          6    2    1    2  501    0  0.36854445771E+02  0.60738959786E+02  0.91351094354E+02  0.20869522256E+03  0.17366980760E+03 0.  0.
         24    2    5    5    0    0  0.52731177073E+01  0.94744717432E+02  0.10327904832E+03  0.16054817778E+03  0.78133144789E+02 0.  0.
          5    1    5    5  501    0  0.31581328064E+02 -0.34005757647E+02 -0.11927953964E+02  0.48147044781E+02  0.47000000000E+01 0. -1.
        -13    1    6    6    0    0  0.14837199308E+02  0.52580092212E+02  0.10381058792E+03  0.11730919292E+03  0.00000000000E+00 0.  1.
         14    1    6    6    0    0 -0.95640816009E+01  0.42164625221E+02 -0.53153960144E+00  0.43238984854E+02  0.00000000000E+00 0. -1.
         -5    1    3    3    0  503 -0.47639242106E+02  0.32345158682E+01 -0.14523604434E+03  0.15295606577E+03  0.47000000000E+01 0.  1.
         13    1    4    4    0    0 -0.26813370699E+02 -0.45860885120E+02 -0.18375410433E+01  0.53155942183E+02  0.00000000000E+00 0. -1.
        -14    1    4    4    0    0  0.37598167034E+02 -0.18112590534E+02 -0.26629366478E+02  0.49505668960E+02  0.00000000000E+00 0.  1.
</event>
<event>
12    1  0.1594900E-001  0.2399202E+03  0.7818608E-02  0.1119847E+00
         21   -1    0    0  501  502  0.00000000000E+00  0.00000000000E+00  0.10345740548E+03  0.10345740548E+03  0.00000000000E+00 0. -1.
         21   -1    0    0  502  503 -0.00000000000E+00 -0.00000000000E+00 -0.61342488326E+03  0.61342488326E+03  0.00000000000E+00 0.  1.
         -6    2    1    2    0  503  0.44752549174E+02  0.16144434864E+03 -0.36430240330E+03  0.43620454783E+03  0.17172972409E+03 0.  0.
        -24    2    3    3    0    0  0.12703653173E+02  0.66109725063E+02 -0.29792742275E+03  0.31560790513E+03  0.79471516939E+02 0.  0.
          6    2    1    2  501    0 -0.44752549174E+02 -0.16144434864E+03 -0.14566507449E+03  0.28067774091E+03  0.17173995444E+03 0.  0.
         24    2    5    5    0    0  0.22228298172E+02 -0.14393009697E+03 -0.76809007691E+02  0.18292074189E+03  0.79689422755E+02 0.  0.
          5    1    5    5  501    0 -0.66980847346E+02 -0.17514251678E+02 -0.68856066796E+02  0.97756999021E+02  0.47000000000E+01 0. -1.
        -13    1    6    6    0    0  0.15098628665E+02  0.25941075067E+01  0.34496449672E+01  0.15703440123E+02  0.00000000000E+00 0.  1.
         14    1    6    6    0    0  0.71296695070E+01 -0.14652420447E+03 -0.80258652658E+02  0.16721730177E+03  0.00000000000E+00 0. -1.
         -5    1    3    3    0  503  0.32048896001E+02  0.95334623581E+02 -0.66374980548E+02  0.12059664270E+03  0.47000000000E+01 0.  1.
         11    1    4    4    0    0  0.39935941996E+02  0.26174036411E+02 -0.87297918012E+02  0.99503196603E+02  0.00000000000E+00 0. -1.
        -12    1    4    4    0    0 -0.27232288823E+02  0.39935688652E+02 -0.21062950474E+03  0.21610470853E+03  0.00000000000E+00 0.  1.
</event>
<event>
12    1  0.1594900E-001  0.2450849E+03  0.7818608E-02  0.1116759E+00
         21   -1    0    0  501  502  0.00000000000E+00  0.00000000000E+00  0.22652575978E+03  0.22652575978E+03  0.00000000000E+00 0.  1.
         21   -1    0    0  502  503 -0.00000000000E+00 -0.00000000000E+00 -0.26315062695E+03  0.26315062695E+03  0.00000000000E+00 0. -1.
         -6    2    1    2    0  503 -0.17063413160E+03  0.57974511327E+01 -0.20915451336E+02  0.24597575273E+03  0.17583229942E+03 0.  0.
        -24    2    3    3    0    0 -0.78336320715E+02  0.60845604326E+02 -0.46345782846E+02  0.13544079525E+03  0.79733999781E+02 0.  0.
          6    2    1    2  501    0  0.17063413160E+03 -0.57974511327E+01 -0.15709415835E+02  0.24370063399E+03  0.17318659289E+03 0.  0.
         24    2    5    5    0    0  0.17001600301E+03  0.42017563019E+02  0.39700068877E+01  0.19177735078E+03  0.78050460829E+02 0.  0.
          5    1    5    5  501    0  0.61812859656E+00 -0.47815014152E+02 -0.19679422723E+02  0.51923283217E+02  0.47000000000E+01 0. -1.
        -11    1    6    6    0    0  0.13062095502E+03  0.60682940379E+02  0.19832850761E+02  0.14538774059E+03  0.00000000000E+00 0.  1.
         12    1    6    6    0    0  0.39395047988E+02 -0.18665377360E+02 -0.15862843874E+02  0.46389610192E+02  0.00000000000E+00 0. -1.
         -5    1    3    3    0  503 -0.92297810889E+02 -0.55048153193E+02  0.25430331510E+02  0.11053495748E+03  0.47000000000E+01 0.  1.
         11    1    4    4    0    0 -0.71550067107E+02  0.51457131834E+02 -0.47855041829E+00  0.88133294107E+02  0.00000000000E+00 0. -1.
        -12    1    4    4    0    0 -0.67862536085E+01  0.93884724921E+01 -0.45867232428E+02  0.47307501143E+02  0.00000000000E+00 0.  1.
</event>
<event>
12    1  0.1594900E-001  0.1901084E+03  0.7818608E-02  0.1158726E+00
         21   -1    0    0  503  502  0.00000000000E+00  0.00000000000E+00  0.40320549163E+03  0.40320549163E+03  0.00000000000E+00 0. -1.
         21   -1    0    0  501  503 -0.00000000000E+00 -0.00000000000E+00 -0.11843632284E+03  0.11843632284E+03  0.00000000000E+00 0.  1.
          6    2    1    2  501    0 -0.63898600400E+02 -0.47196155202E+02  0.11639775152E+02  0.18886431024E+03  0.17094951044E+03 0.  0.
         24    2    3    3    0    0 -0.47646672385E+02  0.33460540408E+02 -0.20148067018E+02  0.10053433446E+03  0.79444286439E+02 0.  0.
         -6    2    1    2    0  502  0.63898600400E+02  0.47196155202E+02  0.27312939364E+03  0.33277750422E+03  0.17271564333E+03 0.  0.
        -24    2    5    5    0    0 -0.25198960291E+01  0.19112942852E+01  0.22577916914E+03  0.23936300291E+03  0.79425506115E+02 0.  0.
          5    1    3    3  501    0 -0.16251928015E+02 -0.80656695611E+02  0.31787842170E+02  0.88329975778E+02  0.47000000000E+01 0. -1.
        -11    1    4    4    0    0 -0.21898045050E+02  0.33431774651E+02 -0.48095887633E+02  0.62533369816E+02  0.00000000000E+00 0.  1.
         12    1    4    4    0    0 -0.25748627335E+02  0.28765757222E-01  0.27947820615E+02  0.38000964648E+02  0.00000000000E+00 0. -1.
         -5    1    5    5    0  502  0.66418496429E+02  0.45284860917E+02  0.47350224493E+02  0.93414501314E+02  0.47000000000E+01 0.  1.
         11    1    6    6    0    0 -0.21768090905E+02  0.34492176013E+02  0.13457028368E+03  0.14061550852E+03  0.00000000000E+00 0. -1.
        -12    1    6    6    0    0  0.19248194876E+02 -0.32580881728E+02  0.91208885462E+02  0.98747494386E+02  0.00000000000E+00 0.  1.
</event>
<event>
12    1  0.1594900E-001  0.1869379E+03  0.7818608E-02  0.1163405E+00
         21   -1    0    0  503  502  0.00000000000E+00  0.00000000000E+00  0.17315660433E+04  0.17315660433E+04  0.00000000000E+00 0.  1.
         21   -1    0    0  501  503 -0.00000000000E+00 -0.00000000000E+00 -0.37797821683E+02  0.37797821683E+02  0.00000000000E+00 0.  1.
          6    2    1    2  501    0 -0.66835719363E+02  0.25482290041E+02  0.21586483960E+03  0.27968464633E+03  0.16281741901E+03 0.  0.
         24    2    3    3    0    0 -0.91341743493E+02  0.53488216339E+02  0.12877811868E+03  0.18486342462E+03  0.79914820409E+02 0.  0.
         -6    2    1    2    0  502  0.66835719363E+02 -0.25482290041E+02  0.14779033820E+04  0.14896792186E+04  0.17271192028E+03 0.  0.
        -24    2    5    5    0    0  0.60425352201E+02 -0.79800062832E+02  0.11549439164E+04  0.11620873694E+04  0.80822836641E+02 0.  0.
          5    1    3    3  501    0  0.24506024130E+02 -0.28005926298E+02  0.87086720918E+02  0.94821221710E+02  0.47000000000E+01 0. -1.
        -11    1    4    4    0    0 -0.76839676240E+02  0.17778034279E+01  0.91449744385E+02  0.11945941645E+03  0.00000000000E+00 0.  1.
         12    1    4    4    0    0 -0.14502067253E+02  0.51710412911E+02  0.37328374295E+02  0.65404008176E+02  0.00000000000E+00 0. -1.
         -5    1    5    5    0  502  0.64103671621E+01  0.54317772792E+02  0.32295946562E+03  0.32759184923E+03  0.47000000000E+01 0.  1.
         13    1    6    6    0    0  0.67151992971E+02 -0.77125050539E+02  0.73488219056E+03  0.74196327239E+03  0.00000000000E+00 0. -1.
        -14    1    6    6    0    0 -0.67266407695E+01 -0.26750122933E+01  0.42006172582E+03  0.42012409700E+03  0.00000000000E+00 0.  1.
</event>
<event>
12    1  0.1594900E-001  0.1940453E+03  0.7818608E-02  0.1155574E+00
         21   -1    0    0  501  502  0.00000000000E+00  0.00000000000E+00  0.18474281635E+02  0.18474281635E+02  0.00000000000E+00 0.  1.
         21   -1    0    0  502  503 -0.00000000000E+00 -0.00000000000E+00 -0.20499137172E+04  0.20499137172E+04  0.00000000000E+00 0.  1.
         -6    2    1    2    0  503  0.13001585734E+02 -0.88289643094E+02 -0.11778712924E+04  0.11937480223E+04  0.17230628835E+03 0.  0.
        -24    2    3    3    0    0  0.52253842286E+02  0.42804700709E+01 -0.52852866420E+03  0.53664992895E+03  0.76823244583E+02 0.  0.
          6    2    1    2  501    0 -0.13001585734E+02  0.88289643094E+02 -0.85356814312E+03  0.87463997648E+03  0.16867842540E+03 0.  0.
         24    2    5    5    0    0 -0.11082758784E+02  0.73518489154E+02 -0.28176042367E+03  0.30261897433E+03  0.81618083065E+02 0.  0.
          5    1    5    5  501    0 -0.19188269501E+01  0.14771153940E+02 -0.57180771945E+03  0.57202100215E+03  0.47000000000E+01 0. -1.
        -13    1    6    6    0    0 -0.14719761872E+02  0.88572888471E+02 -0.26500308097E+03  0.27980075212E+03  0.00000000000E+00 0.  1.
         14    1    6    6    0    0  0.36370030878E+01 -0.15054399317E+02 -0.16757342703E+02  0.22818222207E+02  0.00000000000E+00 0. -1.
         -5    1    3    3    0  503 -0.39252256552E+02 -0.92570113165E+02 -0.64934262823E+03  0.65709809338E+03  0.47000000000E+01 0.  1.
         11    1    4    4    0    0  0.57945323980E+01 -0.54705671934E+01 -0.23136805115E+01  0.82980014846E+01  0.00000000000E+00 0. -1.
        -12    1    4    4    0    0  0.46459309888E+02  0.97510372643E+01 -0.52621498369E+03  0.52835192747E+03  0.00000000000E+00 0.  1.
</event>
<event>
12    1  0.1594900E-001  0.2332409E+03  0.7818608E-02  0.1124511E+00
         21   -1    0    0  501  502  0.00000000000E+00  0.00000000000E+00  0.40398818042E+03  0.40398818042E+03  0.00000000000E+00 0.  1.
         21   -1    0    0  502  503 -0.00000000000E+00 -0.00000000000E+00 -0.15758251139E+03  0.15758251139E+03  0.00000000000E+00 0. -1.
         -6    2    1    2    0  503  0.10953976654E+03  0.11255062876E+03  0.23113838460E+03  0.32783065540E+03  0.17140998016E+03 0.  0.
        -24    2    3    3    0    0  0.12486922545E+03  0.70382199652E+02  0.11122090551E+03  0.19970782170E+03  0.83469435938E+02 0.  0.
          6    2    1    2  501    0 -0.10953976654E+03 -0.11255062876E+03  0.15267284441E+02  0.23374003641E+03  0.17243755437E+03 0.  0.
         24    2    5    5    0    0 -0.96584558891E+02 -0.41745581303E+02 -0.44482555846E+02  0.14007400433E+03  0.81060214293E+02 0.  0.
          5    1    5    5  501    0 -0.12955207651E+02 -0.70805047456E+02  0.59749840286E+02  0.93666032076E+02  0.47000000000E+01 0. -1.
        -13    1    6    6    0    0  0.81092148492E+01 -0.16823676105E+02  0.80268046746E+01  0.20327937339E+02  0.00000000000E+00 0.  1.
         14    1    6    6    0    0 -0.10469377374E+03 -0.24921905197E+02 -0.52509360520E+02  0.11974606700E+03  0.00000000000E+00 0. -1.
         -5    1    3    3    0  503 -0.15329458904E+02  0.42168429107E+02  0.11991747909E+03  0.12812283370E+03  0.47000000000E+01 0.  1.
         11    1    4    4    0    0  0.48214213993E+02  0.70662417724E+02  0.37662355201E+02  0.93467859230E+02  0.00000000000E+00 0. -1.
        -12    1    4    4    0    0  0.76655011454E+02 -0.28021807242E+00  0.73558550308E+02  0.10623996247E+03  0.00000000000E+00 0.  1.
</event>
<event>
12    1  0.1594900E-001  0.2212133E+03  0.7818608E-02  0.1133389E+00
         21   -1    0    0  503  502  0.00000000000E+00  0.00000000000E+00  0.25402055472E+03  0.25402055472E+03  0.00000000000E+00 0. -1.
         21   -1    0    0  501  503 -0.00000000000E+00 -0.00000000000E+00 -0.49197091721E+03  0.49197091721E+03  0.00000000000E+00 0. -1.
          6    2    1    2  501    0 -0.67347992348E+01  0.13902195951E+03 -0.41106790841E+03  0.46681061918E+03  0.17193855329E+03 0.  0.
         24    2    3    3    0    0 -0.30710969362E+02  0.13023845361E+03 -0.41120785696E+03  0.44084686953E+03  0.85725388971E+02 0.  0.
         -6    2    1    2    0  502  0.67347992348E+01 -0.13902195951E+03  0.17311754592E+03  0.27918085276E+03  0.16911475717E+03 0.  0.
        -24    2    5    5    0    0  0.56696655001E+02 -0.76189312474E+02  0.15236487211E+03  0.19613332398E+03  0.78955078998E+02 0.  0.
          5    1    3    3  501    0  0.23976170127E+02  0.87835059058E+01  0.13994855202E+00  0.25963749644E+02  0.47000000000E+01 0. -1.
        -11    1    4    4    0    0 -0.58518140187E+02  0.91145084675E+02 -0.24545148270E+03  0.26828758740E+03  0.00000000000E+00 0.  1.
         12    1    4    4    0    0  0.27807170825E+02  0.39093368933E+02 -0.16575637426E+03  0.17255928214E+03  0.00000000000E+00 0. -1.
         -5    1    5    5    0  502 -0.49961855766E+02 -0.62832647040E+02  0.20752673811E+02  0.83047528777E+02  0.47000000000E+01 0.  1.
         13    1    6    6    0    0  0.27397282083E+02 -0.61411724992E+02  0.38184231667E+02  0.77330760891E+02  0.00000000000E+00 0. -1.
        -14    1    6    6    0    0  0.29299372918E+02 -0.14777587482E+02  0.11418064044E+03  0.11880256309E+03  0.00000000000E+00 0.  1.
</event>
<event>
12    1  0.1594900E-001  0.1805829E+03  0.7818608E-02  0.1167754E+00
         21   -1    0    0  503  502  0.00000000000E+00  0.00000000000E+00  0.31653336696E+02  0.31653336696E+02  0.00000000000E+00 0. -1.
         21   -1    0    0  501  503 -0.00000000000E+00 -0.00000000000E+00 -0.11128549593E+04  0.11128549593E+04  0.00000000000E+00 0. -1.
          6    2    1    2  501    0 -0.23181433366E+02 -0.36218608959E+02 -0.70459266763E+03  0.72684279192E+03  0.17320638094E+03 0.  0.
         24    2    3    3    0    0 -0.29714643870E+02 -0.30177089690E+02 -0.18229367760E+03  0.20444686182E+03  0.82303812876E+02 0.  0.
         -6    2    1    2    0  502  0.23181433366E+02  0.36218608959E+02 -0.37660895496E+03  0.41766550406E+03  0.17538814623E+03 0.  0.
        -24    2    5    5    0    0  0.43737696607E+02  0.43194157820E+02 -0.38153549609E+03  0.39491514037E+03  0.81301364965E+02 0.  0.
          5    1    3    3  501    0  0.65332105035E+01 -0.60415192692E+01 -0.52229899003E+03  0.52239593009E+03  0.47000000000E+01 0. -1.
        -11    1    4    4    0    0 -0.41103166509E+02  0.15196845855E+02 -0.10919407206E+03  0.11765950788E+03  0.00000000000E+00 0.  1.
         12    1    4    4    0    0  0.11388522639E+02 -0.45373935544E+02 -0.73099605541E+02  0.86787353946E+02  0.00000000000E+00 0. -1.
         -5    1    5    5    0  502 -0.20556263240E+02 -0.69755488610E+01  0.49265411330E+01  0.22750363686E+02  0.47000000000E+01 0.  1.
         13    1    6    6    0    0  0.10448583853E+02  0.35504481698E+02 -0.53202461717E+02  0.64809282189E+02  0.00000000000E+00 0. -1.
        -14    1    6    6    0    0  0.33289112754E+02  0.76896761222E+01 -0.32833303437E+03  0.33010585819E+03  0.00000000000E+00 0.  1.
</event>
<event>
12    1  0.1594900E-001  0.2036175E+03  0.7818608E-02  0.1150252E+00
         21   -1    0    0  501  502  0.00000000000E+00  0.00000000000E+00  0.43590094537E+02  0.43590094537E+02  0.00000000000E+00 0. -1.
         21   -1    0    0  502  503 -0.00000000000E+00 -0.00000000000E+00 -0.88941534686E+03  0.88941534686E+03  0.00000000000E+00 0. -1.
         -6    2    1    2    0  503  0.14938256867E+02 -0.71885681553E+02 -0.34856693515E+03  0.39567321567E+03  0.17224309153E+03 0.  0.
        -24    2    3    3    0    0  0.24706117207E+02  0.26953982274E+02 -0.16854852169E+03  0.19001960051E+03  0.79761739107E+02 0.  0.
          6    2    1    2  501    0 -0.14938256867E+02  0.71885681553E+02 -0.49725831717E+03  0.53733222573E+03  0.18991941472E+03 0.  0.
         24    2    5    5    0    0 -0.56637536122E+02  0.40177488905E+02 -0.46189815535E+03  0.47395501835E+03  0.80382911073E+02 0.  0.
          5    1    5    5  501    0  0.41699279255E+02  0.31708192649E+02 -0.35360161817E+02  0.63377207379E+02  0.47000000000E+01 0. -1.
        -13    1    6    6    0    0 -0.40128064821E+02  0.59913862684E+02 -0.24082228644E+03  0.25138676610E+03  0.00000000000E+00 0.  1.
         14    1    6    6    0    0 -0.16509471301E+02 -0.19736373779E+02 -0.22107586892E+03  0.22256825225E+03  0.00000000000E+00 0. -1.
         -5    1    3    3    0  503 -0.97678603406E+01 -0.98839663827E+02 -0.18001841346E+03  0.20565361516E+03  0.47000000000E+01 0.  1.
         11    1    4    4    0    0 -0.15237806179E+02  0.75577339210E+01 -0.13032350673E+03  0.13142878865E+03  0.00000000000E+00 0. -1.
        -12    1    4    4    0    0  0.39943923387E+02  0.19396248353E+02 -0.38225014961E+02  0.58590811860E+02  0.00000000000E+00 0.  1.
</event>
<event>
12    1  0.1594900E-001  0.1965666E+03  0.7818608E-02  0.1152684E+00
         21   -1    0    0  501  502  0.00000000000E+00  0.00000000000E+00  0.30927768989E+03  0.30927768989E+03  0.00000000000E+00 0. -1.
         21   -1    0    0  502  503 -0.00000000000E+00 -0.00000000000E+00 -0.12532987393E+03  0.12532987393E+03  0.00000000000E+00 0. -1.
         -6    2    1    2    0  503 -0.10784297449E+02 -0.94124204002E+02  0.79028971307E+02  0.21179287367E+03  0.17214812279E+03 0.  0.
        -24    2    3    3    0    0 -0.38245428759E+02 -0.12253638586E+03  0.40805322843E+02  0.15661585751E+03  0.79909785194E+02 0.  0.
          6    2    1    2  501    0  0.10784297449E+02  0.94124204002E+02  0.10491884465E+03  0.22281469015E+03  0.17222878776E+03 0.  0.
         24    2    5    5    0    0  0.36264094913E+01 -0.12367325733E+02  0.14495801850E+02  0.82850059137E+02  0.80547516636E+02 0.  0.
          5    1    5    5  501    0  0.71578879574E+01  0.10649152973E+03  0.90423042799E+02  0.13996463101E+03  0.47000000000E+01 0. -1.
        -13    1    6    6    0    0 -0.35691325508E+02  0.74887561107E-02  0.20556235507E+02  0.41187735928E+02  0.00000000000E+00 0.  1.
         14    1    6    6    0    0  0.39317734999E+02 -0.12374814489E+02 -0.60604336572E+01  0.41662323210E+02  0.00000000000E+00 0. -1.
         -5    1    3    3    0  503  0.27461131310E+02  0.28412181859E+02  0.38223648464E+02  0.55177016164E+02  0.47000000000E+01 0.  1.
         11    1    4    4    0    0  0.48736258165E+00 -0.89584088955E+02 -0.27968303185E+01  0.89629062117E+02  0.00000000000E+00 0. -1.
        -12    1    4    4    0    0 -0.38732791341E+02 -0.32952296906E+02  0.43602153161E+02  0.66986795391E+02  0.00000000000E+00 0.  1.
</event>
<event>
12    1  0.1594900E-001  0.2258124E+03  0.7818608E-02  0.1130346E+00
         21   -1    0    0  503  502  0.00000000000E+00  0.00000000000E+00  0.39471792032E+03  0.39471792032E+03  0.00000000000E+00 0.  1.
         21   -1    0    0  501  503 -0.00000000000E+00 -0.00000000000E+00 -0.13474255665E+03  0.13474255665E+03  0.00000000000E+00 0.  1.
          6    2    1    2  501    0 -0.72055097522E+02 -0.12946318701E+03  0.65104720300E+02  0.23118912797E+03  0.16509734830E+03 0.  0.
         24    2    3    3    0    0 -0.76211438161E+02 -0.24591995132E+02  0.18014279389E+02  0.11605945465E+03  0.82050796590E+02 0.  0.
         -6    2    1    2    0  502  0.72055097522E+02  0.12946318701E+03  0.19487064337E+03  0.29827134899E+03  0.17040708939E+03 0.  0.
        -24    2    5    5    0    0 -0.15125870266E+02  0.49182146691E+02  0.30924895205E+02  0.95920502886E+02  0.74811217247E+02 0.  0.
          5    1    3    3  501    0  0.41563406383E+01 -0.10487119187E+03  0.47090440911E+02  0.11512967332E+03  0.47000000000E+01 0. -1.
        -13    1    4    4    0    0 -0.29840752467E+02 -0.51558679060E+02  0.31259097373E+00  0.59572356067E+02  0.00000000000E+00 0.  1.
         14    1    4    4    0    0 -0.46370685693E+02  0.26966683928E+02  0.17701688415E+02  0.56487098585E+02  0.00000000000E+00 0. -1.
         -5    1    5    5    0  502  0.87180967788E+02  0.80281040316E+02  0.16394574816E+03  0.20235084611E+03  0.47000000000E+01 0.  1.
         13    1    6    6    0    0 -0.12061059732E+02  0.22272941952E+02 -0.23866006894E+02  0.34801427990E+02  0.00000000000E+00 0. -1.
        -14    1    6    6    0    0 -0.30648105337E+01  0.26909204739E+02  0.54790902100E+02  0.61119074897E+02  0.00000000000E+00 0.  1.
</event>
<event>
12    1  0.1594900E-001  0.1766806E+03  0.7818608E-02  0.1171424E+00
         21   -1    0    0  501  502  0.00000000000E+00  0.00000000000E+00  0.71439785062E+03  0.71439785062E+03  0.00000000000E+00 0. -1.
         21   -1    0    0  502  503 -0.00000000000E+00 -0.00000000000E+00 -0.78085737001E+02  0.78085737001E+02  0.00000000000E+00 0. -1.
         -6    2    1    2    0  503  0.39108899941E+01 -0.19072175876E+02  0.53055016935E+02  0.18305362606E+03  0.17411132140E+03 0.  0.
        -24    2    3    3    0    0 -0.54757188865E+02 -0.41532196339E+02  0.71748308435E+01  0.10512110735E+03  0.79219290252E+02 0.  0.
          6    2    1    2  501    0 -0.39108899941E+01  0.19072175876E+02  0.58325709668E+03  0.60942996156E+03  0.17560465331E+03 0.  0.
         24    2    5    5    0    0  0.40512523822E+02  0.38282074152E+02  0.52369483547E+03  0.53253904632E+03  0.78960581072E+02 0.  0.
          5    1    5    5  501    0 -0.44423413816E+02 -0.19209898276E+02  0.59562261210E+02  0.76890915246E+02  0.47000000000E+01 0. -1.
        -13    1    6    6    0    0  0.41887358675E+02  0.55947946902E+02  0.29530826518E+03  0.30346613496E+03  0.00000000000E+00 0.  1.
         14    1    6    6    0    0 -0.13748348525E+01 -0.17665872750E+02  0.22838657029E+03  0.22907291136E+03  0.00000000000E+00 0. -1.
         -5    1    3    3    0  503  0.58668078859E+02  0.22460020463E+02  0.45880186092E+02  0.77932518707E+02  0.47000000000E+01 0.  1.
         11    1    4    4    0    0  0.19607219019E+02 -0.10110156646E+02  0.10264727385E+02  0.24331521394E+02  0.00000000000E+00 0. -1.
        -12    1    4    4    0    0 -0.74364407884E+02 -0.31422039694E+02 -0.30898965419E+01  0.80789585957E+02  0.00000000000E+00 0.  1.
</event>
<event>
12    1  0.1594900E-001  0.2003791E+03  0.7818608E-02  0.1149718E+00
         21   -1    0    0  503  502  0.00000000000E+00  0.00000000000E+00  0.34733175980E+03  0.34733175980E+03  0.00000000000E+00 0. -1.
         21   -1    0    0  501  503 -0.00000000000E+00 -0.00000000000E+00 -0.24060439014E+03  0.24060439014E+03  0.00000000000E+00 0. -1.
          6    2    1    2  501    0  0.54668430637E+02 -0.83896677998E+02 -0.15912465027E+03  0.25587586056E+03  0.17356414321E+03 0.  0.
         24    2    3    3    0    0  0.42142520700E+02 -0.33657672604E+02 -0.17672382774E+03  0.20098800097E+03  0.79095096360E+02 0.  0.
         -6    2    1    2    0  502 -0.54668430637E+02  0.83896677998E+02  0.26585201993E+03  0.33206028937E+03  0.17192861713E+03 0.  0.
        -24    2    5    5    0    0  0.23634453417E+02  0.78886757925E+02  0.19512424832E+03  0.22632028451E+03  0.79785280182E+02 0.  0.
          5    1    3    3  501    0  0.12525909937E+02 -0.50239005394E+02  0.17599177472E+02  0.54887859590E+02  0.47000000000E+01 0. -1.
        -13    1    4    4    0    0 -0.95510627484E+01  0.87888461512E+01 -0.10623459499E+01  0.13022872003E+02  0.00000000000E+00 0.  1.
         14    1    4    4    0    0  0.51693583449E+02 -0.42446518755E+02 -0.17566148179E+03  0.18796512897E+03  0.00000000000E+00 0. -1.
         -5    1    5    5    0  502 -0.78302884054E+02  0.50099200725E+01  0.70727771606E+02  0.10574000486E+03  0.47000000000E+01 0.  1.
         13    1    6    6    0    0 -0.18848540653E+02  0.17062753845E+02  0.10982296612E+03  0.11272749860E+03  0.00000000000E+00 0. -1.
        -14    1    6    6    0    0  0.42482994070E+02  0.61824004080E+02  0.85301282207E+02  0.11359278591E+03  0.00000000000E+00 0.  1.
</event>
<event>
12    1  0.1594900E-001  0.2450247E+03  0.7818608E-02  0.1116552E+00
         21   -1    0    0  501  502  0.00000000000E+00  0.00000000000E+00  0.22665433359E+03  0.22665433359E+03  0.00000000000E+00 0. -1.
         21   -1    0    0  502  503 -0.00000000000E+00 -0.00000000000E+00 -0.27301333394E+03  0.27301333394E+03  0.00000000000E+00 0.  1.
         -6    2    1    2    0  503  0.17414547521E+03 -0.35111371954E+01 -0.67387187301E+02  0.25412224630E+03  0.17233139131E+03 0.  0.
        -24    2    3    3    0    0  0.14405538847E+03 -0.64836910761E+02 -0.49995884147E+02  0.18347657234E+03  0.78792666044E+02 0.  0.
          6    2    1    2  501    0 -0.17414547521E+03  0.35111371954E+01  0.21028186943E+02  0.24554542123E+03  0.17178880820E+03 0.  0.
         24    2    5    5    0    0 -0.66551486305E+02 -0.14235606067E+02 -0.49269914545E+02  0.11571735640E+03  0.79569022138E+02 0.  0.
          5    1    5    5  501    0 -0.10759398891E+03  0.17746743262E+02  0.70298101488E+02  0.12982806483E+03  0.47000000000E+01 0. -1.
        -13    1    6    6    0    0 -0.66941160109E+02 -0.39498182559E+02 -0.27754376847E+02  0.82531998500E+02  0.00000000000E+00 0.  1.
         14    1    6    6    0    0  0.38967380378E+00  0.25262576492E+02 -0.21515537698E+02  0.33185357902E+02  0.00000000000E+00 0. -1.
         -5    1    3    3    0  503  0.30090086744E+02  0.61325773565E+02 -0.17391303153E+02  0.70645673959E+02  0.47000000000E+01 0.  1.
         13    1    4    4    0    0  0.69136523877E+02  0.40381362302E+01  0.18178051145E+01  0.69278206482E+02  0.00000000000E+00 0. -1.
        -14    1    4    4    0    0  0.74918864591E+02 -0.68875046991E+02 -0.51813689262E+02  0.11419836586E+03  0.00000000000E+00 0.  1.
</event>
<event>
12    1  0.1594900E-001  0.1972123E+03  0.7818608E-02  0.1152859E+00
         21   -1    0    0  503  502  0.00000000000E+00  0.00000000000E+00  0.11712020394E+03  0.11712020394E+03  0.00000000000E+00 0.  1.
         21   -1    0    0  501  503 -0.00000000000E+00 -0.00000000000E+00 -0.46764196873E+03  0.46764196873E+03  0.00000000000E+00 0.  1.
          6    2    1    2  501    0 -0.53766603765E+02 -0.73286586724E+02 -0.33707215410E+03  0.39052573083E+03  0.17501696460E+03 0.  0.
         24    2    3    3    0    0  0.37912340251E+02 -0.56455578889E+02 -0.17952082790E+03  0.20740603777E+03  0.78517252379E+02 0.  0.
         -6    2    1    2    0  502  0.53766603765E+02  0.73286586724E+02 -0.13449610686E+02  0.19423644184E+03  0.17112899181E+03 0.  0.
        -24    2    5    5    0    0  0.40762436900E-01 -0.28061075132E+01 -0.44505520882E+02  0.95935253137E+02  0.84940894183E+02 0.  0.
          5    1    3    3  501    0 -0.91678944016E+02 -0.16831007835E+02 -0.15755132620E+03  0.18311969307E+03  0.47000000000E+01 0. -1.
        -11    1    4    4    0    0  0.11543773266E+02 -0.69559203722E+02 -0.14982060678E+03  0.16558368198E+03  0.00000000000E+00 0.  1.
         12    1    4    4    0    0  0.26368566985E+02  0.13103624834E+02 -0.29700221123E+02  0.41822355784E+02  0.00000000000E+00 0. -1.
         -5    1    5    5    0  502  0.53725841328E+02  0.76092694237E+02  0.31055910195E+02  0.98301188704E+02  0.47000000000E+01 0.  1.
         11    1    6    6    0    0  0.30218897345E+02  0.25679548034E+02 -0.36030198244E+02  0.53579810839E+02  0.00000000000E+00 0. -1.
        -12    1    6    6    0    0 -0.30178134908E+02 -0.28485655547E+02 -0.84753226374E+01  0.42355442298E+02  0.00000000000E+00 0.  1.
</event>
<event>
12    1  0.1594900E-001  0.1982841E+03  0.7818608E-02  0.1151262E+00
         21   -1    0    0  503  502  0.00000000000E+00  0.00000000000E+00  0.25568097665E+04  0.25568097665E+04  0.00000000000E+00 0. -1.
         21   -1    0    0  501  503 -0.00000000000E+00 -0.00000000000E+00 -0.54540385171E+02  0.54540385171E+02  0.00000000000E+00 0.  1.
          6    2    1    2  501    0 -0.62135436627E+02 -0.76838795907E+02  0.14410235621E+03  0.24486154856E+03  0.17154205274E+03 0.  0.
         24    2    3    3    0    0 -0.89085649089E+02 -0.31929470267E+02  0.42927649098E+02  0.13083710890E+03  0.79497308525E+02 0.  0.
         -6    2    1    2    0  502  0.62135436627E+02  0.76838795907E+02  0.23581670251E+04  0.23664886031E+04  0.17190572199E+03 0.  0.
        -24    2    5    5    0    0  0.36933325151E+02  0.84621282350E+02  0.91114830965E+03  0.91922188048E+03  0.79074594159E+02 0.  0.
          5    1    3    3  501    0  0.26950212462E+02 -0.44909325640E+02  0.10117470711E+03  0.11402443966E+03  0.47000000000E+01 0. -1.
        -13    1    4    4    0    0 -0.90539168278E+02 -0.38194681069E+02  0.11706849959E+02  0.98960724484E+02  0.00000000000E+00 0.  1.
         14    1    4    4    0    0  0.14535191890E+01  0.62652108028E+01  0.31220799139E+02  0.31876384414E+02  0.00000000000E+00 0. -1.
         -5    1    5    5    0  502  0.25202111476E+02 -0.77824864431E+01  0.14470187154E+04  0.14472667226E+04  0.47000000000E+01 0.  1.
         11    1    6    6    0    0  0.42453444481E+02  0.94691061566E+02  0.87860158167E+03  0.88470867036E+03  0.00000000000E+00 0. -1.
        -12    1    6    6    0    0 -0.55201193301E+01 -0.10069779217E+02  0.32546727982E+02  0.34513210126E+02  0.00000000000E+00 0.  1.
</event>
<event>
12    1  0.1594900E-001  0.2490816E+03  0.7818608E-02  0.1113898E+00
         21   -1    0    0  503  502  0.00000000000E+00  0.00000000000E+00  0.12570728102E+04  0.12570728102E+04  0.00000000000E+00 0.  1.
         21   -1    0    0  501  503 -0.00000000000E+00 -0.00000000000E+00 -0.57281754570E+02  0.57281754570E+02  0.00000000000E+00 0. -1.
          6    2    1    2  501    0 -0.17583675186E+03  0.36350533966E+02  0.84452731513E+03  0.88047210775E+03  0.17252484429E+03 0.  0.
         24    2    3    3    0    0 -0.78930334023E+02  0.82259251221E+02  0.54894777299E+03  0.56600776976E+03  0.77618012801E+02 0.  0.
         -6    2    1    2    0  502  0.17583675186E+03 -0.36350533966E+02  0.35526374048E+03  0.43388245700E+03  0.17263179478E+03 0.  0.
        -24    2    5    5    0    0  0.20275718962E+03 -0.37986563598E+02  0.32198362170E+03  0.39078903676E+03  0.80555332888E+02 0.  0.
          5    1    3    3  501    0 -0.96906417839E+02 -0.45908717255E+02  0.29557954214E+03  0.31446433799E+03  0.47000000000E+01 0. -1.
        -11    1    4    4    0    0 -0.59353287069E+02  0.46235532598E+02  0.47945241620E+03  0.48531964370E+03  0.00000000000E+00 0.  1.
         12    1    4    4    0    0 -0.19577046955E+02  0.36023718624E+02  0.69495356792E+02  0.80688126057E+02  0.00000000000E+00 0. -1.
         -5    1    5    5    0  502 -0.26920437753E+02  0.16360296315E+01  0.33280118781E+02  0.43093420239E+02  0.47000000000E+01 0.  1.
         13    1    6    6    0    0  0.11236356813E+03 -0.29036520017E+01  0.10807513781E+03  0.15593023456E+03  0.00000000000E+00 0. -1.
        -14    1    6    6    0    0  0.90393621486E+02 -0.35082911596E+02  0.21390848389E+03  0.23485880220E+03  0.00000000000E+00 0.  1.
</event>
<event>
12    1  0.1594900E-001  0.1823328E+03  0.7818608E-02  0.1165692E+00
         21   -1    0    0  501  502  0.00000000000E+00  0.00000000000E+00  0.38725397504E+03  0.38725397504E+03  0.00000000000E+00 0.  1.
         21   -1    0    0  502  503 -0.00000000000E+00 -0.00000000000E+00 -0.10080620467E+03  0.10080620467E+03  0.00000000000E+00 0.  1.
         -6    2    1    2    0  503  0.58755428539E+02 -0.17098420958E+02  0.48252745122E+02  0.18808998173E+03  0.17118690789E+03 0.  0.
        -24    2    3    3    0    0 -0.15585224421E+02 -0.16470558165E+02  0.81349578651E+02  0.10657668659E+03  0.65012750073E+02 0.  0.
          6    2    1    2  501    0 -0.58755428539E+02  0.17098420958E+02  0.23819502524E+03  0.29997019798E+03  0.17175765847E+03 0.  0.
         24    2    5    5    0    0 -0.56332512683E+02 -0.43329328823E+02  0.95159552286E+02  0.14460411420E+03  0.82487736851E+02 0.  0.
          5    1    5    5  501    0 -0.24229158563E+01  0.60427749780E+02  0.14303547296E+03  0.15536608378E+03  0.47000000000E+01 0. -1.
        -11    1    6    6    0    0 -0.41763975973E+02  0.13134207954E+02  0.66528944073E+02  0.79641933095E+02  0.00000000000E+00 0.  1.
         12    1    6    6    0    0 -0.14568536710E+02 -0.56463536777E+02  0.28630608213E+02  0.64962181104E+02  0.00000000000E+00 0. -1.
         -5    1    3    3    0  503  0.74340652960E+02 -0.62786279227E+00 -0.33096833529E+02  0.81513295135E+02  0.47000000000E+01 0.  1.
         11    1    4    4    0    0 -0.40798205749E+02 -0.48597963878E+01  0.47695635281E+02  0.62952242519E+02  0.00000000000E+00 0. -1.
        -12    1    4    4    0    0  0.25212981328E+02 -0.11610761778E+02  0.33653943370E+02  0.43624444075E+02  0.00000000000E+00 0.  1.
</event>
<event>
12    1  0.1594900E-001  0.2841215E+03  0.7818608E-02  0.1093916E+00
         21   -1    0    0  503  502  0.00000000000E+00  0.00000000000E+00  0.99139950483E+02  0.99139950483E+02  0.00000000000E+00 0. -1.
         21   -1    0    0  501  503 -0.00000000000E+00 -0.00000000000E+00 -0.10364625857E+04  0.10364625857E+04  0.00000000000E+00 0. -1.
          6    2    1    2  501    0  0.20732639627E+03  0.82603198905E+02 -0.73941078822E+03  0.79211952874E+03  0.17583375962E+03 0.  0.
         24    2    3    3    0    0  0.64380132764E+02 -0.20389923799E+02 -0.20498576382E+03  0.22938209949E+03  0.77694489588E+02 0.  0.
         -6    2    1    2    0  502 -0.20732639627E+03 -0.82603198905E+02 -0.19791184696E+03  0.34348300740E+03  0.17030547304E+03 0.  0.
        -24    2    5    5    0    0 -0.22127322292E+03 -0.62470201249E+02 -0.14235420129E+03  0.28258478443E+03  0.82006564026E+02 0.  0.
          5    1    3    3  501    0  0.14294626350E+03  0.10299312270E+03 -0.53442502440E+03  0.56273742925E+03  0.47000000000E+01 0. -1.
        -13    1    4    4    0    0  0.45231485171E+02 -0.49053432932E+02 -0.11408484597E+03  0.13216458911E+03  0.00000000000E+00 0.  1.
         14    1    4    4    0    0  0.19148647594E+02  0.28663509133E+02 -0.90900917844E+02  0.97217510385E+02  0.00000000000E+00 0. -1.
         -5    1    5    5    0  502  0.13946826648E+02 -0.20132997657E+02 -0.55557645673E+02  0.60898222970E+02  0.47000000000E+01 0.  1.
         13    1    6    6    0    0 -0.10452028690E+03 -0.29027261572E+02 -0.11501041465E+03  0.15809638758E+03  0.00000000000E+00 0. -1.
        -14    1    6    6    0    0 -0.11675293601E+03 -0.33442939676E+02 -0.27343786637E+02  0.12448839685E+03  0.00000000000E+00 0.  1.
</event>
<event>
12    1  0.1594900E-001  0.2249313E+03  0.7818608E-02  0.1130535E+00
         21   -1    0    0  503  502  0.00000000000E+00  0.00000000000E+00  0.10960777114E+03  0.10960777114E+03  0.00000000000E+00 0. -1.
         21   -1    0    0  501  503 -0.00000000000E+00 -0.00000000000E+00 -0.46391296862E+03  0.46391296862E+03  0.00000000000E+00 0. -1.
          6    2    1    2  501    0  0.10735499046E+03  0.96686286351E+02 -0.14553570246E+03  0.26663510090E+03  0.17041216035E+03 0.  0.
         24    2    3    3    0    0  0.11995033308E+03  0.10560800407E+03 -0.71324430694E+02  0.19069010396E+03  0.75725876728E+02 0.  0.
         -6    2    1    2    0  502 -0.10735499046E+03 -0.96686286351E+02 -0.20876949501E+03  0.30688563886E+03  0.17239710364E+03 0.  0.
        -24    2    5    5    0    0 -0.25290922816E+02 -0.25568365800E+02 -0.22785412188E+02  0.91468743313E+02  0.80956679084E+02 0.  0.
          5    1    3    3  501    0 -0.12595342616E+02 -0.89217177199E+01 -0.74211271768E+02  0.75944996939E+02  0.47000000000E+01 0. -1.
        -13    1    4    4    0    0 -0.53814668037E+01 -0.66177175281E+01 -0.47447807393E+01  0.97604976566E+01  0.00000000000E+00 0.  1.
         14    1    4    4    0    0  0.12533179988E+03  0.11222572160E+03 -0.66579649955E+02  0.18092960631E+03  0.00000000000E+00 0. -1.
         -5    1    5    5    0  502 -0.82064067648E+02 -0.71117920551E+02 -0.18598408283E+03  0.21541689555E+03  0.47000000000E+01 0.  1.
         11    1    6    6    0    0 -0.30105628376E+02 -0.49036278250E+02 -0.31953793795E+02  0.65817553756E+02  0.00000000000E+00 0. -1.
        -12    1    6    6    0    0  0.48147055601E+01  0.23467912451E+02  0.91683816071E+01  0.25651189557E+02  0.00000000000E+00 0.  1.
</event>
<event>
12    1  0.1594900E-001  0.1716230E+03  0.7818608E-02  0.1176512E+00
         21   -1    0    0  501  502  0.00000000000E+00  0.00000000000E+00  0.17596462729E+04  0.17596462729E+04  0.00000000000E+00 0. -1.
         21   -1    0    0  502  503 -0.00000000000E+00 -0.00000000000E+00 -0.37926027365E+02  0.37926027365E+02  0.00000000000E+00 0. -1.
         -6    2    1    2    0  503 -0.25893751300E+01  0.15751998367E+01  0.18850087054E+03  0.25492554721E+03  0.17159624211E+03 0.  0.
        -24    2    3    3    0    0 -0.49823672103E+02  0.46336117496E+02  0.97946939951E+02  0.14331585719E+03  0.79475768575E+02 0.  0.
          6    2    1    2  501    0  0.25893751300E+01 -0.15751998367E+01  0.15332193750E+04  0.15426467530E+04  0.17025911647E+03 0.  0.
         24    2    5    5    0    0  0.39735225409E+02 -0.49359757763E+02  0.11698598520E+04  0.11742510268E+04  0.79234631369E+02 0.  0.
          5    1    5    5  501    0 -0.37145850278E+02  0.47784557926E+02  0.36335952292E+03  0.36839572617E+03  0.47000000000E+01 0. -1.
        -13    1    6    6    0    0  0.34954102369E+02 -0.24117111810E+02  0.22098493799E+03  0.22502836971E+03  0.00000000000E+00 0.  1.
         14    1    6    6    0    0  0.47811230394E+01 -0.25242645953E+02  0.94887491405E+03  0.94922265714E+03  0.00000000000E+00 0. -1.
         -5    1    3    3    0  503  0.47234296973E+02 -0.44760917659E+02  0.90553930593E+02  0.11160969002E+03  0.47000000000E+01 0.  1.
         11    1    4    4    0    0 -0.67584477992E+01 -0.20609613369E+02  0.77877100071E+01  0.23045199218E+02  0.00000000000E+00 0. -1.
        -12    1    4    4    0    0 -0.43065224304E+02  0.66945730865E+02  0.90159229944E+02  0.12027065797E+03  0.00000000000E+00 0.  1.
</event>
<event>
12    1  0.1594900E-001  0.2443471E+03  0.7818608E-02  0.1117044E+00
         21   -1    0    0  503  502  0.00000000000E+00  0.00000000000E+00  0.36371265798E+03  0.36371265798E+03  0.00000000000E+00 0.  1.
         21   -1    0    0  501  503 -0.00000000000E+00 -0.00000000000E+00 -0.16753189178E+03  0.16753189178E+03  0.00000000000E+00 0. -1.
          6    2    1    2  501    0 -0.37573606734E+00  0.17244379312E+03  0.57983057766E+02  0.25113252656E+03  0.17311414715E+03 0.  0.
         24    2    3    3    0    0  0.52837188964E+01  0.16083611867E+03  0.10120882658E+03  0.20577478603E+03  0.78764593762E+02 0.  0.
         -6    2    1    2    0  502  0.37573606734E+00 -0.17244379312E+03  0.13819770844E+03  0.28011202320E+03  0.17212534955E+03 0.  0.
        -24    2    5    5    0    0 -0.95922032794E+01 -0.16740712081E+03  0.51271868681E+02  0.19234574550E+03  0.79062803104E+02 0.  0.
          5    1    3    3  501    0 -0.56594549637E+01  0.11607674452E+02 -0.43225768818E+02  0.45357740536E+02  0.47000000000E+01 0. -1.
        -13    1    4    4    0    0 -0.11483799433E+02 -0.27364355910E+01  0.17906691283E+02  0.21447967780E+02  0.00000000000E+00 0.  1.
         14    1    4    4    0    0  0.16767518329E+02  0.16357255426E+03  0.83302135301E+02  0.18432681825E+03  0.00000000000E+00 0. -1.
         -5    1    5    5    0  502  0.99679393468E+01 -0.50366723188E+01  0.86925839758E+02  0.87766277695E+02  0.47000000000E+01 0.  1.
         13    1    6    6    0    0 -0.11634477930E+02 -0.67509305834E+02 -0.17918925762E+02  0.70809288595E+02  0.00000000000E+00 0. -1.
        -14    1    6    6    0    0  0.20422746501E+01 -0.99897814972E+02  0.69190794443E+02  0.12153645691E+03  0.00000000000E+00 0.  1.
</event>
<event>
12    1  0.1594900E-001  0.2149898E+03  0.7818608E-02  0.1137823E+00
         21   -1    0    0  501  502  0.00000000000E+00  0.00000000000E+00  0.12751507679E+03  0.12751507679E+03  0.00000000000E+00 0.  1.
         21   -1    0    0  502  503 -0.00000000000E+00 -0.00000000000E+00 -0.36119285566E+03  0.36119285566E+03  0.00000000000E+00 0. -1.
         -6    2    1    2    0  503 -0.91602647331E+02 -0.89513508448E+02 -0.11487731806E+03  0.24307777120E+03  0.17171572862E+03 0.  0.
        -24    2    3    3    0    0 -0.36135196030E+02 -0.41871477012E+02  0.10753319402E+02  0.97642052127E+02  0.79745617348E+02 0.  0.
          6    2    1    2  501    0  0.91602647331E+02  0.89513508448E+02 -0.11880046082E+03  0.24563016125E+03  0.17267574651E+03 0.  0.
         24    2    5    5    0    0  0.31955029316E+02  0.67993168559E+02 -0.14076954315E+03  0.17835688318E+03  0.79692651035E+02 0.  0.
          5    1    5    5  501    0  0.59647618014E+02  0.21520339888E+02  0.21969082337E+02  0.67273278071E+02  0.47000000000E+01 0. -1.
        -11    1    6    6    0    0  0.38848370705E+02  0.57195479814E+02 -0.46737081047E+02  0.83455818026E+02  0.00000000000E+00 0.  1.
         12    1    6    6    0    0 -0.68933413885E+01  0.10797688746E+02 -0.94032462107E+02  0.94901065155E+02  0.00000000000E+00 0. -1.
         -5    1    3    3    0  503 -0.55467451301E+02 -0.47642031436E+02 -0.12563063746E+03  0.14543571907E+03  0.47000000000E+01 0.  1.
         13    1    4    4    0    0 -0.45349730626E+02 -0.13695230091E+02 -0.23048843939E+02  0.52682127918E+02  0.00000000000E+00 0. -1.
        -14    1    4    4    0    0  0.92145345958E+01 -0.28176246921E+02  0.33802163341E+02  0.44959924209E+02  0.00000000000E+00 0.  1.
</event>
<event>
12    1  0.1594900E-001  0.2732339E+03  0.7818608E-02  0.1099496E+00
         21   -1    0    0  501  502  0.00000000000E+00  0.00000000000E+00  0.36115829884E+02  0.36115829884E+02  0.00000000000E+00 0. -1.
         21   -1    0    0  502  503 -0.00000000000E+00 -0.00000000000E+00 -0.20658783550E+04  0.20658783550E+04  0.00000000000E+00 0.  1.
         -6    2    1    2    0  503 -0.21192293144E+03  0.10633463458E+02 -0.10430204406E+04  0.10781208021E+04  0.17154715104E+03 0.  0.
        -24    2    3    3    0    0 -0.89192889489E+02  0.68712614971E+02 -0.52126875328E+03  0.53897076339E+03  0.78048546757E+02 0.  0.
          6    2    1    2  501    0  0.21192293144E+03 -0.10633463458E+02 -0.98674208450E+03  0.10238733828E+04  0.17214053321E+03 0.  0.
         24    2    5    5    0    0  0.14169242231E+03  0.10903909720E+02 -0.87459173039E+03  0.88972430604E+03  0.80641230825E+02 0.  0.
          5    1    5    5  501    0  0.70230509128E+02 -0.21537373179E+02 -0.11215035412E+03  0.13414907672E+03  0.47000000000E+01 0. -1.
        -11    1    6    6    0    0  0.61669839534E+02 -0.98163466698E+01 -0.59218694234E+03  0.59547032206E+03  0.00000000000E+00 0.  1.
         12    1    6    6    0    0  0.80022582775E+02  0.20720256390E+02 -0.28240478804E+03  0.29425398398E+03  0.00000000000E+00 0. -1.
         -5    1    3    3    0  503 -0.12273004195E+03 -0.58079151513E+02 -0.52175168735E+03  0.53915003876E+03  0.47000000000E+01 0.  1.
         11    1    4    4    0    0 -0.23538334937E+02  0.32979020981E+02 -0.64816467741E+02  0.76438495059E+02  0.00000000000E+00 0. -1.
        -12    1    4    4    0    0 -0.65654554552E+02  0.35733593990E+02 -0.45645228554E+03  0.46253226833E+03  0.00000000000E+00 0.  1.
</event>
<event>
12    1  0.1594900E-001  0.2053438E+03  0.7818608E-02  0.1145982E+00
         21   -1    0    0  501  502  0.00000000000E+00  0.00000000000E+00  0.19335463342E+03  0.19335463342E+03  0.00000000000E+00 0.  1.
         21   -1    0    0  502  503 -0.00000000000E+00 -0.00000000000E+00 -0.27967457920E+03  0.27967457920E+03  0.00000000000E+00 0. -1.
         -6    2    1    2    0  503 -0.10008284323E+03 -0.37397184550E+02 -0.15750924018E+03  0.25879572844E+03  0.17535946909E+03 0.  0.
        -24    2    3    3    0    0 -0.29481424575E+02  0.35650619958E+02 -0.69430963921E+02  0.12425794636E+03  0.92082883234E+02 0.  0.
          6    2    1    2  501    0  0.10008284323E+03  0.37397184550E+02  0.71189294398E+02  0.21423348418E+03  0.17150202677E+03 0.  0.
         24    2    5    5    0    0  0.12560964665E+03 -0.34235216375E+01  0.33870968170E+02  0.15313769693E+03  0.80711882064E+02 0.  0.
          5    1    5    5  501    0 -0.25526803421E+02  0.40820706187E+02  0.37318326229E+02  0.61095787244E+02  0.47000000000E+01 0. -1.
        -13    1    6    6    0    0  0.62777422491E+02  0.38652825869E+02  0.16260995334E+02  0.75494805726E+02  0.00000000000E+00 0.  1.
         14    1    6    6    0    0  0.62832224156E+02 -0.42076347507E+02  0.17609972836E+02  0.77642891208E+02  0.00000000000E+00 0. -1.
         -5    1    3    3    0  503 -0.70601418651E+02 -0.73047804508E+02 -0.88078276257E+02  0.13453778208E+03  0.47000000000E+01 0.  1.
         11    1    4    4    0    0 -0.60534998955E+02  0.79484483309E+01 -0.35994081893E+02  0.70874804131E+02  0.00000000000E+00 0. -1.
        -12    1    4    4    0    0  0.31053574380E+02  0.27702171627E+02 -0.33436882028E+02  0.53383142231E+02  0.00000000000E+00 0.  1.
</event>
<event>
12    1  0.1594900E-001  0.2549394E+03  0.7818608E-02  0.1110311E+00
         21   -1    0    0  501  502  0.00000000000E+00  0.00000000000E+00  0.16412281471E+03  0.16412281471E+03  0.00000000000E+00 0.  1.
         21   -1    0    0  502  503 -0.00000000000E+00 -0.00000000000E+00 -0.41549621900E+03  0.41549621900E+03  0.00000000000E+00 0. -1.
         -6    2    1    2    0  503 -0.11922921016E+03  0.14502574691E+03 -0.18973206147E+03  0.31733344685E+03  0.17162222910E+03 0.  0.
        -24    2    3    3    0    0 -0.93459461190E+02  0.17497327453E+03 -0.17716086748E+03  0.27560744428E+03  0.72271520614E+02 0.  0.
          6    2    1    2  501    0  0.11922921016E+03 -0.14502574691E+03 -0.61641342831E+02  0.26228558686E+03  0.17247029340E+03 0.  0.
         24    2    5    5    0    0  0.55066654076E+02 -0.10701535320E+02  0.11885923640E+02  0.96188698456E+02  0.77227788267E+02 0.  0.
          5    1    5    5  501    0  0.64162556083E+02 -0.13432421159E+03 -0.73527266472E+02  0.16609688840E+03  0.47000000000E+01 0. -1.
        -11    1    6    6    0    0  0.51014814033E+02  0.82365664124E+01 -0.22784778224E+02  0.56475644271E+02  0.00000000000E+00 0.  1.
         12    1    6    6    0    0  0.40518400426E+01 -0.18938101733E+02  0.34670701864E+02  0.39713054185E+02  0.00000000000E+00 0. -1.
         -5    1    3    3    0  503 -0.25769748969E+02 -0.29947527616E+02 -0.12571193983E+02  0.41726002569E+02  0.47000000000E+01 0.  1.
         13    1    4    4    0    0 -0.31899446028E+02  0.11249084223E+03 -0.13402521646E+03  0.17786096505E+03  0.00000000000E+00 0. -1.
        -14    1    4    4    0    0 -0.61560015163E+02  0.62482432300E+02 -0.43135651023E+02  0.97746479231E+02  0.00000000000E+00 0.  1.
</event>
<event>
12    1  0.1594900E-001  0.1730175E+03  0.7818608E-02  0.1175466E+00
         21   -1    0    0  503  502  0.00000000000E+00  0.00000000000E+00  0.34723688813E+03  0.34723688813E+03  0.00000000000E+00 0.  1.
         21   -1    0    0  501  503 -0.00000000000E+00 -0.00000000000E+00 -0.14090879499E+03  0.14090879499E+03  0.00000000000E+00 0.  1.
          6    2    1    2  501    0  0.70102694844E+01 -0.10798957885E+01 -0.51358551127E+02  0.17776290366E+03  0.17003422917E+03 0.  0.
         24    2    3    3    0    0  0.22835312683E+02  0.60703933746E+02 -0.43111032612E+02  0.11328201388E+03  0.82266849090E+02 0.  0.
         -6    2    1    2    0  502 -0.70102694844E+01  0.10798957885E+01  0.25768664427E+03  0.31038277946E+03  0.17287207148E+03 0.  0.
        -24    2    5    5    0    0  0.48705895689E+02  0.43408652928E+02  0.18253349571E+03  0.20759124050E+03  0.74290447939E+02 0.  0.
          5    1    3    3  501    0 -0.15825043198E+02 -0.61783829535E+02 -0.82475185148E+01  0.64480889773E+02  0.47000000000E+01 0. -1.
        -11    1    4    4    0    0  0.31112303816E+02  0.51478995317E+02  0.80088377169E+01  0.60681165852E+02  0.00000000000E+00 0.  1.
         12    1    4    4    0    0 -0.82769911335E+01  0.92249384291E+01 -0.51119870329E+02  0.52600848032E+02  0.00000000000E+00 0. -1.
         -5    1    5    5    0  502 -0.55716165174E+02 -0.42328757140E+02  0.75153148562E+02  0.10279153896E+03  0.47000000000E+01 0.  1.
         11    1    6    6    0    0 -0.83826917660E+01  0.24974344815E+02  0.16578814139E+02  0.31126267017E+02  0.00000000000E+00 0. -1.
        -12    1    6    6    0    0  0.57088587455E+02  0.18434308113E+02  0.16595468157E+03  0.17646497349E+03  0.00000000000E+00 0.  1.
</event>
<event>
12    1  0.1594900E-001  0.1897058E+03  0.7818608E-02  0.1159298E+00
         21   -1    0    0  501  502  0.00000000000E+00  0.00000000000E+00  0.12462725990E+03  0.12462725990E+03  0.00000000000E+00 0.  1.
         21   -1    0    0  502  503 -0.00000000000E+00 -0.00000000000E+00 -0.38737543601E+03  0.38737543601E+03  0.00000000000E+00 0. -1.
         -6    2    1    2    0  503 -0.19478915496E+01  0.74655805607E+02 -0.26364631960E+03  0.32480407986E+03  0.17438757084E+03 0.  0.
        -24    2    3    3    0    0  0.56369437679E+01  0.60029908793E+02 -0.28290316057E+03  0.29902884934E+03  0.75820112072E+02 0.  0.
          6    2    1    2  501    0  0.19478915496E+01 -0.74655805607E+02  0.89814349050E+00  0.18719861605E+03  0.17165439580E+03 0.  0.
         24    2    5    5    0    0  0.26397704272E+02  0.22517915757E+02  0.82511140196E+01  0.86616899810E+02  0.78933586826E+02 0.  0.
          5    1    5    5  501    0 -0.24449812723E+02 -0.97173721364E+02 -0.73529705291E+01  0.10058171624E+03  0.47000000000E+01 0. -1.
        -13    1    6    6    0    0  0.33463312141E+02 -0.21483126575E+02  0.12910945583E+02  0.41809215524E+02  0.00000000000E+00 0.  1.
         14    1    6    6    0    0 -0.70656078688E+01  0.44001042332E+02 -0.46598315631E+01  0.44807684286E+02  0.00000000000E+00 0. -1.
         -5    1    3    3    0  503 -0.75848353175E+01  0.14625896814E+02  0.19256840964E+02  0.25775230519E+02  0.47000000000E+01 0.  1.
         11    1    4    4    0    0  0.29318825430E+02  0.24671184000E+02 -0.54062303526E+02  0.66264572036E+02  0.00000000000E+00 0. -1.
        -12    1    4    4    0    0 -0.23681881662E+02  0.35358724793E+02 -0.22884085704E+03  0.23276427730E+03  0.00000000000E+00 0.  1.
</event>
<event>
12    1  0.1594900E-001  0.2570974E+03  0.7818608E-02  0.1109061E+00
         21   -1    0    0  501  502  0.00000000000E+00  0.00000000000E+00  0.68411717833E+02  0.68411717833E+02  0.00000000000E+00 0. -1.
         21   -1    0    0  502  503 -0.00000000000E+00 -0.00000000000E+00 -0.19299638002E+04  0.19299638002E+04  0.00000000000E+00 0.  1.
         -6    2    1    2    0  503 -0.98351044823E+02  0.16219821022E+03 -0.16373587041E+04  0.16572571107E+04  0.17197795761E+03 0.  0.
        -24    2    3    3    0    0  0.12228391426E+02  0.96016864759E+02 -0.66762907258E+03  0.67899056711E+03  0.77011945785E+02 0.  0.
          6    2    1    2  501    0  0.98351044823E+02 -0.16219821022E+03 -0.22419337830E+03  0.34111840729E+03  0.17354512238E+03 0.  0.
         24    2    5    5    0    0  0.10386400787E+03 -0.13370490494E+03 -0.24264106079E+03  0.30641007693E+03  0.79672561943E+02 0.  0.
          5    1    5    5  501    0 -0.55129630471E+01 -0.28493305280E+02  0.18447682489E+02  0.34708330363E+02  0.47000000000E+01 0. -1.
        -11    1    6    6    0    0  0.57551223816E+02 -0.15468848716E+02 -0.88598455595E+02  0.10677600375E+03  0.00000000000E+00 0.  1.
         12    1    6    6    0    0  0.46312784054E+02 -0.11823605622E+03 -0.15404260519E+03  0.19963407318E+03  0.00000000000E+00 0. -1.
         -5    1    3    3    0  503 -0.11057943625E+03  0.66181345461E+02 -0.96972963147E+03  0.97826654362E+03  0.47000000000E+01 0.  1.
         11    1    4    4    0    0  0.10853949340E+02  0.24333609631E+02 -0.45374595691E+02  0.52619261759E+02  0.00000000000E+00 0. -1.
        -12    1    4    4    0    0  0.13744420856E+01  0.71683255128E+02 -0.62225447689E+03  0.62637130535E+03  0.00000000000E+00 0.  1.
</event>
<event>
12    1  0.1594900E-001  0.2422899E+03  0.7818608E-02  0.1118547E+00
         21   -1    0    0  501  502  0.00000000000E+00  0.00000000000E+00  0.89746620388E+02  0.89746620388E+02  0.00000000000E+00 0. -1.
         21   -1    0    0  502  503 -0.00000000000E+00 -0.00000000000E+00 -0.77049462113E+03  0.77049462113E+03  0.00000000000E+00 0. -1.
         -6    2    1    2    0  503  0.16169410102E+03  0.42838084549E+02 -0.50970427314E+03  0.56366013739E+03  0.17301508785E+03 0.  0.
        -24    2    3    3    0    0  0.97826308786E+02  0.18921465864E+01 -0.20045367513E+03  0.24520498027E+03  0.10183437321E+03 0.  0.
          6    2    1    2  501    0 -0.16169410102E+03 -0.42838084549E+02 -0.17104372760E+03  0.29658110413E+03  0.17528351544E+03 0.  0.
         24    2    5    5    0    0 -0.81524632654E+01 -0.17504731300E+02 -0.33407476058E+02  0.88776770562E+02  0.79952343678E+02 0.  0.
          5    1    5    5  501    0 -0.15354163776E+03 -0.25333353249E+02 -0.13763625154E+03  0.20780433357E+03  0.47000000000E+01 0. -1.
        -13    1    6    6    0    0 -0.14709395804E+02  0.29768833387E+02 -0.21599195263E+02  0.39611551373E+02  0.00000000000E+00 0.  1.
         14    1    6    6    0    0  0.65569325386E+01 -0.47273564687E+02 -0.11808280795E+02  0.49165219189E+02  0.00000000000E+00 0. -1.
         -5    1    3    3    0  503  0.63867792238E+02  0.40945937962E+02 -0.30925059801E+03  0.31845515711E+03  0.47000000000E+01 0.  1.
         13    1    4    4    0    0  0.33608099085E+02 -0.16788825921E+02 -0.16556097011E+03  0.16976985547E+03  0.00000000000E+00 0. -1.
        -14    1    4    4    0    0  0.64218209701E+02  0.18680972507E+02 -0.34892705017E+02  0.75435124806E+02  0.00000000000E+00 0.  1.
</event>
<event>
12    1  0.1594900E-001  0.1920140E+03  0.7818608E-02  0.1157293E+00
         21   -1    0    0  501  502  0.00000000000E+00  0.00000000000E+00  0.35350110433E+03  0.35350110433E+03  0.00000000000E+00 0. -1.
         21   -1    0    0  502  503 -0.00000000000E+00 -0.00000000000E+00 -0.15250631870E+03  0.15250631870E+03  0.00000000000E+00 0. -1.
         -6    2    1    2    0  503  0.76095815441E+02  0.19893284131E+02 -0.43489076470E+02  0.19687733322E+03  0.17516583194E+03 0.  0.
        -24    2    3    3    0    0  0.41812680283E+00  0.61358006535E+02 -0.18054773577E+01  0.10092917952E+03  0.80115290269E+02 0.  0.
          6    2    1    2  501    0 -0.76095815441E+02 -0.19893284131E+02  0.24448386210E+03  0.30913008981E+03  0.17205446149E+03 0.  0.
         24    2    5    5    0    0 -0.72418493626E+02  0.36808571231E+02  0.91040519096E+02  0.14543655723E+03  0.79146111247E+02 0.  0.
          5    1    5    5  501    0 -0.36773218156E+01 -0.56701855362E+02  0.15344334301E+03  0.16369353259E+03  0.47000000000E+01 0. -1.
        -11    1    6    6    0    0  0.54360952662E+01  0.29267333675E+02  0.47105872562E+02  0.55723345036E+02  0.00000000000E+00 0.  1.
         12    1    6    6    0    0 -0.77854588892E+02  0.75412375563E+01  0.43934646534E+02  0.89713212190E+02  0.00000000000E+00 0. -1.
         -5    1    3    3    0  503  0.75677688639E+02 -0.41464722404E+02 -0.41683599113E+02  0.95948153691E+02  0.47000000000E+01 0.  1.
         11    1    4    4    0    0  0.37774174644E+02  0.33652489006E+02 -0.14669288723E+02  0.52674152276E+02  0.00000000000E+00 0. -1.
        -12    1    4    4    0    0 -0.37356047841E+02  0.27705517529E+02  0.12863811365E+02  0.48255027248E+02  0.00000000000E+00 0.  1.
</event>
<event>
12    1  0.1594900E-001  0.1907280E+03  0.7818608E-02  0.1157865E+00
         21   -1    0    0  501  502  0.00000000000E+00  0.00000000000E+00  0.15661512592E+03  0.15661512592E+03  0.00000000000E+00 0.  1.
         21   -1    0    0  502  503 -0.00000000000E+00 -0.00000000000E+00 -0.24263600025E+03  0.24263600025E+03  0.00000000000E+00 0.  1.
         -6    2    1    2    0  503  0.82327717724E+02 -0.82485411537E+01 -0.11465834391E+01  0.19073143029E+03  0.17184665347E+03 0.  0.
        -24    2    3    3    0    0 -0.12941024157E+02 -0.37883678671E+02  0.90490342768E+01  0.90330159499E+02  0.80467443590E+02 0.  0.
          6    2    1    2  501    0 -0.82327717724E+02  0.82485411537E+01 -0.84874290885E+02  0.20851969588E+03  0.17155444261E+03 0.  0.
         24    2    5    5    0    0  0.92889518018E+01  0.37329691573E+02 -0.69428222903E+02  0.11105176033E+03  0.77668686343E+02 0.  0.
          5    1    5    5  501    0 -0.91616669526E+02 -0.29081150419E+02 -0.15446067982E+02  0.97467935552E+02  0.47000000000E+01 0. -1.
        -11    1    6    6    0    0 -0.27966689675E+02  0.22281109403E+02 -0.59894200771E+02  0.69755995108E+02  0.00000000000E+00 0.  1.
         12    1    6    6    0    0  0.37255641477E+02  0.15048582170E+02 -0.95340221320E+01  0.41295765221E+02  0.00000000000E+00 0. -1.
         -5    1    3    3    0  503  0.95268741880E+02  0.29635137517E+02 -0.10195617716E+02  0.10040127079E+03  0.47000000000E+01 0.  1.
         13    1    4    4    0    0 -0.15189702682E+02 -0.54140947981E+02 -0.17696747718E+02  0.58950353651E+02  0.00000000000E+00 0. -1.
        -14    1    4    4    0    0  0.22486785254E+01  0.16257269310E+02  0.26745781995E+02  0.31379805848E+02  0.00000000000E+00 0.  1.
</event>
<event>
12    1  0.1594900E-001  0.1962129E+03  0.7818608E-02  0.1154538E+00
         21   -1    0    0  501  502  0.00000000000E+00  0.00000000000E+00  0.91756389671E+02  0.91756389671E+02  0.00000000000E+00 0. -1.
         21   -1    0    0  502  503 -0.00000000000E+00 -0.00000000000E+00 -0.42268010233E+03  0.42268010233E+03  0.00000000000E+00 0. -1.
         -6    2    1    2    0  503 -0.39370041550E+02  0.77029716508E+02 -0.22163543815E+03  0.29600977299E+03  0.17611343181E+03 0.  0.
        -24    2    3    3    0    0 -0.58589855345E+02  0.11439660096E+03 -0.15021669032E+03  0.21301331019E+03  0.79311177064E+02 0.  0.
          6    2    1    2  501    0  0.39370041550E+02 -0.77029716508E+02 -0.10928827451E+03  0.21842671901E+03  0.16817469261E+03 0.  0.
         24    2    5    5    0    0  0.35097614899E+02 -0.22434808317E+02  0.67692257504E+01  0.90012191031E+02  0.79506030721E+02 0.  0.
          5    1    5    5  501    0  0.42724266515E+01 -0.54594908191E+02 -0.11605750026E+03  0.12841452798E+03  0.47000000000E+01 0. -1.
        -11    1    6    6    0    0  0.40512223380E+02  0.58538220661E+01 -0.24335274615E+02  0.47620510986E+02  0.00000000000E+00 0.  1.
         12    1    6    6    0    0 -0.54146084816E+01 -0.28288630383E+02  0.31104500366E+02  0.42391680044E+02  0.00000000000E+00 0. -1.
         -5    1    3    3    0  503  0.19219813794E+02 -0.37366884451E+02 -0.71418747831E+02  0.82996462801E+02  0.47000000000E+01 0.  1.
         11    1    4    4    0    0  0.14071585532E+02  0.39284489958E+00 -0.25266833842E+02  0.28923636336E+02  0.00000000000E+00 0. -1.
        -12    1    4    4    0    0 -0.72661440877E+02  0.11400375606E+03 -0.12494985648E+03  0.18408967385E+03  0.00000000000E+00 0.  1.
</event>
<event>
12    1  0.1594900E-001  0.1913629E+03  0.7818608E-02  0.1157683E+00
         21   -1    0    0  501  502  0.00000000000E+00  0.00000000000E+00  0.70651822117E+03  0.70651822117E+03  0.00000000000E+00 0.  1.
         21   -1    0    0  502  503 -0.00000000000E+00 -0.00000000000E+00 -0.13704564597E+03  0.13704564597E+03  0.00000000000E+00 0.  1.
         -6    2    1    2    0  503  0.36298014588E+01 -0.79643319529E+02 -0.49451465275E+02  0.19573155094E+03  0.17178230064E+03 0.  0.
        -24    2    3    3    0    0 -0.41438939327E+02 -0.89993523401E+02  0.10264249621E+01  0.12711358304E+03  0.79629074453E+02 0.  0.
          6    2    1    2  501    0 -0.36298014588E+01  0.79643319529E+02  0.61892404047E+03  0.64783231620E+03  0.17396410042E+03 0.  0.
         24    2    5    5    0    0  0.59920396680E+02  0.78112053904E+02  0.39582792731E+03  0.41580874376E+03  0.80778811876E+02 0.  0.
          5    1    5    5  501    0 -0.63550198139E+02  0.15312656251E+01  0.22309611316E+03  0.23202357244E+03  0.47000000000E+01 0. -1.
        -11    1    6    6    0    0  0.72071145197E+02  0.36704045301E+02  0.21001553745E+03  0.22505102284E+03  0.00000000000E+00 0.  1.
         12    1    6    6    0    0 -0.12150748516E+02  0.41408008602E+02  0.18581238986E+03  0.19075772092E+03  0.00000000000E+00 0. -1.
         -5    1    3    3    0  503  0.45068740786E+02  0.10350203872E+02 -0.50477890237E+02  0.68617967902E+02  0.47000000000E+01 0.  1.
         11    1    4    4    0    0 -0.14855974747E+02 -0.97405626441E+02 -0.57404492633E+01  0.98699082092E+02  0.00000000000E+00 0. -1.
        -12    1    4    4    0    0 -0.26582964580E+02  0.74121030396E+01  0.67668742254E+01  0.28414500948E+02  0.00000000000E+00 0.  1.
</event>
<event>
12    1  0.1594900E-001  0.1824664E+03  0.7818608E-02  0.1166932E+00
         21   -1    0    0  503  502  0.00000000000E+00  0.00000000000E+00  0.33753099101E+02  0.33753099101E+02  0.00000000000E+00 0.  1.
         21   -1    0    0  501  503 -0.00000000000E+00 -0.00000000000E+00 -0.21506070667E+04  0.21506070667E+04  0.00000000000E+00 0.  1.
          6    2    1    2  501    0  0.11059297575E+01 -0.55713710549E+02 -0.18813705141E+04  0.18901981388E+04  0.17374910605E+03 0.  0.
         24    2    3    3    0    0  0.43306710981E+02 -0.85774487394E+02 -0.11438172941E+04  0.11508123136E+04  0.82572663581E+02 0.  0.
         -6    2    1    2    0  502 -0.11059297575E+01  0.55713710549E+02 -0.23548345347E+03  0.29416202700E+03  0.16725310355E+03 0.  0.
        -24    2    5    5    0    0  0.89427428472E+01 -0.31000318890E+02 -0.93178916064E+02  0.12715014093E+03  0.80273629040E+02 0.  0.
          5    1    3    3  501    0 -0.42200781223E+02  0.30060776845E+02 -0.73755321998E+03  0.73938582522E+03  0.47000000000E+01 0. -1.
        -13    1    4    4    0    0  0.36867041147E+02  0.35214604213E+01 -0.35888679959E+03  0.36079261956E+03  0.00000000000E+00 0.  1.
         14    1    4    4    0    0  0.64396698337E+01 -0.89295947816E+02 -0.78493049455E+03  0.79001969401E+03  0.00000000000E+00 0. -1.
         -5    1    5    5    0  502 -0.10048672605E+02  0.86714029438E+02 -0.14230453740E+03  0.16701188607E+03  0.47000000000E+01 0.  1.
         11    1    6    6    0    0 -0.34752157286E+02 -0.39489615336E+01 -0.34110958985E+02  0.48855544784E+02  0.00000000000E+00 0. -1.
        -12    1    6    6    0    0  0.43694900134E+02 -0.27051357356E+02 -0.59067957079E+02  0.78294596148E+02  0.00000000000E+00 0.  1.
</event>
<event>
12    1  0.1594900E-001  0.1893867E+03  0.7818608E-02  0.1159107E+00
         21   -1    0    0  503  502  0.00000000000E+00  0.00000000000E+00  0.16994567445E+04  0.16994567445E+04  0.00000000000E+00 0.  1.
         21   -1    0    0  501  503 -0.00000000000E+00 -0.00000000000E+00 -0.28768027773E+02  0.28768027773E+02  0.00000000000E+00 0.  1.
          6    2    1    2  501    0  0.63052838276E+02 -0.46104963852E+02  0.38871759359E+03  0.43239876751E+03  0.17252825413E+03 0.  0.
         24    2    3    3    0    0  0.30342204872E+02  0.35326198346E+02  0.26397365626E+03  0.27980728801E+03  0.80258566780E+02 0.  0.
         -6    2    1    2    0  502 -0.63052838276E+02  0.46104963852E+02  0.12819711232E+04  0.12958260048E+04  0.17208644906E+03 0.  0.
        -24    2    5    5    0    0 -0.14982104391E+01  0.84574212253E+02  0.75381377144E+03  0.76268330957E+03  0.79344733123E+02 0.  0.
          5    1    3    3  501    0  0.32710633404E+02 -0.81431162198E+02  0.12474393733E+03  0.15259147950E+03  0.47000000000E+01 0. -1.
        -13    1    4    4    0    0  0.48197475245E+02  0.44545187641E+02  0.23848142381E+03  0.24734724552E+03  0.00000000000E+00 0.  1.
         14    1    4    4    0    0 -0.17855270373E+02 -0.92189892954E+01  0.25492232443E+02  0.32460042494E+02  0.00000000000E+00 0. -1.
         -5    1    5    5    0  502 -0.61554627837E+02 -0.38469248400E+02  0.52815735173E+03  0.53314269522E+03  0.47000000000E+01 0.  1.
         13    1    6    6    0    0 -0.28161921754E+02  0.52840486848E+01  0.12003002166E+03  0.12340267869E+03  0.00000000000E+00 0. -1.
        -14    1    6    6    0    0  0.26663711315E+02  0.79290163568E+02  0.63378374977E+03  0.63928063088E+03  0.00000000000E+00 0.  1.
</event>
<event>
12    1  0.1594900E-001  0.2181749E+03  0.7818608E-02  0.1135296E+00
         21   -1    0    0  501  502  0.00000000000E+00  0.00000000000E+00  0.18597365543E+03  0.18597365543E+03  0.00000000000E+00 0.  1.
         21   -1    0    0  502  503 -0.00000000000E+00 -0.00000000000E+00 -0.36106057909E+03  0.36106057909E+03  0.00000000000E+00 0.  1.
         -6    2    1    2    0  503 -0.29781206140E+02  0.13105031439E+03 -0.23527995134E+03  0.32070820028E+03  0.17156919618E+03 0.  0.
        -24    2    3    3    0    0 -0.29183893306E+01  0.14148794710E+03 -0.12115810641E+03  0.20290989556E+03  0.80410091380E+02 0.  0.
          6    2    1    2  501    0  0.29781206140E+02 -0.13105031439E+03  0.60193027683E+02  0.22632603425E+03  0.17186962517E+03 0.  0.
         24    2    5    5    0    0 -0.41776889848E+02 -0.47433830289E+02  0.53347809539E+02  0.11595744938E+03  0.81270317474E+02 0.  0.
          5    1    5    5  501    0  0.71558095988E+02 -0.83616484104E+02  0.68452181435E+01  0.11036858487E+03  0.47000000000E+01 0. -1.
        -13    1    6    6    0    0 -0.51250410735E+02 -0.55107128671E+02  0.16361377818E+02  0.77013602142E+02  0.00000000000E+00 0.  1.
         14    1    6    6    0    0  0.94735208865E+01  0.76732983824E+01  0.36986431721E+02  0.38943847236E+02  0.00000000000E+00 0. -1.
         -5    1    3    3    0  503 -0.26862816809E+02 -0.10437632711E+02 -0.11412184493E+03  0.11779830471E+03  0.47000000000E+01 0.  1.
         13    1    4    4    0    0 -0.27721806445E+02  0.85031055042E+02 -0.33009566911E+02  0.95333154683E+02  0.00000000000E+00 0. -1.
        -14    1    4    4    0    0  0.24803417115E+02  0.56456892061E+02 -0.88148539504E+02  0.10757674088E+03  0.00000000000E+00 0.  1.
</event>
<event>
12    1  0.1594900E-001  0.1990054E+03  0.7818608E-02  0.1150668E+00
         21   -1    0    0  503  502  0.00000000000E+00  0.00000000000E+00  0.22475556455E+02  0.22475556455E+02  0.00000000000E+00 0. -1.
         21   -1    0    0  501  503 -0.00000000000E+00 -0.00000000000E+00 -0.17902219657E+04  0.17902219657E+04  0.00000000000E+00 0.  1.
          6    2    1    2  501    0 -0.77763341950E+02 -0.61674222895E+02 -0.76218505774E+03  0.78763324306E+03  0.17201516271E+03 0.  0.
         24    2    3    3    0    0 -0.68546817661E+02  0.19429904889E+02 -0.30842215242E+03  0.32656308776E+03  0.80268541568E+02 0.  0.
         -6    2    1    2    0  502  0.77763341950E+02  0.61674222895E+02 -0.10055613515E+04  0.10250642791E+04  0.17248854318E+03 0.  0.
        -24    2    5    5    0    0  0.90176870312E+02 -0.15650030457E+02 -0.67322233818E+03  0.68359034801E+03  0.75436435918E+02 0.  0.
          5    1    3    3  501    0 -0.92165242887E+01 -0.81104127784E+02 -0.45376290532E+03  0.46107015530E+03  0.47000000000E+01 0. -1.
        -11    1    4    4    0    0 -0.43196577724E+02 -0.13792438682E+01 -0.27954073263E+03  0.28286192363E+03  0.00000000000E+00 0.  1.
         12    1    4    4    0    0 -0.25350239937E+02  0.20809148757E+02 -0.28881419794E+02  0.43701164129E+02  0.00000000000E+00 0. -1.
         -5    1    5    5    0  502 -0.12413528362E+02  0.77324253352E+02 -0.33233901335E+03  0.34147393112E+03  0.47000000000E+01 0.  1.
         13    1    6    6    0    0  0.57987941773E+02  0.27975799788E+02 -0.36176763946E+03  0.36745213529E+03  0.00000000000E+00 0. -1.
        -14    1    6    6    0    0  0.32188928539E+02 -0.43625830246E+02 -0.31145469872E+03  0.31613821272E+03  0.00000000000E+00 0.  1.
</event>
<event>
12    1  0.1594900E-001  0.1906022E+03  0.7818608E-02  0.1158100E+00
         21   -1    0    0  503  502  0.00000000000E+00  0.00000000000E+00  0.55100724039E+02  0.55100724039E+02  0.00000000000E+00 0. -1.
         21   -1    0    0  501  503 -0.00000000000E+00 -0.00000000000E+00 -0.91154682499E+03  0.91154682499E+03  0.00000000000E+00 0. -1.
          6    2    1    2  501    0 -0.65989333064E+02  0.49106315526E+02 -0.68450542938E+03  0.71054689133E+03  0.17193946497E+03 0.  0.
         24    2    3    3    0    0 -0.72175328863E+02  0.10714892370E+02 -0.22175777183E+03  0.24614442311E+03  0.78015899947E+02 0.  0.
         -6    2    1    2    0  502  0.65989333064E+02 -0.49106315526E+02 -0.17194067157E+03  0.25610065771E+03  0.17104949586E+03 0.  0.
        -24    2    5    5    0    0  0.10691857741E+03 -0.34770982156E+02 -0.94600026281E+02  0.16730668134E+03  0.80010982070E+02 0.  0.
          5    1    3    3  501    0  0.61859957995E+01  0.38391423156E+02 -0.46274765755E+03  0.46440246822E+03  0.47000000000E+01 0. -1.
        -13    1    4    4    0    0 -0.78775589337E+02  0.30786547857E+02 -0.16179370846E+03  0.18256672507E+03  0.00000000000E+00 0.  1.
         14    1    4    4    0    0  0.66002604736E+01 -0.20071655487E+02 -0.59964063365E+02  0.63577698036E+02  0.00000000000E+00 0. -1.
         -5    1    5    5    0  502 -0.40929244348E+02 -0.14335333371E+02 -0.77340645290E+02  0.88793976370E+02  0.47000000000E+01 0.  1.
         13    1    6    6    0    0  0.42225918539E+02 -0.55555142148E+02 -0.53093905394E+02  0.87683321136E+02  0.00000000000E+00 0. -1.
        -14    1    6    6    0    0  0.64692658872E+02  0.20784159992E+02 -0.41506120886E+02  0.79623360200E+02  0.00000000000E+00 0.  1.
</event>
<event>
12    1  0.1594900E-001  0.2421187E+03  0.7818608E-02  0.1118455E+00
         21   -1    0    0  501  502  0.00000000000E+00  0.00000000000E+00  0.47148605520E+03  0.47148605520E+03  0.00000000000E+00 0. -1.
         21   -1    0    0  502  503 -0.00000000000E+00 -0.00000000000E+00 -0.26689223707E+03  0.26689223707E+03  0.00000000000E+00 0. -1.
         -6    2    1    2    0  503 -0.15007495998E+03  0.80679539945E+02 -0.16767950164E+03  0.29451296879E+03  0.17201683562E+03 0.  0.
        -24    2    3    3    0    0 -0.12350273555E+03  0.12007145812E+03 -0.15514805023E+03  0.24514766110E+03  0.79726893276E+02 0.  0.
          6    2    1    2  501    0  0.15007495998E+03 -0.80679539945E+02  0.37227331978E+03  0.44386532348E+03  0.17145646383E+03 0.  0.
         24    2    5    5    0    0  0.15792843681E+02  0.52697730593E+01  0.13615414685E+03  0.15892089909E+03  0.80254071829E+02 0.  0.
          5    1    5    5  501    0  0.13428211630E+03 -0.85949313004E+02  0.23611917293E+03  0.28494442439E+03  0.47000000000E+01 0. -1.
        -13    1    6    6    0    0 -0.11580104386E+02  0.26862984858E+02  0.15048183814E+02  0.32896300843E+02  0.00000000000E+00 0.  1.
         14    1    6    6    0    0  0.27372948067E+02 -0.21593211799E+02  0.12110596303E+03  0.12602459825E+03  0.00000000000E+00 0. -1.
         -5    1    3    3    0  503 -0.26572224426E+02 -0.39391918174E+02 -0.12531451416E+02  0.49365307686E+02  0.47000000000E+01 0.  1.
         13    1    4    4    0    0  0.53629540347E+01 -0.13627102657E+01 -0.24451858615E+02  0.25070134522E+02  0.00000000000E+00 0. -1.
        -14    1    4    4    0    0 -0.12886568959E+03  0.12143416838E+03 -0.13069619161E+03  0.22007752658E+03  0.00000000000E+00 0.  1.
</event>
<event>
12    1  0.1594900E-001  0.2245293E+03  0.7818608E-02  0.1131475E+00
         21   -1    0    0  501  502  0.00000000000E+00  0.00000000000E+00  0.88178928793E+03  0.88178928793E+03  0.00000000000E+00 0.  1.
         21   -1    0    0  502  503 -0.00000000000E+00 -0.00000000000E+00 -0.88351788293E+02  0.88351788293E+02  0.00000000000E+00 0. -1.
         -6    2    1    2    0  503  0.11592356932E+03  0.84375941553E+02  0.99895578468E+02  0.24115972554E+03  0.16619661004E+03 0.  0.
        -24    2    3    3    0    0  0.27174877968E+02  0.98640273250E+02  0.52518400034E+02  0.13944203577E+03  0.78851261874E+02 0.  0.
          6    2    1    2  501    0 -0.11592356932E+03 -0.84375941553E+02  0.69354192117E+03  0.72898135068E+03  0.17278842491E+03 0.  0.
         24    2    5    5    0    0 -0.17066174787E+02 -0.22451935443E+00  0.37151359420E+03  0.38173708553E+03  0.86078725941E+02 0.  0.
          5    1    5    5  501    0 -0.98857394534E+02 -0.84151422198E+02  0.32202832697E+03  0.34724426515E+03  0.47000000000E+01 0. -1.
        -13    1    6    6    0    0  0.22693827196E+02 -0.30072030196E+02  0.17757123971E+03  0.18152377796E+03  0.00000000000E+00 0.  1.
         14    1    6    6    0    0 -0.39760001983E+02  0.29847510842E+02  0.19394235449E+03  0.20021330757E+03  0.00000000000E+00 0. -1.
         -5    1    3    3    0  503  0.88748691353E+02 -0.14264331698E+02  0.47377178433E+02  0.10171768977E+03  0.47000000000E+01 0.  1.
         11    1    4    4    0    0  0.37748786242E+02  0.37779326337E+02 -0.67542084708E+01  0.53831846460E+02  0.00000000000E+00 0. -1.
        -12    1    4    4    0    0 -0.10573908274E+02  0.60860946913E+02  0.59272608505E+02  0.85610189314E+02  0.00000000000E+00 0.  1.
</event>
<event>
12    1  0.1594900E-001  0.2135535E+03  0.7818608E-02  0.1139150E+00
         21   -1    0    0  503  502  0.00000000000E+00  0.00000000000E+00  0.14413085699E+03  0.14413085699E+03  0.00000000000E+00 0.  1.
         21   -1    0    0  501  503 -0.00000000000E+00 -0.00000000000E+00 -0.64327216842E+03  0.64327216842E+03  0.00000000000E+00 0. -1.
          6    2    1    2  501    0 -0.68062209703E+02 -0.10569498378E+03 -0.53194644757E+03  0.57321209491E+03  0.17263020791E+03 0.  0.
         24    2    3    3    0    0  0.20725132156E+02 -0.10529299370E+02 -0.20385673414E+03  0.22021825697E+03  0.79988220390E+02 0.  0.
         -6    2    1    2    0  502  0.68062209703E+02  0.10569498378E+03  0.32805136148E+02  0.21419093050E+03  0.17028706282E+03 0.  0.
        -24    2    5    5    0    0  0.65156899522E+02  0.21575413509E+02 -0.28720655775E+02  0.10982591719E+03  0.80783265567E+02 0.  0.
          5    1    3    3  501    0 -0.88787341859E+02 -0.95165684410E+02 -0.32808971343E+03  0.35299383794E+03  0.47000000000E+01 0. -1.
        -11    1    4    4    0    0  0.13798259257E+02 -0.29394802273E+02 -0.27021285174E+02  0.42244481434E+02  0.00000000000E+00 0.  1.
         12    1    4    4    0    0  0.69268728990E+01  0.18865502902E+02 -0.17683544897E+03  0.17797377554E+03  0.00000000000E+00 0. -1.
         -5    1    5    5    0  502  0.29053101806E+01  0.84119570272E+02  0.61525791924E+02  0.10436501330E+03  0.47000000000E+01 0.  1.
         11    1    6    6    0    0  0.59982889149E+02  0.13167118999E+01  0.14578067436E+02  0.61743022043E+02  0.00000000000E+00 0. -1.
        -12    1    6    6    0    0  0.51740103736E+01  0.20258701609E+02 -0.43298723211E+02  0.48082895149E+02  0.00000000000E+00 0.  1.
</event>
<event>
12    1  0.1594900E-001  0.3003438E+03  0.7818608E-02  0.1085451E+00
         21   -1    0    0  501  502  0.00000000000E+00  0.00000000000E+00  0.20546874729E+04  0.20546874729E+04  0.00000000000E+00 0. -1.
         21   -1    0    0  502  503 -0.00000000000E+00 -0.00000000000E+00 -0.49099813273E+02  0.49099813273E+02  0.00000000000E+00 0.  1.
         -6    2    1    2    0  503  0.23213615028E+02  0.24169094562E+03  0.64174654164E+03  0.70726698068E+03  0.17156506970E+03 0.  0.
        -24    2    3    3    0    0 -0.20960273589E+02  0.18879859381E+03  0.57702304518E+03  0.61260888906E+03  0.79055766365E+02 0.  0.
          6    2    1    2  501    0 -0.23213615028E+02 -0.24169094562E+03  0.13638411180E+04  0.13965203055E+04  0.17678513348E+03 0.  0.
         24    2    5    5    0    0 -0.46177400944E+02 -0.11078111294E+03  0.43499047721E+03  0.45819716145E+03  0.79518024138E+02 0.  0.
          5    1    5    5  501    0  0.22963785916E+02 -0.13090983268E+03  0.92885064079E+03  0.93832314405E+03  0.47000000000E+01 0. -1.
        -13    1    6    6    0    0 -0.68095569368E+02 -0.87507869207E+02  0.35964540306E+03  0.37635016897E+03  0.00000000000E+00 0.  1.
         14    1    6    6    0    0  0.21918168424E+02 -0.23273243728E+02  0.75345074146E+02  0.81846992484E+02  0.00000000000E+00 0. -1.
         -5    1    3    3    0  503  0.44173888617E+02  0.52892351804E+02  0.64723496457E+02  0.94658091617E+02  0.47000000000E+01 0.  1.
         11    1    4    4    0    0 -0.38640435299E+02  0.13959218305E+03  0.33448091275E+03  0.36449491328E+03  0.00000000000E+00 0. -1.
        -12    1    4    4    0    0  0.17680161710E+02  0.49206410764E+02  0.24254213242E+03  0.24811397578E+03  0.00000000000E+00 0.  1.
</event>
<event>
12    1  0.1594900E-001  0.2958426E+03  0.7818608E-02  0.1087382E+00
         21   -1    0    0  503  502  0.00000000000E+00  0.00000000000E+00  0.62102642700E+02  0.62102642700E+02  0.00000000000E+00 0.  1.
         21   -1    0    0  501  503 -0.00000000000E+00 -0.00000000000E+00 -0.14898533941E+04  0.14898533941E+04  0.00000000000E+00 0.  1.
          6    2    1    2  501    0 -0.13175472233E+03  0.20106359310E+03 -0.53202654150E+03  0.60874878855E+03  0.17244411088E+03 0.  0.
         24    2    3    3    0    0 -0.69309315872E+01  0.11273933664E+03 -0.30422419561E+03  0.33434370149E+03  0.80468339676E+02 0.  0.
         -6    2    1    2    0  502  0.13175472233E+03 -0.20106359310E+03 -0.89572420993E+03  0.94320724828E+03  0.17184928752E+03 0.  0.
        -24    2    5    5    0    0  0.36006444044E+02 -0.97988090999E+02 -0.35661777902E+03  0.38602673374E+03  0.10460530035E+03 0.  0.
          5    1    3    3  501    0 -0.12482379075E+03  0.88324256454E+02 -0.22780234588E+03  0.27440508706E+03  0.47000000000E+01 0. -1.
        -13    1    4    4    0    0  0.35223475479E+02  0.41988533616E+02 -0.14642470697E+03  0.15634553077E+03  0.00000000000E+00 0.  1.
         14    1    4    4    0    0 -0.42154407067E+02  0.70750803025E+02 -0.15779948864E+03  0.17799817072E+03  0.00000000000E+00 0. -1.
         -5    1    5    5    0  502  0.95748278290E+02 -0.10307550210E+03 -0.53910643091E+03  0.55718051454E+03  0.47000000000E+01 0.  1.
         13    1    6    6    0    0  0.37520409502E+02  0.14990919105E+01 -0.43424206920E+02  0.57408101801E+02  0.00000000000E+00 0. -1.
        -14    1    6    6    0    0 -0.15139654576E+01 -0.99487182910E+02 -0.31319357210E+03  0.32861863194E+03  0.00000000000E+00 0.  1.
</event>
<event>
12    1  0.1594900E-001  0.2859078E+03  0.7818608E-02  0.1092718E+00
         21   -1    0    0  503  502  0.00000000000E+00  0.00000000000E+00  0.17139632204E+04  0.17139632204E+04  0.00000000000E+00 0. -1.
         21   -1    0    0  501  503 -0.00000000000E+00 -0.00000000000E+00 -0.23834545121E+03  0.23834545121E+03  0.00000000000E+00 0. -1.
          6    2    1    2  501    0 -0.71783592312E+02 -0.21669106019E+03 -0.13625682434E+03  0.31527386191E+03  0.16948093147E+03 0.  0.
         24    2    3    3    0    0 -0.91025691578E+02 -0.92424164866E+02 -0.43132900319E+02  0.15872778281E+03  0.80660765969E+02 0.  0.
         -6    2    1    2    0  502  0.71783592312E+02  0.21669106019E+03  0.16118745936E+04  0.16370348097E+04  0.17214924688E+03 0.  0.
        -24    2    5    5    0    0  0.75160363446E+02  0.21673469266E+03  0.16129187395E+04  0.16311539316E+04  0.80828713867E+02 0.  0.
          5    1    3    3  501    0  0.19242099266E+02 -0.12426689533E+03 -0.93123924016E+02  0.15654607910E+03  0.47000000000E+01 0. -1.
        -13    1    4    4    0    0  0.20131562680E+01 -0.24151250317E+02  0.16018144679E+02  0.29050243527E+02  0.00000000000E+00 0.  1.
         14    1    4    4    0    0 -0.93038847845E+02 -0.68272914549E+02 -0.59151044998E+02  0.12967753928E+03  0.00000000000E+00 0. -1.
         -5    1    5    5    0  502 -0.33767711345E+01 -0.43632472057E-01 -0.10441459506E+01  0.58808781533E+01  0.47000000000E+01 0.  1.
         11    1    6    6    0    0 -0.31176178933E+01  0.11264269123E+03  0.78832972429E+03  0.79634279656E+03  0.00000000000E+00 0. -1.
        -12    1    6    6    0    0  0.78277981340E+02  0.10409200143E+03  0.82458901524E+03  0.83481113503E+03  0.00000000000E+00 0.  1.
</event>
<event>
12    1  0.1594900E-001  0.1902207E+03  0.7818608E-02  0.1158547E+00
         21   -1    0    0  501  502  0.00000000000E+00  0.00000000000E+00  0.41335829178E+03  0.41335829178E+03  0.00000000000E+00 0.  1.
         21   -1    0    0  502  503 -0.00000000000E+00 -0.00000000000E+00 -0.55422351472E+03  0.55422351472E+03  0.00000000000E+00 0.  1.
         -6    2    1    2    0  503 -0.78201124159E+02 -0.11361732708E+02 -0.51461434422E+03  0.54821045304E+03  0.17164577696E+03 0.  0.
        -24    2    3    3    0    0 -0.52493551391E+02  0.54184263096E+02 -0.22704418734E+03  0.25210938584E+03  0.79489446594E+02 0.  0.
          6    2    1    2  501    0  0.78201124159E+02  0.11361732708E+02  0.37374912129E+03  0.41937135347E+03  0.17303011777E+03 0.  0.
         24    2    5    5    0    0  0.27041940698E+02 -0.52215282327E+02  0.26324568542E+03  0.28192173276E+03  0.81999208820E+02 0.  0.
          5    1    5    5  501    0  0.51159183461E+02  0.63577015036E+02  0.11050343587E+03  0.13744962070E+03  0.47000000000E+01 0. -1.
        -11    1    6    6    0    0  0.51675979186E+02 -0.51571165048E+02  0.16150954486E+03  0.17724368809E+03  0.00000000000E+00 0.  1.
         12    1    6    6    0    0 -0.24634038487E+02 -0.64411727953E+00  0.10173614056E+03  0.10467804467E+03  0.00000000000E+00 0. -1.
         -5    1    3    3    0  503 -0.25707572769E+02 -0.65545995804E+02 -0.28757015689E+03  0.29610106720E+03  0.47000000000E+01 0.  1.
         13    1    4    4    0    0 -0.47159217732E+02  0.70709295035E+02 -0.21439094410E+03  0.23062366126E+03  0.00000000000E+00 0. -1.
        -14    1    4    4    0    0 -0.53343336585E+01 -0.16525031939E+02 -0.12653243235E+02  0.21485724575E+02  0.00000000000E+00 0.  1.
</event>
<event>
12    1  0.1594900E-001  0.2539287E+03  0.7818608E-02  0.1110915E+00
         21   -1    0    0  503  502  0.00000000000E+00  0.00000000000E+00  0.18257357119E+03  0.18257357119E+03  0.00000000000E+00 0.  1.
         21   -1    0    0  501  503 -0.00000000000E+00 -0.00000000000E+00 -0.35622670836E+03  0.35622670836E+03  0.00000000000E+00 0. -1.
          6    2    1    2  501    0  0.17784187326E+03 -0.56018367832E+02 -0.59414050322E+02  0.26035757012E+03  0.17172724166E+03 0.  0.
         24    2    3    3    0    0  0.55910213956E+02 -0.84415304432E+02 -0.14688814720E+02  0.12733068469E+03  0.75798722544E+02 0.  0.
         -6    2    1    2    0  502 -0.17784187326E+03  0.56018367832E+02 -0.11423908685E+03  0.27844270942E+03  0.17237744645E+03 0.  0.
        -24    2    5    5    0    0 -0.86896947708E+02  0.76748383986E+02 -0.10193587775E+03  0.18423988564E+03  0.10055853183E+03 0.  0.
          5    1    3    3  501    0  0.12193165930E+03  0.28396936600E+02 -0.44725235603E+02  0.13302688543E+03  0.47000000000E+01 0. -1.
        -13    1    4    4    0    0  0.27901063660E+02 -0.80111385202E+02 -0.35716481538E+02  0.92043307447E+02  0.00000000000E+00 0.  1.
         14    1    4    4    0    0  0.28009150296E+02 -0.43039192303E+01  0.21027666818E+02  0.35287377246E+02  0.00000000000E+00 0. -1.
         -5    1    5    5    0  502 -0.90944925549E+02 -0.20730016154E+02 -0.12303209094E+02  0.94202823773E+02  0.47000000000E+01 0.  1.
         13    1    6    6    0    0 -0.77864799872E+02  0.74507866428E+01 -0.29526872935E+02  0.83607879450E+02  0.00000000000E+00 0. -1.
        -14    1    6    6    0    0 -0.90321478359E+01  0.69297597343E+02 -0.72409004818E+02  0.10063200619E+03  0.00000000000E+00 0.  1.
</event>
<event>
12    1  0.1594900E-001  0.1848142E+03  0.7818608E-02  0.1163956E+00
         21   -1    0    0  501  502  0.00000000000E+00  0.00000000000E+00  0.48097906342E+02  0.48097906342E+02  0.00000000000E+00 0.  1.
         21   -1    0    0  502  503 -0.00000000000E+00 -0.00000000000E+00 -0.77120767895E+03  0.77120767895E+03  0.00000000000E+00 0.  1.
         -6    2    1    2    0  503 -0.67703724975E+02  0.79902793174E+01 -0.23834521968E+03  0.30160360676E+03  0.17178082818E+03 0.  0.
        -24    2    3    3    0    0 -0.79948118067E+01  0.49916453407E+02 -0.91387123662E+02  0.13746424412E+03  0.89382563751E+02 0.  0.
          6    2    1    2  501    0  0.67703724975E+02 -0.79902793174E+01 -0.48476455293E+03  0.51770197853E+03  0.16843701450E+03 0.  0.
         24    2    5    5    0    0  0.68252227408E+02  0.14272105006E+02 -0.15911701891E+03  0.19126006789E+03  0.80000802079E+02 0.  0.
          5    1    5    5  501    0 -0.54850243322E+00 -0.22262384324E+02 -0.32564753402E+03  0.32644191064E+03  0.47000000000E+01 0. -1.
        -11    1    6    6    0    0  0.40718141649E+02 -0.99147027372E+01 -0.14669444605E+03  0.15256319639E+03  0.00000000000E+00 0.  1.
         12    1    6    6    0    0  0.27534085759E+02  0.24186807743E+02 -0.12422572862E+02  0.38696871500E+02  0.00000000000E+00 0. -1.
         -5    1    3    3    0  503 -0.59708913168E+02 -0.41926174090E+02 -0.14695809602E+03  0.16413936265E+03  0.47000000000E+01 0.  1.
         13    1    4    4    0    0  0.15555456397E+02 -0.20318087592E+02 -0.10163678242E+02  0.27533566106E+02  0.00000000000E+00 0. -1.
        -14    1    4    4    0    0 -0.23550268204E+02  0.70234540999E+02 -0.81223445419E+02  0.10993067801E+03  0.00000000000E+00 0.  1.
</event>
<event>
12    1  0.1594900E-001  0.2394593E+03  0.7818608E-02  0.1120590E+00
         21   -1    0    0  501  502  0.00000000000E+00  0.00000000000E+00  0.98784153039E+03  0.98784153039E+03  0.00000000000E+00 0. -1.
         21   -1    0    0  502  503 -0.00000000000E+00 -0.00000000000E+00 -0.58754689460E+02  0.58754689460E+02  0.00000000000E+00 0. -1.
         -6    2    1    2    0  503  0.16685374186E+03  0.11795042609E+02  0.38810160068E+03  0.45603027459E+03  0.17135187389E+03 0.  0.
        -24    2    3    3    0    0  0.89733629494E+02 -0.55066370268E+02  0.18253460544E+03  0.22647017397E+03  0.82978479843E+02 0.  0.
          6    2    1    2  501    0 -0.16685374186E+03 -0.11795042609E+02  0.54098524024E+03  0.59056594526E+03  0.16770155435E+03 0.  0.
         24    2    5    5    0    0 -0.65320664552E+02 -0.56708049902E+02  0.19674052391E+03  0.22883032531E+03  0.78574117200E+02 0.  0.
          5    1    5    5  501    0 -0.10153307731E+03  0.44913007293E+02  0.34424471633E+03  0.36173561994E+03  0.47000000000E+01 0. -1.
        -13    1    6    6    0    0 -0.19635827647E+02 -0.38164045898E+01 -0.43850329681E-01  0.20003314581E+02  0.00000000000E+00 0.  1.
         14    1    6    6    0    0 -0.45684836905E+02 -0.52891645312E+02  0.19678437424E+03  0.20882701073E+03  0.00000000000E+00 0. -1.
         -5    1    3    3    0  503  0.77120112371E+02  0.66861412877E+02  0.20556699524E+03  0.22956010062E+03  0.47000000000E+01 0.  1.
         13    1    4    4    0    0  0.78725900073E+02 -0.11863042622E+02  0.15449496157E+03  0.17380216418E+03  0.00000000000E+00 0. -1.
        -14    1    4    4    0    0  0.11007729421E+02 -0.43203327646E+02  0.28039643867E+02  0.52668009787E+02  0.00000000000E+00 0.  1.
</event>
<event>
12    1  0.1594900E-001  0.2098531E+03  0.7818608E-02  0.1142030E+00
         21   -1    0    0  501  502  0.00000000000E+00  0.00000000000E+00  0.97330856795E+03  0.97330856795E+03  0.00000000000E+00 0. -1.
         21   -1    0    0  502  503 -0.00000000000E+00 -0.00000000000E+00 -0.45109912823E+02  0.45109912823E+02  0.00000000000E+00 0.  1.
         -6    2    1    2    0  503  0.52527845635E+02 -0.10434800818E+03  0.42507968174E+03  0.47328818424E+03  0.17222452826E+03 0.  0.
        -24    2    3    3    0    0  0.28504867542E+02 -0.12819184516E+03  0.40577427738E+03  0.43403999095E+03  0.80574641977E+02 0.  0.
          6    2    1    2  501    0 -0.52527845635E+02  0.10434800818E+03  0.50311897339E+03  0.54513029654E+03  0.17432916406E+03 0.  0.
         24    2    5    5    0    0 -0.31776194643E+02  0.10738183044E+02  0.37853852974E+03  0.38785408308E+03  0.77552151101E+02 0.  0.
          5    1    5    5  501    0 -0.20751650991E+02  0.93609825133E+02  0.12458044364E+03  0.15727621346E+03  0.47000000000E+01 0. -1.
        -11    1    6    6    0    0 -0.14072207070E+01 -0.10871386936E+02  0.43178796900E+01  0.11781825370E+02  0.00000000000E+00 0.  1.
         12    1    6    6    0    0 -0.30368973936E+02  0.21609569980E+02  0.37422065005E+03  0.37607225771E+03  0.00000000000E+00 0. -1.
         -5    1    3    3    0  503  0.24022978093E+02  0.23843836981E+02  0.19305404366E+02  0.39248193285E+02  0.47000000000E+01 0.  1.
         11    1    4    4    0    0  0.24271563269E+02 -0.45440090610E+02  0.27083577329E+03  0.27569172405E+03  0.00000000000E+00 0. -1.
        -12    1    4    4    0    0  0.42333042727E+01 -0.82751754548E+02  0.13493850409E+03  0.15834826690E+03  0.00000000000E+00 0.  1.
</event>
<event>
12    1  0.1594900E-001  0.2120017E+03  0.7818608E-02  0.1140123E+00
         21   -1    0    0  501  502  0.00000000000E+00  0.00000000000E+00  0.17333577619E+03  0.17333577619E+03  0.00000000000E+00 0. -1.
         21   -1    0    0  502  503 -0.00000000000E+00 -0.00000000000E+00 -0.47139128109E+03  0.47139128109E+03  0.00000000000E+00 0.  1.
         -6    2    1    2    0  503 -0.12164086101E+03  0.53842225712E+01 -0.36581308229E+03  0.42280485115E+03  0.17354896156E+03 0.  0.
        -24    2    3    3    0    0 -0.19390687630E+02 -0.47309065781E+02 -0.13396965222E+03  0.16395132758E+03  0.79485996436E+02 0.  0.
          6    2    1    2  501    0  0.12164086101E+03 -0.53842225712E+01  0.67757577389E+02  0.22192220613E+03  0.17272199443E+03 0.  0.
         24    2    5    5    0    0  0.12361669171E+03  0.36644122265E+02  0.12809456789E+02  0.15255599221E+03  0.80531797500E+02 0.  0.
          5    1    5    5  501    0 -0.19758307055E+01 -0.42028344836E+02  0.54948120601E+02  0.69366213924E+02  0.47000000000E+01 0. -1.
        -13    1    6    6    0    0  0.97603204325E+02 -0.91430988941E+01 -0.12946026541E+01  0.98039062357E+02  0.00000000000E+00 0.  1.
         14    1    6    6    0    0  0.26013487389E+02  0.45787221159E+02  0.14104059443E+02  0.54516929851E+02  0.00000000000E+00 0. -1.
         -5    1    3    3    0  503 -0.10225017338E+03  0.52693288352E+02 -0.23184343008E+03  0.25885352357E+03  0.47000000000E+01 0.  1.
         13    1    4    4    0    0  0.20137309987E+02 -0.44057643272E+02 -0.43245247308E+02  0.64936419665E+02  0.00000000000E+00 0. -1.
        -14    1    4    4    0    0 -0.39527997617E+02 -0.32514225083E+01 -0.90724404908E+02  0.99014907917E+02  0.00000000000E+00 0.  1.
</event>
<event>
12    1  0.1594900E-001  0.2585407E+03  0.7818608E-02  0.1108864E+00
         21   -1    0    0  501  502  0.00000000000E+00  0.00000000000E+00  0.17463890448E+03  0.17463890448E+03  0.00000000000E+00 0. -1.
         21   -1    0    0  502  503 -0.00000000000E+00 -0.00000000000E+00 -0.54378255511E+03  0.54378255511E+03  0.00000000000E+00 0.  1.
         -6    2    1    2    0  503 -0.16256917284E+03 -0.90615575525E+02 -0.38352441240E+03  0.45948110004E+03  0.17144091664E+03 0.  0.
        -24    2    3    3    0    0 -0.22312501425E+02 -0.61760879376E+01 -0.10854163672E+03  0.13941926560E+03  0.84382776305E+02 0.  0.
          6    2    1    2  501    0  0.16256917284E+03  0.90615575525E+02  0.14380761770E+02  0.25894035955E+03  0.17945301616E+03 0.  0.
         24    2    5    5    0    0  0.14159554885E+03  0.17195554055E+02 -0.34953974732E+02  0.16791070130E+03  0.81407841927E+02 0.  0.
          5    1    5    5  501    0  0.20973623987E+02  0.73420021470E+02  0.49334736502E+02  0.91029658252E+02  0.47000000000E+01 0. -1.
        -13    1    6    6    0    0  0.55548072255E+02  0.45662998322E+02 -0.35683548001E+01  0.71996047829E+02  0.00000000000E+00 0.  1.
         14    1    6    6    0    0  0.86047476594E+02 -0.28467444267E+02 -0.31385619932E+02  0.95914653468E+02  0.00000000000E+00 0. -1.
         -5    1    3    3    0  503 -0.14025667141E+03 -0.84439487587E+02 -0.27498277568E+03  0.32006183443E+03  0.47000000000E+01 0.  1.
         11    1    4    4    0    0 -0.18286279613E+02 -0.40988509607E+02 -0.31654516917E+02  0.54922257630E+02  0.00000000000E+00 0. -1.
        -12    1    4    4    0    0 -0.40262218116E+01  0.34812421669E+02 -0.76887119807E+02  0.84497007975E+02  0.00000000000E+00 0.  1.
</event>
<event>
12    1  0.1594900E-001  0.1739376E+03  0.7818608E-02  0.1173988E+00
         21   -1    0    0  501  502  0.00000000000E+00  0.00000000000E+00  0.24633371342E+03  0.24633371342E+03  0.00000000000E+00 0.  1.
         21   -1    0    0  502  503 -0.00000000000E+00 -0.00000000000E+00 -0.29670369840E+03  0.29670369840E+03  0.00000000000E+00 0.  1.
         -6    2    1    2    0  503 -0.26560682816E+02  0.97247379903E+01 -0.23333097300E+03  0.29059135884E+03  0.17087994168E+03 0.  0.
        -24    2    3    3    0    0 -0.80473742418E+02  0.16392608810E+02 -0.18643331474E+03  0.21867085517E+03  0.79465849361E+02 0.  0.
          6    2    1    2  501    0  0.26560682816E+02 -0.97247379903E+01  0.18296098803E+03  0.25244605298E+03  0.17162239401E+03 0.  0.
         24    2    5    5    0    0 -0.44942663692E+02 -0.35839545884E+01  0.69233714938E+02  0.11788595330E+03  0.84089850458E+02 0.  0.
          5    1    5    5  501    0  0.71503346508E+02 -0.61407834019E+01  0.11372727309E+03  0.13456009969E+03  0.47000000000E+01 0. -1.
        -13    1    6    6    0    0 -0.12801085621E+02 -0.61729906779E+01  0.81987184150E+02  0.83209806945E+02  0.00000000000E+00 0.  1.
         14    1    6    6    0    0 -0.32141578071E+02  0.25890360895E+01 -0.12753469212E+02  0.34676146350E+02  0.00000000000E+00 0. -1.
         -5    1    3    3    0  503  0.53913059602E+02 -0.66678708200E+01 -0.46897658261E+02  0.71920503664E+02  0.47000000000E+01 0.  1.
         13    1    4    4    0    0 -0.75473824602E+01 -0.25833538684E+02 -0.25836783425E+02  0.37307828679E+02  0.00000000000E+00 0. -1.
        -14    1    4    4    0    0 -0.72926359958E+02  0.42226147494E+02 -0.16059653132E+03  0.18136302649E+03  0.00000000000E+00 0.  1.
</event>
<event>
12    1  0.1594900E-001  0.1999774E+03  0.7818608E-02  0.1150302E+00
         21   -1    0    0  501  502  0.00000000000E+00  0.00000000000E+00  0.78728248524E+03  0.78728248524E+03  0.00000000000E+00 0. -1.
         21   -1    0    0  502  503 -0.00000000000E+00 -0.00000000000E+00 -0.57170664993E+02  0.57170664993E+02  0.00000000000E+00 0. -1.
         -6    2    1    2    0  503  0.95148212214E+02  0.21758814600E+02  0.21913707659E+03  0.29666817351E+03  0.17454030634E+03 0.  0.
        -24    2    3    3    0    0 -0.52274577980E+01 -0.31628926855E+02  0.71469813269E+02  0.11024597332E+03  0.77579153741E+02 0.  0.
          6    2    1    2  501    0 -0.95148212214E+02 -0.21758814600E+02  0.51097474366E+03  0.54778497672E+03  0.17160001098E+03 0.  0.
         24    2    5    5    0    0 -0.35107278621E+02  0.46970225004E+02  0.19551268553E+03  0.21935386567E+03  0.80325494898E+02 0.  0.
          5    1    5    5  501    0 -0.60040933592E+02 -0.68729039604E+02  0.31546205813E+03  0.32843111106E+03  0.47000000000E+01 0. -1.
        -11    1    6    6    0    0  0.44628205324E+01  0.29658121518E+02  0.16181813154E+03  0.16457408251E+03  0.00000000000E+00 0.  1.
         12    1    6    6    0    0 -0.39570099154E+02  0.17312103486E+02  0.33694553993E+02  0.54779783159E+02  0.00000000000E+00 0. -1.
         -5    1    3    3    0  503  0.10037567001E+03  0.53387741455E+02  0.14766726332E+03  0.18642220019E+03  0.47000000000E+01 0.  1.
         11    1    4    4    0    0  0.29576088399E+02  0.25982159491E+01  0.47125757876E+02  0.55698588730E+02  0.00000000000E+00 0. -1.
        -12    1    4    4    0    0 -0.34803546197E+02 -0.34227142804E+02  0.24344055394E+02  0.54547384589E+02  0.00000000000E+00 0.  1.
</event>
<event>
12    1  0.1594900E-001  0.2459483E+03  0.7818608E-02  0.1116043E+00
         21   -1    0    0  503  502  0.00000000000E+00  0.00000000000E+00  0.74936425167E+03  0.74936425167E+03  0.00000000000E+00 0.  1.
         21   -1    0    0  501  503 -0.00000000000E+00 -0.00000000000E+00 -0.13446121949E+03  0.13446121949E+03  0.00000000000E+00 0.  1.
          6    2    1    2  501    0 -0.99780284733E+02 -0.14440178970E+03  0.27635545200E+02  0.24749604180E+03  0.17228634670E+03 0.  0.
         24    2    3    3    0    0 -0.64929000712E+02 -0.27729302305E+02  0.59759521694E+02  0.12147572130E+03  0.78743006629E+02 0.  0.
         -6    2    1    2    0  502  0.99780284733E+02  0.14440178970E+03  0.58726748698E+03  0.63632942936E+03  0.17095045864E+03 0.  0.
        -24    2    5    5    0    0 -0.15204901701E+01  0.30671095226E+02  0.14375541816E+03  0.16737147489E+03  0.80028509829E+02 0.  0.
          5    1    3    3  501    0 -0.34851284021E+02 -0.11667248739E+03 -0.32123976494E+02  0.12602032050E+03  0.47000000000E+01 0. -1.
        -13    1    4    4    0    0 -0.44793465383E+02 -0.40835181401E+02  0.39818375868E+01  0.60743901847E+02  0.00000000000E+00 0.  1.
         14    1    4    4    0    0 -0.20135535330E+02  0.13105879096E+02  0.55777684107E+02  0.60731819455E+02  0.00000000000E+00 0. -1.
         -5    1    5    5    0  502  0.10130077490E+03  0.11373069447E+03  0.44351206883E+03  0.46895795446E+03  0.47000000000E+01 0.  1.
         11    1    6    6    0    0  0.21449746627E+02 -0.54775509064E+01  0.57496988815E+01  0.22872565040E+02  0.00000000000E+00 0. -1.
        -12    1    6    6    0    0 -0.22970236797E+02  0.36148646132E+02  0.13800571928E+03  0.14449890985E+03  0.00000000000E+00 0.  1.
</event>
<event>
12    1  0.1594900E-001  0.1818346E+03  0.7818608E-02  0.1166145E+00
         21   -1    0    0  503  502  0.00000000000E+00  0.00000000000E+00  0.39067632055E+02  0.39067632055E+02  0.00000000000E+00 0. -1.
         21   -1    0    0  501  503 -0.00000000000E+00 -0.00000000000E+00 -0.11077131036E+04  0.11077131036E+04  0.00000000000E+00 0. -1.
          6    2    1    2  501    0  0.54769247638E+01 -0.55623912864E+02 -0.81345497137E+03  0.83343425291E+03  0.17256780434E+03 0.  0.
         24    2    3    3    0    0  0.50378066491E+02 -0.37233486329E+02 -0.28560399607E+03  0.30333703311E+03  0.80742993489E+02 0.  0.
         -6    2    1    2    0  502 -0.54769247638E+01  0.55623912864E+02 -0.25519050018E+03  0.31334648274E+03  0.17303124134E+03 0.  0.
        -24    2    5    5    0    0 -0.47527052902E+02 -0.14845622067E+02 -0.94143227800E+02  0.13253585648E+03  0.78889750035E+02 0.  0.
          5    1    3    3  501    0 -0.44901141727E+02 -0.18390426535E+02 -0.52785097530E+03  0.53009721980E+03  0.47000000000E+01 0. -1.
        -13    1    4    4    0    0  0.34317032226E+02  0.21513705552E+01 -0.34689831949E+02  0.48843336666E+02  0.00000000000E+00 0.  1.
         14    1    4    4    0    0  0.16061034265E+02 -0.39384856885E+02 -0.25091416412E+03  0.25449369644E+03  0.00000000000E+00 0. -1.
         -5    1    5    5    0  502  0.42050128138E+02  0.70469534931E+02 -0.16104727238E+03  0.18081062626E+03  0.47000000000E+01 0.  1.
         11    1    6    6    0    0 -0.20347890146E+02  0.14828797270E+02 -0.88366043902E+02  0.91883010273E+02  0.00000000000E+00 0. -1.
        -12    1    6    6    0    0 -0.27179162755E+02 -0.29674419337E+02 -0.57771838980E+01  0.40652846209E+02  0.00000000000E+00 0.  1.
</event>
<event>
12    1  0.1594900E-001  0.3292762E+03  0.7818608E-02  0.1071529E+00
         21   -1    0    0  501  502  0.00000000000E+00  0.00000000000E+00  0.14277283036E+03  0.14277283036E+03  0.00000000000E+00 0. -1.
         21   -1    0    0  502  503 -0.00000000000E+00 -0.00000000000E+00 -0.84148582625E+03  0.84148582625E+03  0.00000000000E+00 0.  1.
         -6    2    1    2    0  503 -0.10004357353E+03  0.26212716900E+03 -0.50474595234E+03  0.60265356911E+03  0.17234697161E+03 0.  0.
        -24    2    3    3    0    0 -0.38470306446E+02  0.16825224543E+03 -0.42355716191E+03  0.46402644988E+03  0.78301304016E+02 0.  0.
          6    2    1    2  501    0  0.10004357353E+03 -0.26212716900E+03 -0.19396704355E+03  0.38160508750E+03  0.17111358652E+03 0.  0.
         24    2    5    5    0    0 -0.11426545901E+02 -0.14810770622E+03 -0.10267798136E+03  0.19780680597E+03  0.80736026898E+02 0.  0.
          5    1    5    5  501    0  0.11147011943E+03 -0.11401946278E+03 -0.91289062193E+02  0.18379828154E+03  0.47000000000E+01 0. -1.
        -13    1    6    6    0    0  0.13661015655E+02 -0.30433465222E+02  0.80224304504E+01  0.34310035623E+02  0.00000000000E+00 0.  1.
         14    1    6    6    0    0 -0.25087561556E+02 -0.11767424099E+03 -0.11070041181E+03  0.16349677034E+03  0.00000000000E+00 0. -1.
         -5    1    3    3    0  503 -0.61573267086E+02  0.93874923570E+02 -0.81188790428E+02  0.13862711923E+03  0.47000000000E+01 0.  1.
         13    1    4    4    0    0 -0.29233062440E+02  0.85276016101E+02 -0.31152975841E+03  0.32431059378E+03  0.00000000000E+00 0. -1.
        -14    1    4    4    0    0 -0.92372440067E+01  0.82976229329E+02 -0.11202740349E+03  0.13971585609E+03  0.00000000000E+00 0.  1.
</event>
<event>
12    1  0.1594900E-001  0.2489442E+03  0.7818608E-02  0.1114093E+00
         21   -1    0    0  501  502  0.00000000000E+00  0.00000000000E+00  0.40858059656E+02  0.40858059656E+02  0.00000000000E+00 0.  1.
         21   -1    0    0  502  503 -0.00000000000E+00 -0.00000000000E+00 -0.19518770287E+04  0.19518770287E+04  0.00000000000E+00 0.  1.
         -6    2    1    2    0  503  0.52878464327E+01 -0.17835174893E+03 -0.14294963844E+04  0.14510110708E+04  0.17359696704E+03 0.  0.
        -24    2    3    3    0    0 -0.42528704170E+02 -0.15837969469E+03 -0.12640932045E+04  0.12776167013E+04  0.86486920343E+02 0.  0.
          6    2    1    2  501    0 -0.52878464327E+01  0.17835174893E+03 -0.48152258471E+03  0.54172401760E+03  0.17252131460E+03 0.  0.
         24    2    5    5    0    0  0.54937403906E+02  0.15533546658E+03 -0.34544736967E+03  0.39107414478E+03  0.80360910775E+02 0.  0.
          5    1    5    5  501    0 -0.60225250338E+02  0.23016282352E+02 -0.13607521504E+03  0.15064987282E+03  0.47000000000E+01 0. -1.
        -13    1    6    6    0    0  0.56959444794E+02  0.70444664724E+02 -0.12140296878E+03  0.15147775404E+03  0.00000000000E+00 0.  1.
         14    1    6    6    0    0 -0.20220408884E+01  0.84890801858E+02 -0.22404440089E+03  0.23959639075E+03  0.00000000000E+00 0. -1.
         -5    1    3    3    0  503  0.47816550603E+02 -0.19972054248E+02 -0.16540317983E+03  0.17339436946E+03  0.47000000000E+01 0.  1.
         11    1    4    4    0    0 -0.59224808338E+01 -0.36848300941E+02 -0.10201415045E+03  0.10862670000E+03  0.00000000000E+00 0. -1.
        -12    1    4    4    0    0 -0.36606223336E+02 -0.12153139375E+03 -0.11620790541E+04  0.11689900013E+04  0.00000000000E+00 0.  1.
</event>
<event>
12    1  0.1594900E-001  0.4520096E+03  0.7818608E-02  0.1027395E+00
         21   -1    0    0  503  502  0.00000000000E+00  0.00000000000E+00  0.43260090943E+03  0.43260090943E+03  0.00000000000E+00 0. -1.
         21   -1    0    0  501  503 -0.00000000000E+00 -0.00000000000E+00 -0.61171643002E+03  0.61171643002E+03  0.00000000000E+00 0. -1.
          6    2    1    2  501    0  0.33443269180E+03 -0.25205018630E+03  0.16336999466E+03  0.47721156222E+03  0.16020798419E+03 0.  0.
         24    2    3    3    0    0  0.91592219636E+02 -0.65947514136E+02  0.77567397068E+02  0.15942252014E+03  0.81612679914E+02 0.  0.
         -6    2    1    2    0  502 -0.33443269180E+03  0.25205018630E+03 -0.34248551525E+03  0.56710577723E+03  0.17011205912E+03 0.  0.
        -24    2    5    5    0    0 -0.16260856940E+03  0.18800289930E+03 -0.25098376858E+03  0.36211737841E+03  0.79683791732E+02 0.  0.
          5    1    3    3  501    0  0.24284047216E+03 -0.18610267216E+03  0.85802597591E+02  0.31778904207E+03  0.47000000000E+01 0. -1.
        -11    1    4    4    0    0  0.31994821982E+02 -0.39269582198E+02 -0.85288176551E+01  0.51366423374E+02  0.00000000000E+00 0.  1.
         12    1    4    4    0    0  0.59597397654E+02 -0.26677931938E+02  0.86096214724E+02  0.10805609677E+03  0.00000000000E+00 0. -1.
         -5    1    5    5    0  502 -0.17182412240E+03  0.64047286998E+02 -0.91501746667E+02  0.20498839882E+03  0.47000000000E+01 0.  1.
         13    1    6    6    0    0 -0.51291186357E+02  0.12637876436E+02 -0.42230446286E+02  0.67630705395E+02  0.00000000000E+00 0. -1.
        -14    1    6    6    0    0 -0.11131738304E+03  0.17536502287E+03 -0.20875332230E+03  0.29448667301E+03  0.00000000000E+00 0.  1.
</event>
<event>
12    1  0.1594900E-001  0.2463783E+03  0.7818608E-02  0.1116364E+00
         21   -1    0    0  501  502  0.00000000000E+00  0.00000000000E+00  0.51692707485E+03  0.51692707485E+03  0.00000000000E+00 0. -1.
         21   -1    0    0  502  503 -0.00000000000E+00 -0.00000000000E+00 -0.11617371178E+03  0.11617371178E+03  0.00000000000E+00 0. -1.
         -6    2    1    2    0  503 -0.37499553701E+02  0.16557622630E+03  0.17393083494E+03  0.30158618334E+03  0.17855135786E+03 0.  0.
        -24    2    3    3    0    0 -0.32454952281E+02  0.23259285348E+02  0.13495275377E+02  0.87014007931E+02  0.76124876593E+02 0.  0.
          6    2    1    2  501    0  0.37499553701E+02 -0.16557622630E+03  0.22682252812E+03  0.33151460329E+03  0.17213880936E+03 0.  0.
         24    2    5    5    0    0  0.22609530998E+02 -0.59667906572E+02  0.28074687300E+02  0.10576899604E+03  0.79545222918E+02 0.  0.
          5    1    5    5  501    0  0.14890022702E+02 -0.10590831973E+03  0.19874784082E+03  0.22574560725E+03  0.47000000000E+01 0. -1.
        -13    1    6    6    0    0 -0.13054854143E+02  0.14534473122E+02  0.73386585529E+01  0.20869500114E+02  0.00000000000E+00 0.  1.
         14    1    6    6    0    0  0.35664385142E+02 -0.74202379694E+02  0.20736028747E+02  0.84899495923E+02  0.00000000000E+00 0. -1.
         -5    1    3    3    0  503 -0.50446014195E+01  0.14231694095E+03  0.16043555956E+03  0.21457217540E+03  0.47000000000E+01 0.  1.
         11    1    4    4    0    0 -0.16336787475E+02  0.44464037944E+02  0.29629208199E+02  0.55873350300E+02  0.00000000000E+00 0. -1.
        -12    1    4    4    0    0 -0.16118164806E+02 -0.21204752596E+02 -0.16133932822E+02  0.31140657631E+02  0.00000000000E+00 0.  1.
</event>
<event>
12    1  0.1594900E-001  0.1873662E+03  0.7818608E-02  0.1161221E+00
         21   -1    0    0  501  502  0.00000000000E+00  0.00000000000E+00  0.50194856950E+02  0.50194856950E+02  0.00000000000E+00 0. -1.
         21   -1    0    0  502  503 -0.00000000000E+00 -0.00000000000E+00 -0.70699138737E+03  0.70699138737E+03  0.00000000000E+00 0. -1.
         -6    2    1    2    0  503  0.52004185040E+02  0.47805492304E+02 -0.38195354471E+03  0.42543459475E+03  0.17354043832E+03 0.  0.
        -24    2    3    3    0    0  0.27393425843E+02 -0.34331026016E+02 -0.12423723958E+03  0.15378798417E+03  0.79289553206E+02 0.  0.
          6    2    1    2  501    0 -0.52004185040E+02 -0.47805492304E+02 -0.27484298571E+03  0.33175164958E+03  0.17184495875E+03 0.  0.
         24    2    5    5    0    0  0.35445973739E+01 -0.52898494355E+02 -0.66223148037E+02  0.11575180567E+03  0.78753795492E+02 0.  0.
          5    1    5    5  501    0 -0.55548782414E+02  0.50930020515E+01 -0.20861983767E+03  0.21599984391E+03  0.47000000000E+01 0. -1.
        -13    1    6    6    0    0 -0.26229895186E+02 -0.51499786426E+02 -0.20803701807E+02  0.61424990129E+02  0.00000000000E+00 0.  1.
         14    1    6    6    0    0  0.29774492560E+02 -0.13987079294E+01 -0.45419446230E+02  0.54326815542E+02  0.00000000000E+00 0. -1.
         -5    1    3    3    0  503  0.24610759197E+02  0.82136518319E+02 -0.25771630513E+03  0.27164661058E+03  0.47000000000E+01 0.  1.
         13    1    4    4    0    0  0.47308676675E+02 -0.12249966851E+00 -0.89000819097E+02  0.10079321254E+03  0.00000000000E+00 0. -1.
        -14    1    4    4    0    0 -0.19915250832E+02 -0.34208526347E+02 -0.35236420487E+02  0.52994771622E+02  0.00000000000E+00 0.  1.
</event>
<event>
12    1  0.1594900E-001  0.1959580E+03  0.7818608E-02  0.1153220E+00
         21   -1    0    0  503  502  0.00000000000E+00  0.00000000000E+00  0.40027577612E+03  0.40027577612E+03  0.00000000000E+00 0.  1.
         21   -1    0    0  501  503 -0.00000000000E+00 -0.00000000000E+00 -0.20435617325E+03  0.20435617325E+03  0.00000000000E+00 0.  1.
          6    2    1    2  501    0  0.65258079781E+02 -0.67824112149E+02 -0.12231820864E+03  0.23090097181E+03  0.17174046539E+03 0.  0.
         24    2    3    3    0    0 -0.23614390933E+02 -0.34631831964E+02 -0.26666690131E+02  0.96099834916E+02  0.82262158153E+02 0.  0.
         -6    2    1    2    0  502 -0.65258079781E+02  0.67824112149E+02  0.31823781151E+03  0.37373097756E+03  0.17187440691E+03 0.  0.
        -24    2    5    5    0    0 -0.69794980620E+02  0.33066825602E+02  0.89730724521E+02  0.14250331650E+03  0.79314803254E+02 0.  0.
          5    1    3    3  501    0  0.88872470715E+02 -0.33192280185E+02 -0.95651518506E+02  0.13480113689E+03  0.47000000000E+01 0. -1.
        -13    1    4    4    0    0  0.28309940086E+02 -0.27699857245E+02 -0.74529201883E+01  0.40302367405E+02  0.00000000000E+00 0.  1.
         14    1    4    4    0    0 -0.51924331019E+02 -0.69319747186E+01 -0.19213769942E+02  0.55797467511E+02  0.00000000000E+00 0. -1.
         -5    1    5    5    0  502  0.45369008383E+01  0.34757286547E+02  0.22850708699E+03  0.23122766106E+03  0.47000000000E+01 0.  1.
         11    1    6    6    0    0 -0.19806140434E+02 -0.26400439588E+02  0.27800879202E+02  0.43152697410E+02  0.00000000000E+00 0. -1.
        -12    1    6    6    0    0 -0.49988840186E+02  0.59467265190E+02  0.61929845319E+02  0.99350619090E+02  0.00000000000E+00 0.  1.
</event>
<event>
12    1  0.1594900E-001  0.2549215E+03  0.7818608E-02  0.1111263E+00
         21   -1    0    0  501  502  0.00000000000E+00  0.00000000000E+00  0.47361000094E+03  0.47361000094E+03  0.00000000000E+00 0.  1.
         21   -1    0    0  502  503 -0.00000000000E+00 -0.00000000000E+00 -0.13590164828E+03  0.13590164828E+03  0.00000000000E+00 0.  1.
         -6    2    1    2    0  503 -0.86612340168E+02  0.15649136210E+03  0.13215256625E+03  0.28713982621E+03  0.18164177698E+03 0.  0.
        -24    2    3    3    0    0 -0.68094311402E+02  0.10540970899E+02  0.74891440843E+02  0.12919882278E+03  0.79596862893E+02 0.  0.
          6    2    1    2  501    0  0.86612340168E+02 -0.15649136210E+03  0.20555578640E+03  0.32237182302E+03  0.17227642633E+03 0.  0.
         24    2    5    5    0    0  0.10917212731E+03 -0.13250759665E+03  0.10721990453E+03  0.21856334232E+03  0.82443981740E+02 0.  0.
          5    1    5    5  501    0 -0.22559787145E+02 -0.23983765450E+02  0.98335881874E+02  0.10380848070E+03  0.47000000000E+01 0. -1.
        -11    1    6    6    0    0  0.97313649517E+02 -0.13850135757E+03  0.11356678647E+03  0.20383814025E+03  0.00000000000E+00 0.  1.
         12    1    6    6    0    0  0.11858477796E+02  0.59937609166E+01 -0.63468819424E+01  0.14725202068E+02  0.00000000000E+00 0. -1.
         -5    1    3    3    0  503 -0.18518028766E+02  0.14595039120E+03  0.57261125411E+02  0.15794100343E+03  0.47000000000E+01 0.  1.
         11    1    4    4    0    0 -0.37861461178E+02  0.18621367170E+02  0.86161104625E+02  0.95937383266E+02  0.00000000000E+00 0. -1.
        -12    1    4    4    0    0 -0.30232850223E+02 -0.80803962713E+01 -0.11269663781E+02  0.33261439510E+02  0.00000000000E+00 0.  1.
</event>
<event>
12    1  0.1594900E-001  0.1746000E+03  0.7818608E-02  0.1173715E+00
         21   -1    0    0  501  502  0.00000000000E+00  0.00000000000E+00  0.25087630495E+03  0.25087630495E+03  0.00000000000E+00 0. -1.
         21   -1    0    0  502  503 -0.00000000000E+00 -0.00000000000E+00 -0.39581565344E+03  0.39581565344E+03  0.00000000000E+00 0. -1.
         -6    2    1    2    0  503 -0.32942196556E+01  0.27697151603E+02 -0.34256702323E+03  0.38449619592E+03  0.17235769544E+03 0.  0.
        -24    2    3    3    0    0 -0.66900809338E+02  0.17822867099E+02 -0.16974771112E+03  0.20001881415E+03  0.79999173127E+02 0.  0.
          6    2    1    2  501    0  0.32942196556E+01 -0.27697151603E+02  0.19762767473E+03  0.26219576248E+03  0.17003510211E+03 0.  0.
         24    2    5    5    0    0  0.58357012283E+02 -0.35991042858E+02  0.17280955833E+03  0.20105061822E+03  0.76533075127E+02 0.  0.
          5    1    5    5  501    0 -0.55062792628E+02  0.82938912543E+01  0.24818116405E+02  0.61145144255E+02  0.47000000000E+01 0. -1.
        -11    1    6    6    0    0  0.49914232683E+02  0.13537249947E+02  0.10009905608E+03  0.11266991075E+03  0.00000000000E+00 0.  1.
         12    1    6    6    0    0  0.84427795998E+01 -0.49528292805E+02  0.72710502249E+02  0.88380707470E+02  0.00000000000E+00 0. -1.
         -5    1    3    3    0  503  0.63606589682E+02  0.98742845041E+01 -0.17281931211E+03  0.18447738177E+03  0.47000000000E+01 0.  1.
         13    1    4    4    0    0 -0.33780150253E+02 -0.17219217698E+02 -0.13594369684E+03  0.14113216756E+03  0.00000000000E+00 0. -1.
        -14    1    4    4    0    0 -0.33120659084E+02  0.35042084797E+02 -0.33804014280E+02  0.58886646589E+02  0.00000000000E+00 0.  1.
</event>
<event>
12    1  0.1594900E-001  0.2155526E+03  0.7818608E-02  0.1139109E+00
         21   -1    0    0  503  502  0.00000000000E+00  0.00000000000E+00  0.12233140297E+03  0.12233140297E+03  0.00000000000E+00 0. -1.
         21   -1    0    0  501  503 -0.00000000000E+00 -0.00000000000E+00 -0.37023856505E+03  0.37023856505E+03  0.00000000000E+00 0. -1.
          6    2    1    2  501    0 -0.13627866678E+03  0.33439909514E+01 -0.87320065389E+02  0.22377422771E+03  0.15448965620E+03 0.  0.
         24    2    3    3    0    0 -0.56288313126E+02  0.53807294930E+02 -0.35175686459E+02  0.11567183190E+03  0.77968228111E+02 0.  0.
         -6    2    1    2    0  502  0.13627866678E+03 -0.33439909514E+01 -0.16058709669E+03  0.26879574030E+03  0.16697268365E+03 0.  0.
        -24    2    5    5    0    0  0.13268453325E+03  0.49951021297E+02 -0.13105117416E+03  0.20757697809E+03  0.76246322506E+02 0.  0.
          5    1    3    3  501    0 -0.79990353659E+02 -0.50463303978E+02 -0.52144378930E+02  0.10810239582E+03  0.47000000000E+01 0. -1.
        -13    1    4    4    0    0  0.63864570544E+01 -0.13623553360E+02 -0.15363477806E+02  0.21504057528E+02  0.00000000000E+00 0.  1.
         14    1    4    4    0    0 -0.62674770180E+02  0.67430848290E+02 -0.19812208653E+02  0.94167774371E+02  0.00000000000E+00 0. -1.
         -5    1    5    5    0  502  0.35941335396E+01 -0.53295012248E+02 -0.29535922534E+02  0.61218762209E+02  0.47000000000E+01 0.  1.
         11    1    6    6    0    0  0.39895910960E+02 -0.14051077548E+02 -0.12763197744E+02  0.44181621839E+02  0.00000000000E+00 0. -1.
        -12    1    6    6    0    0  0.92788622285E+02  0.64002098845E+02 -0.11828797641E+03  0.16339535625E+03  0.00000000000E+00 0.  1.
</event>
<event>
12    1  0.1594900E-001  0.2271436E+03  0.7818608E-02  0.1129153E+00
         21   -1    0    0  503  502  0.00000000000E+00  0.00000000000E+00  0.11092915044E+03  0.11092915044E+03  0.00000000000E+00 0.  1.
         21   -1    0    0  501  503 -0.00000000000E+00 -0.00000000000E+00 -0.69463215595E+03  0.69463215595E+03  0.00000000000E+00 0.  1.
          6    2    1    2  501    0 -0.14770217119E+03  0.99582566422E+01 -0.56401966487E+02  0.23141792449E+03  0.16869491901E+03 0.  0.
         24    2    3    3    0    0 -0.15654426255E+03 -0.33385961325E+02 -0.56572993323E+02  0.18693171245E+03  0.78244699474E+02 0.  0.
         -6    2    1    2    0  502  0.14770217119E+03 -0.99582566422E+01 -0.52730103903E+03  0.57414338191E+03  0.17227634481E+03 0.  0.
        -24    2    5    5    0    0  0.93560858756E+02 -0.46203869693E+01 -0.49665455617E+03  0.51152492236E+03  0.78848054912E+02 0.  0.
          5    1    3    3  501    0  0.88420913606E+01  0.43344217967E+02  0.17102683627E+00  0.44486212033E+02  0.47000000000E+01 0. -1.
        -13    1    4    4    0    0 -0.11112798326E+03  0.93653734062E+01 -0.55456250155E+02  0.12454932583E+03  0.00000000000E+00 0.  1.
         14    1    4    4    0    0 -0.45416279289E+02 -0.42751334731E+02 -0.11167431688E+01  0.62382386626E+02  0.00000000000E+00 0. -1.
         -5    1    5    5    0  502  0.54141312436E+02 -0.53378696729E+01 -0.30646482855E+02  0.62618459549E+02  0.47000000000E+01 0.  1.
         11    1    6    6    0    0 -0.17364960375E+01  0.53428514104E+01  0.95067226521E-01  0.56187647627E+01  0.00000000000E+00 0. -1.
        -12    1    6    6    0    0  0.95297354793E+02 -0.99632383796E+01 -0.49674962340E+03  0.50590615760E+03  0.00000000000E+00 0.  1.
</event>
<event>
12    1  0.1594900E-001  0.1961791E+03  0.7818608E-02  0.1153464E+00
         21   -1    0    0  503  502  0.00000000000E+00  0.00000000000E+00  0.30268703047E+03  0.30268703047E+03  0.00000000000E+00 0. -1.
         21   -1    0    0  501  503 -0.00000000000E+00 -0.00000000000E+00 -0.14257073481E+03  0.14257073481E+03  0.00000000000E+00 0.  1.
          6    2    1    2  501    0 -0.93408117309E+02  0.39755532356E+01  0.15607519556E+03  0.24903707320E+03  0.17005621352E+03 0.  0.
         24    2    3    3    0    0 -0.11028965826E+03  0.45603068310E+02  0.14065226669E+03  0.20131084173E+03  0.80619763784E+02 0.  0.
         -6    2    1    2    0  502  0.93408117309E+02 -0.39755532356E+01  0.40411000979E+01  0.19622069208E+03  0.17246839742E+03 0.  0.
        -24    2    5    5    0    0  0.56028971297E+02  0.63275161678E+02  0.18561998545E+02  0.11778086989E+03  0.79904904811E+02 0.  0.
          5    1    3    3  501    0  0.16881540948E+02 -0.41627515074E+02  0.15422928867E+02  0.47726231476E+02  0.47000000000E+01 0. -1.
        -13    1    4    4    0    0 -0.59771988733E+02 -0.18173446672E+02  0.66245389661E+02  0.91057215268E+02  0.00000000000E+00 0.  1.
         14    1    4    4    0    0 -0.50517669523E+02  0.63776514982E+02  0.74406877034E+02  0.11025362646E+03  0.00000000000E+00 0. -1.
         -5    1    5    5    0  502  0.37379146012E+02 -0.67250714914E+02 -0.14520898447E+02  0.78439822187E+02  0.47000000000E+01 0.  1.
         11    1    6    6    0    0  0.17893266156E+02  0.69950908534E+02  0.28799065079E+02  0.77734707357E+02  0.00000000000E+00 0. -1.
        -12    1    6    6    0    0  0.38135705141E+02 -0.66757468558E+01 -0.10237066534E+02  0.40046162536E+02  0.00000000000E+00 0.  1.
</event>
<event>
12    1  0.1594900E-001  0.1760906E+03  0.7818608E-02  0.1172005E+00
         21   -1    0    0  503  502  0.00000000000E+00  0.00000000000E+00  0.85783700778E+02  0.85783700778E+02  0.00000000000E+00 0. -1.
         21   -1    0    0  501  503 -0.00000000000E+00 -0.00000000000E+00 -0.56210690101E+03  0.56210690101E+03  0.00000000000E+00 0. -1.
          6    2    1    2  501    0  0.19649248942E+02  0.27402626784E+02 -0.43376210951E+03  0.46814256865E+03  0.17283199936E+03 0.  0.
         24    2    3    3    0    0 -0.41059156291E+02  0.58309199641E+02 -0.27834521622E+03  0.29838619195E+03  0.80451495179E+02 0.  0.
         -6    2    1    2    0  502 -0.19649248942E+02 -0.27402626784E+02 -0.42561090719E+02  0.17974803313E+03  0.17135026126E+03 0.  0.
        -24    2    5    5    0    0 -0.59202488430E+02 -0.60189034648E+01  0.20435766063E+02  0.10220826049E+03  0.80546546433E+02 0.  0.
          5    1    3    3  501    0  0.60708405233E+02 -0.30906572857E+02 -0.15541689329E+03  0.16975637670E+03  0.47000000000E+01 0. -1.
        -13    1    4    4    0    0 -0.59941499343E+01 -0.18475238083E+02 -0.27114283495E+02  0.33353390010E+02  0.00000000000E+00 0.  1.
         14    1    4    4    0    0 -0.35065006357E+02  0.76784437724E+02 -0.25123093273E+03  0.26503280194E+03  0.00000000000E+00 0. -1.
         -5    1    5    5    0  502  0.39553239488E+02 -0.21383723319E+02 -0.62996856782E+02  0.77539772642E+02  0.47000000000E+01 0.  1.
         11    1    6    6    0    0 -0.21022889577E+02 -0.38406609710E+02  0.27413703968E+02  0.51657920214E+02  0.00000000000E+00 0. -1.
        -12    1    6    6    0    0 -0.38179598853E+02  0.32387706246E+02 -0.69779379050E+01  0.50550340274E+02  0.00000000000E+00 0.  1.
</event>
<event>
12    1  0.1594900E-001  0.1747046E+03  0.7818608E-02  0.1173159E+00
         21   -1    0    0  503  502  0.00000000000E+00  0.00000000000E+00  0.23833778234E+04  0.23833778234E+04  0.00000000000E+00 0.  1.
         21   -1    0    0  501  503 -0.00000000000E+00 -0.00000000000E+00 -0.26526183717E+02  0.26526183717E+02  0.00000000000E+00 0.  1.
          6    2    1    2  501    0 -0.13532770314E+02  0.16862986185E+02  0.30979809575E+03  0.35540895717E+03  0.17283856783E+03 0.  0.
         24    2    3    3    0    0  0.25525519359E+02 -0.40200205348E+02  0.11483342823E+03  0.14849093136E+03  0.81211032564E+02 0.  0.
         -6    2    1    2    0  502  0.13532770314E+02 -0.16862986185E+02  0.20470535440E+04  0.20544950500E+04  0.17336147889E+03 0.  0.
        -24    2    5    5    0    0 -0.17226938261E+02 -0.58729434174E+02  0.17503115127E+04  0.17532030284E+04  0.79903401208E+02 0.  0.
          5    1    3    3  501    0 -0.39058289673E+02  0.57063191533E+02  0.19496466752E+03  0.20691802580E+03  0.47000000000E+01 0. -1.
        -11    1    4    4    0    0 -0.71341347799E+01  0.19219534340E+02  0.81026413749E+01  0.22044028138E+02  0.00000000000E+00 0.  1.
         12    1    4    4    0    0  0.32659654139E+02 -0.59419739688E+02  0.10673078685E+03  0.12644690323E+03  0.00000000000E+00 0. -1.
         -5    1    5    5    0  502  0.30759708575E+02  0.41866447989E+02  0.29674203130E+03  0.30129202160E+03  0.47000000000E+01 0.  1.
         13    1    6    6    0    0  0.66325734671E+01 -0.13138028066E+02  0.50198209013E+02  0.52311174718E+02  0.00000000000E+00 0. -1.
        -14    1    6    6    0    0 -0.23859511728E+02 -0.45591406108E+02  0.17001133037E+04  0.17008918537E+04  0.00000000000E+00 0.  1.
</event>
<event>
12    1  0.1594900E-001  0.1842778E+03  0.7818608E-02  0.1164075E+00
         21   -1    0    0  501  502  0.00000000000E+00  0.00000000000E+00  0.11914814497E+03  0.11914814497E+03  0.00000000000E+00 0. -1.
         21   -1    0    0  502  503 -0.00000000000E+00 -0.00000000000E+00 -0.29790698153E+03  0.29790698153E+03  0.00000000000E+00 0.  1.
         -6    2    1    2    0  503 -0.31855457819E+02 -0.55951846455E+02 -0.13611370791E+03  0.22790721575E+03  0.17108295706E+03 0.  0.
        -24    2    3    3    0    0 -0.29416174176E+02 -0.67238031639E+02 -0.18819376136E+02  0.10995223134E+03  0.79680989307E+02 0.  0.
          6    2    1    2  501    0  0.31855457819E+02  0.55951846455E+02 -0.42645128651E+02  0.18914791074E+03  0.17266425752E+03 0.  0.
         24    2    5    5    0    0  0.34930885428E+01 -0.21352534285E+02 -0.63487213737E+02  0.10407809363E+03  0.79583232390E+02 0.  0.
          5    1    5    5  501    0  0.28362369276E+02  0.77304380740E+02  0.20842085086E+02  0.85069817111E+02  0.47000000000E+01 0. -1.
        -11    1    6    6    0    0 -0.18239508123E+02  0.23884042997E+02 -0.12538485510E+02  0.32562874341E+02  0.00000000000E+00 0.  1.
         12    1    6    6    0    0  0.21732596666E+02 -0.45236577282E+02 -0.50948728226E+02  0.71515219289E+02  0.00000000000E+00 0. -1.
         -5    1    3    3    0  503 -0.24392836425E+01  0.11286185184E+02 -0.11729433178E+03  0.11795498441E+03  0.47000000000E+01 0.  1.
         11    1    4    4    0    0 -0.41916901471E+02 -0.22074271058E+01 -0.46468131909E+01  0.42231412908E+02  0.00000000000E+00 0. -1.
        -12    1    4    4    0    0  0.12500727295E+02 -0.65030604533E+02 -0.14172562946E+02  0.67720818433E+02  0.00000000000E+00 0.  1.
</event>
<event>
12    1  0.1594900E-001  0.2778561E+03  0.7818608E-02  0.1097022E+00
         21   -1    0    0  501  502  0.00000000000E+00  0.00000000000E+00  0.28422902411E+03  0.28422902411E+03  0.00000000000E+00 0. -1.
         21   -1    0    0  502  503 -0.00000000000E+00 -0.00000000000E+00 -0.36567130502E+03  0.36567130502E+03  0.00000000000E+00 0.  1.
         -6    2    1    2    0  503 -0.13253479280E+03 -0.17181547637E+03  0.12497423027E+03  0.30466796155E+03  0.17354532359E+03 0.  0.
        -24    2    3    3    0    0 -0.47377385862E+02 -0.14668185960E+03  0.12757709920E+03  0.21571658396E+03  0.80607342888E+02 0.  0.
          6    2    1    2  501    0  0.13253479280E+03  0.17181547637E+03 -0.20641651117E+03  0.34523236758E+03  0.17173113380E+03 0.  0.
         24    2    5    5    0    0  0.60876718221E+02  0.33156223709E+02 -0.34576085004E+02  0.11304173455E+03  0.82326290477E+02 0.  0.
          5    1    5    5  501    0  0.71658074583E+02  0.13865925266E+03 -0.17184042617E+03  0.23219063303E+03  0.47000000000E+01 0. -1.
        -13    1    6    6    0    0  0.23800580823E+01 -0.21990750973E+02 -0.22842622716E+02  0.31796905783E+02  0.00000000000E+00 0.  1.
         14    1    6    6    0    0  0.58496660139E+02  0.55146974682E+02 -0.11733462288E+02  0.81244828766E+02  0.00000000000E+00 0. -1.
         -5    1    3    3    0  503 -0.85157406942E+02 -0.25133616772E+02 -0.26028689303E+01  0.88951377594E+02  0.47000000000E+01 0.  1.
         13    1    4    4    0    0 -0.33805285980E+02 -0.10082741085E+02  0.15628302386E+02  0.38583712412E+02  0.00000000000E+00 0. -1.
        -14    1    4    4    0    0 -0.13572099882E+02 -0.13659911852E+03  0.11194879681E+03  0.17713287155E+03  0.00000000000E+00 0.  1.
</event>
<event>
12    1  0.1594900E-001  0.1977092E+03  0.7818608E-02  0.1151975E+00
         21   -1    0    0  501  502  0.00000000000E+00  0.00000000000E+00  0.76981931730E+02  0.76981931730E+02  0.00000000000E+00 0.  1.
         21   -1    0    0  502  503 -0.00000000000E+00 -0.00000000000E+00 -0.81413012876E+03  0.81413012876E+03  0.00000000000E+00 0. -1.
         -6    2    1    2    0  503  0.31624144238E+02  0.90457185686E+02 -0.64264914147E+03  0.67197971375E+03  0.17139494661E+03 0.  0.
        -24    2    3    3    0    0  0.22465186784E+02  0.52090051589E+02 -0.61692254167E+03  0.62465243391E+03  0.79869785733E+02 0.  0.
          6    2    1    2  501    0 -0.31624144238E+02 -0.90457185686E+02 -0.94499055562E+02  0.21913234674E+03  0.17293445274E+03 0.  0.
         24    2    5    5    0    0  0.33658946419E+02 -0.25437376889E+01 -0.30802156347E+02  0.92364680378E+02  0.80268711652E+02 0.  0.
          5    1    5    5  501    0 -0.65283090657E+02 -0.87913447997E+02 -0.63696899215E+02  0.12676766636E+03  0.47000000000E+01 0. -1.
        -11    1    6    6    0    0 -0.20801085197E+02  0.10974730595E+02  0.71979928536E+01  0.24595547526E+02  0.00000000000E+00 0.  1.
         12    1    6    6    0    0  0.54460031616E+02 -0.13518468283E+02 -0.38000149200E+02  0.67769132852E+02  0.00000000000E+00 0. -1.
         -5    1    3    3    0  503  0.91589574535E+01  0.38367134098E+02 -0.25726599800E+02  0.47327279848E+02  0.47000000000E+01 0.  1.
         11    1    4    4    0    0  0.49755326740E+02  0.30829860920E+02 -0.47411938709E+03  0.47771881486E+03  0.00000000000E+00 0. -1.
        -12    1    4    4    0    0 -0.27290139956E+02  0.21260190669E+02 -0.14280315459E+03  0.14693361904E+03  0.00000000000E+00 0.  1.
</event>
<event>
12    1  0.1594900E-001  0.2511470E+03  0.7818608E-02  0.1112623E+00
         21   -1    0    0  501  502  0.00000000000E+00  0.00000000000E+00  0.23968427575E+03  0.23968427575E+03  0.00000000000E+00 0. -1.
         21   -1    0    0  502  503 -0.00000000000E+00 -0.00000000000E+00 -0.26808813117E+03  0.26808813117E+03  0.00000000000E+00 0. -1.
         -6    2    1    2    0  503 -0.18114048364E+02  0.18180748766E+03 -0.49561718681E+02  0.25573575170E+03  0.17193699259E+03 0.  0.
        -24    2    3    3    0    0 -0.59367258351E+02  0.54469491152E+02 -0.41940563196E+02  0.12158298542E+03  0.80820880175E+02 0.  0.
          6    2    1    2  501    0  0.18114048364E+02 -0.18180748766E+03  0.21157863257E+02  0.25203665522E+03  0.17231581204E+03 0.  0.
         24    2    5    5    0    0  0.63258272387E+02 -0.12831832299E+03  0.43081093849E+02  0.17853965025E+03  0.97740600697E+02 0.  0.
          5    1    5    5  501    0 -0.45144224024E+02 -0.53489164667E+02 -0.21923230593E+02  0.73497004967E+02  0.47000000000E+01 0. -1.
        -13    1    6    6    0    0  0.51353980866E+02 -0.82875242232E+01  0.60809148076E+01  0.52372625803E+02  0.00000000000E+00 0.  1.
         14    1    6    6    0    0  0.11904291521E+02 -0.12003079877E+03  0.37000179042E+02  0.12616702445E+03  0.00000000000E+00 0. -1.
         -5    1    3    3    0  503  0.41253209988E+02  0.12733799651E+03 -0.76211554859E+01  0.13415276628E+03  0.47000000000E+01 0.  1.
         13    1    4    4    0    0  0.69887244973E+00  0.26817977742E+02 -0.48199353060E+02  0.55162215222E+02  0.00000000000E+00 0. -1.
        -14    1    4    4    0    0 -0.60066130801E+02  0.27651513411E+02  0.62587898640E+01  0.66420770199E+02  0.00000000000E+00 0.  1.
</event>
<event>
12    1  0.1594900E-001  0.1864256E+03  0.7818608E-02  0.1161856E+00
         21   -1    0    0  503  502  0.00000000000E+00  0.00000000000E+00  0.31640389310E+02  0.31640389310E+02  0.00000000000E+00 0. -1.
         21   -1    0    0  501  503 -0.00000000000E+00 -0.00000000000E+00 -0.14032924907E+04  0.14032924907E+04  0.00000000000E+00 0. -1.
          6    2    1    2  501    0 -0.73288942589E+02  0.11327718273E+02 -0.10228607033E+04  0.10397107900E+04  0.17104070322E+03 0.  0.
         24    2    3    3    0    0 -0.15998969248E+02  0.31258174044E+02 -0.26093709772E+03  0.27536202480E+03  0.80641399241E+02 0.  0.
         -6    2    1    2    0  502  0.73288942589E+02 -0.11327718273E+02 -0.34879139811E+03  0.39522209004E+03  0.17042732983E+03 0.  0.
        -24    2    5    5    0    0  0.29583840070E+02 -0.24993348722E+02 -0.33580125677E+03  0.34739198222E+03  0.80117627207E+02 0.  0.
          5    1    3    3  501    0 -0.57289973341E+02 -0.19930455771E+02 -0.76192360561E+03  0.76434876522E+03  0.47000000000E+01 0. -1.
        -13    1    4    4    0    0 -0.15369560214E+01  0.27247667915E+02 -0.25876229481E+03  0.26019746896E+03  0.00000000000E+00 0.  1.
         14    1    4    4    0    0 -0.14462013226E+02  0.40105061295E+01 -0.21748029150E+01  0.15164555835E+02  0.00000000000E+00 0. -1.
         -5    1    5    5    0  502  0.43705102518E+02  0.13665630449E+02 -0.12990141336E+02  0.47830107816E+02  0.47000000000E+01 0.  1.
         11    1    6    6    0    0  0.41359795518E+02 -0.43141571180E+02 -0.17029425712E+03  0.18047703969E+03  0.00000000000E+00 0. -1.
        -12    1    6    6    0    0 -0.11775955448E+02  0.18148222457E+02 -0.16550699966E+03  0.16691494253E+03  0.00000000000E+00 0.  1.
</event>
<event>
12    1  0.1594900E-001  0.2825047E+03  0.7818608E-02  0.1094382E+00
         21   -1    0    0  501  502  0.00000000000E+00  0.00000000000E+00  0.80047005513E+03  0.80047005513E+03  0.00000000000E+00 0.  1.
         21   -1    0    0  502  503 -0.00000000000E+00 -0.00000000000E+00 -0.10702169586E+03  0.10702169586E+03  0.00000000000E+00 0. -1.
         -6    2    1    2    0  503 -0.17362437664E+03  0.14130195917E+03  0.22716014379E+03  0.36250603660E+03  0.17232883629E+03 0.  0.
        -24    2    3    3    0    0 -0.13510891359E+03  0.90544163729E+02  0.66334069437E+02  0.18945427878E+03  0.70993315633E+02 0.  0.
          6    2    1    2  501    0  0.17362437664E+03 -0.14130195917E+03  0.46628821548E+03  0.54498571440E+03  0.17167720049E+03 0.  0.
         24    2    5    5    0    0  0.10844800544E+03 -0.10434721576E+03  0.17300768161E+03  0.24224956860E+03  0.78127359299E+02 0.  0.
          5    1    5    5  501    0  0.65176371203E+02 -0.36954743412E+02  0.29328053387E+03  0.30273614579E+03  0.47000000000E+01 0. -1.
        -13    1    6    6    0    0  0.97348299512E+01 -0.32154981831E+02  0.85521653850E+02  0.91883965130E+02  0.00000000000E+00 0.  1.
         14    1    6    6    0    0  0.98713175485E+02 -0.72192233927E+02  0.87486027764E+02  0.15036560347E+03  0.00000000000E+00 0. -1.
         -5    1    3    3    0  503 -0.38515463053E+02  0.50757795440E+02  0.16082607435E+03  0.17305175782E+03  0.47000000000E+01 0.  1.
         13    1    4    4    0    0 -0.11748280229E+03  0.51757521866E+02  0.70816664159E+02  0.14661531238E+03  0.00000000000E+00 0. -1.
        -14    1    4    4    0    0 -0.17626111300E+02  0.38786641863E+02 -0.44825947217E+01  0.42838966398E+02  0.00000000000E+00 0.  1.
</event>
<event>
12    1  0.1594900E-001  0.2571588E+03  0.7818608E-02  0.1109320E+00
         21   -1    0    0  503  502  0.00000000000E+00  0.00000000000E+00  0.83077325107E+03  0.83077325107E+03  0.00000000000E+00 0.  1.
         21   -1    0    0  501  503 -0.00000000000E+00 -0.00000000000E+00 -0.80427031890E+02  0.80427031890E+02  0.00000000000E+00 0.  1.
          6    2    1    2  501    0  0.14317798620E+03 -0.12475871923E+03  0.31017103591E+03  0.40291032193E+03  0.17339545046E+03 0.  0.
         24    2    3    3    0    0  0.16431529379E+03 -0.98924528584E+02  0.20251613105E+03  0.29010136962E+03  0.79752386769E+02 0.  0.
         -6    2    1    2    0  502 -0.14317798620E+03  0.12475871923E+03  0.44017518327E+03  0.50828996103E+03  0.16893732200E+03 0.  0.
        -24    2    5    5    0    0 -0.98060387930E+02  0.63327944652E+01  0.23296025243E+03  0.26534878525E+03  0.80520523176E+02 0.  0.
          5    1    3    3  501    0 -0.21137307588E+02 -0.25834190643E+02  0.10765490487E+03  0.11280895230E+03  0.47000000000E+01 0. -1.
        -11    1    4    4    0    0  0.35693178007E+02  0.22251131539E+01  0.73456878128E+02  0.81699859419E+02  0.00000000000E+00 0.  1.
         12    1    4    4    0    0  0.12862211578E+03 -0.10114964174E+03  0.12905925292E+03  0.20840151021E+03  0.00000000000E+00 0. -1.
         -5    1    5    5    0  502 -0.45117598273E+02  0.11842592476E+03  0.20721493083E+03  0.24294117578E+03  0.47000000000E+01 0.  1.
         13    1    6    6    0    0 -0.34872572079E+01 -0.21033031942E+02  0.14658809691E+02  0.25873347233E+02  0.00000000000E+00 0. -1.
        -14    1    6    6    0    0 -0.94573130722E+02  0.27365826407E+02  0.21830144274E+03  0.23947543802E+03  0.00000000000E+00 0.  1.
</event>
<event>
12    1  0.1594900E-001  0.1798664E+03  0.7818608E-02  0.1168568E+00
         21   -1    0    0  501  502  0.00000000000E+00  0.00000000000E+00  0.33745154188E+03  0.33745154188E+03  0.00000000000E+00 0. -1.
         21   -1    0    0  502  503 -0.00000000000E+00 -0.00000000000E+00 -0.98489320224E+02  0.98489320224E+02  0.00000000000E+00 0. -1.
         -6    2    1    2    0  503 -0.19262853667E+02 -0.42369834880E+02  0.74708409218E+02  0.19236079100E+03  0.17104112683E+03 0.  0.
        -24    2    3    3    0    0 -0.70234672865E+02 -0.38779334494E+02  0.92674051344E+02  0.13799285613E+03  0.63378249371E+02 0.  0.
          6    2    1    2  501    0  0.19262853667E+02  0.42369834880E+02  0.16425381244E+03  0.24358007110E+03  0.17374025354E+03 0.  0.
         24    2    5    5    0    0 -0.17842860235E+02  0.46743520408E+02  0.22612448545E+02  0.97018380698E+02  0.79986992708E+02 0.  0.
          5    1    5    5  501    0  0.37105713902E+02 -0.43736855283E+01  0.14164136389E+03  0.14656169041E+03  0.47000000000E+01 0. -1.
        -11    1    6    6    0    0 -0.45197852241E+02  0.72234281406E+01  0.16074067307E+02  0.48511848048E+02  0.00000000000E+00 0.  1.
         12    1    6    6    0    0  0.27354992006E+02  0.39520092268E+02  0.65383812372E+01  0.48506532650E+02  0.00000000000E+00 0. -1.
         -5    1    3    3    0  503  0.50971819198E+02 -0.35905003857E+01 -0.17965642126E+02  0.54367934873E+02  0.47000000000E+01 0.  1.
         11    1    4    4    0    0 -0.13207946341E+02  0.16504567932E+02  0.10125260152E+02  0.23438675353E+02  0.00000000000E+00 0. -1.
        -12    1    4    4    0    0 -0.57026726524E+02 -0.55283902426E+02  0.82548791192E+02  0.11455418077E+03  0.00000000000E+00 0.  1.
</event>
<event>
12    1  0.1594900E-001  0.1844868E+03  0.7818608E-02  0.1165628E+00
         21   -1    0    0  503  502  0.00000000000E+00  0.00000000000E+00  0.20522233036E+03  0.20522233036E+03  0.00000000000E+00 0. -1.
         21   -1    0    0  501  503 -0.00000000000E+00 -0.00000000000E+00 -0.17696340879E+03  0.17696340879E+03  0.00000000000E+00 0. -1.
          6    2    1    2  501    0  0.18991914207E+02  0.56877498828E+02 -0.47945148490E+02  0.19061508729E+03  0.17446957202E+03 0.  0.
         24    2    3    3    0    0 -0.16221866342E+02  0.99513168975E+02 -0.22161289730E+02  0.12942106731E+03  0.78055558122E+02 0.  0.
         -6    2    1    2    0  502 -0.18991914207E+02 -0.56877498828E+02  0.76204070056E+02  0.19157065186E+03  0.16521655995E+03 0.  0.
        -24    2    5    5    0    0  0.26860220758E+02 -0.18403482885E+01 -0.40038452032E+01  0.83928160756E+02  0.79391731625E+02 0.  0.
          5    1    3    3  501    0  0.35213780548E+02 -0.42635670147E+02 -0.25783858760E+02  0.61194019985E+02  0.47000000000E+01 0. -1.
        -13    1    4    4    0    0 -0.34581168202E+02  0.17307593092E+02  0.88370621769E+01  0.39667412832E+02  0.00000000000E+00 0.  1.
         14    1    4    4    0    0  0.18359301860E+02  0.82205575882E+02 -0.30998351907E+02  0.89753654477E+02  0.00000000000E+00 0. -1.
         -5    1    5    5    0  502 -0.45852134964E+02 -0.55037150540E+02  0.80207915259E+02  0.10764249110E+03  0.47000000000E+01 0.  1.
         11    1    6    6    0    0  0.17228526760E+02  0.35045038849E+02  0.14367637731E+02  0.41610165780E+02  0.00000000000E+00 0. -1.
        -12    1    6    6    0    0  0.96316939980E+01 -0.36885387138E+02 -0.18371482934E+02  0.42317994976E+02  0.00000000000E+00 0.  1.
</event>
<event>
12    1  0.1594900E-001  0.1816597E+03  0.7818608E-02  0.1166359E+00
         21   -1    0    0  501  502  0.00000000000E+00  0.00000000000E+00  0.78322913303E+03  0.78322913303E+03  0.00000000000E+00 0.  1.
         21   -1    0    0  502  503 -0.00000000000E+00 -0.00000000000E+00 -0.20279241059E+03  0.20279241059E+03  0.00000000000E+00 0.  1.
         -6    2    1    2    0  503 -0.46235238200E+02  0.32183683502E+02 -0.14890459478E+03  0.23439729858E+03  0.17203496302E+03 0.  0.
        -24    2    3    3    0    0  0.34817625998E+01 -0.41347181778E+02 -0.81863452780E+02  0.12306368713E+03  0.81983742767E+02 0.  0.
          6    2    1    2  501    0  0.46235238200E+02 -0.32183683502E+02  0.72934131722E+03  0.75162424504E+03  0.17270426164E+03 0.  0.
         24    2    5    5    0    0  0.54642644565E+02  0.36770579187E+02  0.40462615036E+03  0.41952877019E+03  0.89130092359E+02 0.  0.
          5    1    5    5  501    0 -0.84074063643E+01 -0.68954262689E+02  0.32471516686E+03  0.33209547484E+03  0.47000000000E+01 0. -1.
        -11    1    6    6    0    0 -0.19205371143E+02  0.13641852605E+02  0.18849768001E+03  0.18996400130E+03  0.00000000000E+00 0.  1.
         12    1    6    6    0    0  0.73848015708E+02  0.23128726582E+02  0.21612847036E+03  0.22956476889E+03  0.00000000000E+00 0. -1.
         -5    1    3    3    0  503 -0.49717000800E+02  0.73530865280E+02 -0.67041141995E+02  0.11133361144E+03  0.47000000000E+01 0.  1.
         13    1    4    4    0    0 -0.28693209748E+02 -0.82449223613E+01 -0.90388254067E+00  0.29867976731E+02  0.00000000000E+00 0. -1.
        -14    1    4    4    0    0  0.32174972348E+02 -0.33102259416E+02 -0.80959570240E+02  0.93195710402E+02  0.00000000000E+00 0.  1.
</event>
<event>
12    1  0.1594900E-001  0.1748275E+03  0.7818608E-02  0.1172917E+00
         21   -1    0    0  503  502  0.00000000000E+00  0.00000000000E+00  0.58242750196E+03  0.58242750196E+03  0.00000000000E+00 0. -1.
         21   -1    0    0  501  503 -0.00000000000E+00 -0.00000000000E+00 -0.52706469479E+02  0.52706469479E+02  0.00000000000E+00 0. -1.
          6    2    1    2  501    0 -0.45288746567E+01 -0.30087838130E+02  0.24333865451E+03  0.29963038315E+03  0.17215945231E+03 0.  0.
         24    2    3    3    0    0  0.33150640854E+02 -0.73916762011E+02  0.18688718079E+03  0.21870091174E+03  0.79627996062E+02 0.  0.
         -6    2    1    2    0  502  0.45288746567E+01  0.30087838130E+02  0.28638237798E+03  0.33550358829E+03  0.17211043731E+03 0.  0.
        -24    2    5    5    0    0  0.20095077312E+01  0.78190276869E+02  0.24769509655E+03  0.27354402432E+03  0.85765464335E+02 0.  0.
          5    1    3    3  501    0 -0.37679515511E+02  0.43828923882E+02  0.56451473714E+02  0.80929471407E+02  0.47000000000E+01 0. -1.
        -11    1    4    4    0    0 -0.10557471971E+02 -0.58049557368E+01 -0.28883911391E+01  0.12389533038E+02  0.00000000000E+00 0.  1.
         12    1    4    4    0    0  0.43708112825E+02 -0.68111806275E+02  0.18977557193E+03  0.20631137870E+03  0.00000000000E+00 0. -1.
         -5    1    5    5    0  502  0.25193669255E+01 -0.48102438739E+02  0.38687281430E+02  0.61959563966E+02  0.47000000000E+01 0.  1.
         11    1    6    6    0    0  0.52125276885E+01  0.37352188926E+02  0.20977866764E+02  0.43155849620E+02  0.00000000000E+00 0. -1.
        -12    1    6    6    0    0 -0.32030199573E+01  0.40838087943E+02  0.22671722978E+03  0.23038817470E+03  0.00000000000E+00 0.  1.
</event>
<event>
12    1  0.1594900E-001  0.1796968E+03  0.7818608E-02  0.1168492E+00
         21   -1    0    0  501  502  0.00000000000E+00  0.00000000000E+00  0.62179971260E+02  0.62179971260E+02  0.00000000000E+00 0.  1.
         21   -1    0    0  502  503 -0.00000000000E+00 -0.00000000000E+00 -0.11220240416E+04  0.11220240416E+04  0.00000000000E+00 0.  1.
         -6    2    1    2    0  503 -0.45299866100E+02 -0.13395638171E+02 -0.96666089609E+03  0.98322134476E+03  0.17337647988E+03 0.  0.
        -24    2    3    3    0    0 -0.21469040552E+02 -0.44485346291E+02 -0.28335196646E+03  0.29877436982E+03  0.80857414175E+02 0.  0.
          6    2    1    2  501    0  0.45299866100E+02  0.13395638171E+02 -0.93183174264E+02  0.20098266811E+03  0.17169568406E+03 0.  0.
         24    2    5    5    0    0  0.68882261528E+02 -0.43925964468E+02 -0.47911416721E+02  0.12408326932E+03  0.80167933525E+02 0.  0.
          5    1    5    5  501    0 -0.23582395428E+02  0.57321602639E+02 -0.45271757543E+02  0.76899398790E+02  0.47000000000E+01 0. -1.
        -13    1    6    6    0    0  0.47891593287E+02 -0.10188797447E+02  0.13633727808E+02  0.50826123548E+02  0.00000000000E+00 0.  1.
         14    1    6    6    0    0  0.20990668241E+02 -0.33737167021E+02 -0.61545144529E+02  0.73257145773E+02  0.00000000000E+00 0. -1.
         -5    1    3    3    0  503 -0.23830825549E+02  0.31089708120E+02 -0.68330892963E+03  0.68444697494E+03  0.47000000000E+01 0.  1.
         11    1    4    4    0    0 -0.46858796104E+02 -0.47799786534E+02 -0.23089336302E+03  0.24040031500E+03  0.00000000000E+00 0. -1.
        -12    1    4    4    0    0  0.25389755553E+02  0.33144402430E+01 -0.52458603433E+02  0.58374054813E+02  0.00000000000E+00 0.  1.
</event>
<event>
12    1  0.1594900E-001  0.2445711E+03  0.7818608E-02  0.1116834E+00
         21   -1    0    0  501  502  0.00000000000E+00  0.00000000000E+00  0.58921341029E+03  0.58921341029E+03  0.00000000000E+00 0. -1.
         21   -1    0    0  502  503 -0.00000000000E+00 -0.00000000000E+00 -0.15534869734E+03  0.15534869734E+03  0.00000000000E+00 0.  1.
         -6    2    1    2    0  503  0.15536399142E+03  0.76895231992E+02 -0.23845442030E+01  0.24458274335E+03  0.17252300067E+03 0.  0.
        -24    2    3    3    0    0  0.48070472795E+01  0.15848809942E+02 -0.20032410125E+01  0.82051840236E+02  0.80338029795E+02 0.  0.
          6    2    1    2  501    0 -0.15536399142E+03 -0.76895231992E+02  0.43624925716E+03  0.49997936428E+03  0.17209039429E+03 0.  0.
         24    2    5    5    0    0 -0.13219963786E+02 -0.11585250095E+02  0.12094034993E+03  0.14796783705E+03  0.83420183998E+02 0.  0.
          5    1    5    5  501    0 -0.14214402764E+03 -0.65309981897E+02  0.31530890723E+03  0.35201152723E+03  0.47000000000E+01 0. -1.
        -11    1    6    6    0    0  0.18334328095E+02 -0.38897197960E+02  0.53224212856E+02  0.68424823200E+02  0.00000000000E+00 0.  1.
         12    1    6    6    0    0 -0.31554291881E+02  0.27311947865E+02  0.67716137073E+02  0.79543013850E+02  0.00000000000E+00 0. -1.
         -5    1    3    3    0  503  0.15055694414E+03  0.61046422050E+02 -0.38130319050E+00  0.16253090311E+03  0.47000000000E+01 0.  1.
         13    1    4    4    0    0 -0.24360238360E+02  0.37995006750E+02  0.22125581895E+01  0.45187798847E+02  0.00000000000E+00 0. -1.
        -14    1    4    4    0    0  0.29167285640E+02 -0.22146196807E+02 -0.42157992020E+01  0.36864041389E+02  0.00000000000E+00 0.  1.
</event>
<event>
12    1  0.1594900E-001  0.2571376E+03  0.7818608E-02  0.1109491E+00
         21   -1    0    0  501  502  0.00000000000E+00  0.00000000000E+00  0.49974365712E+03  0.49974365712E+03  0.00000000000E+00 0.  1.
         21   -1    0    0  502  503 -0.00000000000E+00 -0.00000000000E+00 -0.15701026932E+03  0.15701026932E+03  0.00000000000E+00 0.  1.
         -6    2    1    2    0  503 -0.45734333862E+02 -0.18183454521E+03  0.34699073364E+02  0.25549981030E+03  0.17006086042E+03 0.  0.
        -24    2    3    3    0    0  0.29173970335E+02 -0.88289552831E+02  0.54370468999E+02  0.13396391666E+03  0.79649340140E+02 0.  0.
          6    2    1    2  501    0  0.45734333862E+02  0.18183454521E+03  0.30803431444E+03  0.40125411614E+03  0.17596674608E+03 0.  0.
         24    2    5    5    0    0 -0.23120074687E+02  0.10500480805E+03  0.93497554631E+02  0.16315361342E+03  0.79478055354E+02 0.  0.
          5    1    5    5  501    0  0.68854408549E+02  0.76829737158E+02  0.21453675981E+03  0.23810050272E+03  0.47000000000E+01 0. -1.
        -13    1    6    6    0    0 -0.43410626038E+01  0.71003108653E+02  0.11016015862E+02  0.71983601385E+02  0.00000000000E+00 0.  1.
         14    1    6    6    0    0 -0.18779012083E+02  0.34001699397E+02  0.82481538769E+02  0.91170012035E+02  0.00000000000E+00 0. -1.
         -5    1    3    3    0  503 -0.74908304197E+02 -0.93544992377E+02 -0.19671395634E+02  0.12153589364E+03  0.47000000000E+01 0.  1.
         11    1    4    4    0    0  0.77787208605E+01  0.14477902266E+02  0.17087065033E+01  0.16523856395E+02  0.00000000000E+00 0. -1.
        -12    1    4    4    0    0  0.21395249475E+02 -0.10276745510E+03  0.52661762495E+02  0.11744006027E+03  0.00000000000E+00 0.  1.
</event>
<event>
12    1  0.1594900E-001  0.1991171E+03  0.7818608E-02  0.1150913E+00
         21   -1    0    0  501  502  0.00000000000E+00  0.00000000000E+00  0.26824209612E+03  0.26824209612E+03  0.00000000000E+00 0. -1.
         21   -1    0    0  502  503 -0.00000000000E+00 -0.00000000000E+00 -0.42133135407E+03  0.42133135407E+03  0.00000000000E+00 0.  1.
         -6    2    1    2    0  503  0.73046731454E+02  0.66903063449E+02 -0.35496499540E+03  0.40602195712E+03  0.17041665655E+03 0.  0.
        -24    2    3    3    0    0  0.70394667657E+02  0.10942116499E+03 -0.25890005500E+03  0.30082982256E+03  0.80876097055E+02 0.  0.
          6    2    1    2  501    0 -0.73046731454E+02 -0.66903063449E+02  0.20187573745E+03  0.28355149306E+03  0.17273039968E+03 0.  0.
         24    2    5    5    0    0 -0.90224623606E+01 -0.57049718004E+02  0.36067287461E+02  0.10547643154E+03  0.80550314925E+02 0.  0.
          5    1    5    5  501    0 -0.64024269094E+02 -0.98533454454E+01  0.16580844998E+03  0.17807506152E+03  0.47000000000E+01 0. -1.
        -11    1    6    6    0    0  0.21015710804E+02 -0.56470429694E+02  0.43754356592E+02  0.74464845741E+02  0.00000000000E+00 0.  1.
         12    1    6    6    0    0 -0.30038173165E+02 -0.57928830973E+00 -0.76870691310E+01  0.31011585800E+02  0.00000000000E+00 0. -1.
         -5    1    3    3    0  503  0.26520637978E+01 -0.42518101543E+02 -0.96064940392E+02  0.10519213456E+03  0.47000000000E+01 0.  1.
         13    1    4    4    0    0 -0.13527856426E+02  0.46141548662E+02 -0.79914960341E+02  0.93265461445E+02  0.00000000000E+00 0. -1.
        -14    1    4    4    0    0  0.83922524083E+02  0.63279616331E+02 -0.17898509466E+03  0.20756436111E+03  0.00000000000E+00 0.  1.
</event>
<event>
12    1  0.1594900E-001  0.2116455E+03  0.7818608E-02  0.1141178E+00
         21   -1    0    0  503  502  0.00000000000E+00  0.00000000000E+00  0.67758621307E+02  0.67758621307E+02  0.00000000000E+00 0.  1.
         21   -1    0    0  501  503 -0.00000000000E+00 -0.00000000000E+00 -0.72606931639E+03  0.72606931639E+03  0.00000000000E+00 0.  1.
          6    2    1    2  501    0 -0.11397185873E+03 -0.45798811986E+02 -0.20125794761E+03  0.29205919559E+03  0.17235630679E+03 0.  0.
         24    2    3    3    0    0 -0.99678636854E+02 -0.81383901024E+02 -0.20520790964E+03  0.25322252537E+03  0.73838954413E+02 0.  0.
         -6    2    1    2    0  502  0.11397185873E+03  0.45798811986E+02 -0.45705274747E+03  0.50176874211E+03  0.16669595323E+03 0.  0.
        -24    2    5    5    0    0  0.13426662293E+03  0.21143163926E+02 -0.43571433423E+03  0.46307512100E+03  0.78211426405E+02 0.  0.
          5    1    3    3  501    0 -0.14293221877E+02  0.35585089038E+02  0.39499620217E+01  0.38836670216E+02  0.47000000000E+01 0. -1.
        -13    1    4    4    0    0 -0.10247342850E+03 -0.45777097366E+02 -0.14729107354E+03  0.18517831011E+03  0.00000000000E+00 0.  1.
         14    1    4    4    0    0  0.27947916466E+01 -0.35606803658E+02 -0.57916836096E+02  0.68044215261E+02  0.00000000000E+00 0. -1.
         -5    1    5    5    0  502 -0.20294764197E+02  0.24655648060E+02 -0.21338413241E+02  0.38693621111E+02  0.47000000000E+01 0.  1.
         13    1    6    6    0    0  0.30386111685E+02  0.26559499107E+02 -0.21901544278E+03  0.22270268734E+03  0.00000000000E+00 0. -1.
        -14    1    6    6    0    0  0.10388051124E+03 -0.54163351802E+01 -0.21669889145E+03  0.24037243365E+03  0.00000000000E+00 0.  1.
</event>
<event>
12    1  0.1594900E-001  0.1861513E+03  0.7818608E-02  0.1162384E+00
         21   -1    0    0  501  502  0.00000000000E+00  0.00000000000E+00  0.67534441071E+03  0.67534441071E+03  0.00000000000E+00 0.  1.
         21   -1    0    0  502  503 -0.00000000000E+00 -0.00000000000E+00 -0.14725102298E+03  0.14725102298E+03  0.00000000000E+00 0.  1.
         -6    2    1    2    0  503 -0.64973777469E+02  0.29364433961E+02 -0.68343204135E+02  0.19830057439E+03  0.17195482695E+03 0.  0.
        -24    2    3    3    0    0 -0.10868794812E+03  0.24173151695E+01 -0.42557233302E+02  0.14064572014E+03  0.78429503426E+02 0.  0.
          6    2    1    2  501    0  0.64973777469E+02 -0.29364433961E+02  0.59643659187E+03  0.62429485930E+03  0.17006940197E+03 0.  0.
         24    2    5    5    0    0  0.62316856808E+02 -0.78191467759E+02  0.34369850650E+03  0.36682686468E+03  0.80224615971E+02 0.  0.
          5    1    5    5  501    0  0.26569206609E+01  0.48827033798E+02  0.25273808537E+03  0.25746799462E+03  0.47000000000E+01 0. -1.
        -13    1    6    6    0    0  0.73800253402E+02 -0.32822261247E+02  0.19975836685E+03  0.21546968084E+03  0.00000000000E+00 0.  1.
         14    1    6    6    0    0 -0.11483396594E+02 -0.45369206512E+02  0.14394013965E+03  0.15135718384E+03  0.00000000000E+00 0. -1.
         -5    1    3    3    0  503  0.43714170651E+02  0.26947118791E+02 -0.25785970833E+02  0.57654854251E+02  0.47000000000E+01 0.  1.
         11    1    4    4    0    0 -0.17196050705E+01  0.22929819767E+02  0.17510828796E+01  0.23060788525E+02  0.00000000000E+00 0. -1.
        -12    1    4    4    0    0 -0.10696834305E+03 -0.20512504597E+02 -0.44308316181E+02  0.11758493161E+03  0.00000000000E+00 0.  1.
</event>
<event>
12    1  0.1594900E-001  0.1998306E+03  0.7818608E-02  0.1150043E+00
         21   -1    0    0  503  502  0.00000000000E+00  0.00000000000E+00  0.32171286043E+02  0.32171286043E+02  0.00000000000E+00 0. -1.
         21   -1    0    0  501  503 -0.00000000000E+00 -0.00000000000E+00 -0.14616038443E+04  0.14616038443E+04  0.00000000000E+00 0. -1.
          6    2    1    2  501    0 -0.50309440015E+02 -0.87310059739E+02 -0.10066627775E+04  0.10261571574E+04  0.17168132653E+03 0.  0.
         24    2    3    3    0    0 -0.50640366796E+02  0.89716205962E+01 -0.64311371577E+03  0.65004509732E+03  0.79488618182E+02 0.  0.
         -6    2    1    2    0  502  0.50309440015E+02  0.87310059739E+02 -0.42276978071E+03  0.46761797286E+03  0.17256359630E+03 0.  0.
        -24    2    5    5    0    0 -0.14290784769E+02  0.10291836891E+03 -0.31038806831E+03  0.33697132100E+03  0.80078093400E+02 0.  0.
          5    1    3    3  501    0  0.33092678197E+00 -0.96281680335E+02 -0.36354906174E+03  0.37611206012E+03  0.47000000000E+01 0. -1.
        -13    1    4    4    0    0 -0.38426584229E+02  0.11839770475E+01 -0.10634188441E+03  0.11307785175E+03  0.00000000000E+00 0.  1.
         14    1    4    4    0    0 -0.12213782568E+02  0.77876435487E+01 -0.53677183136E+03  0.53696724557E+03  0.00000000000E+00 0. -1.
         -5    1    5    5    0  502  0.64600224783E+02 -0.15608309171E+02 -0.11238171241E+03  0.13064665185E+03  0.47000000000E+01 0.  1.
         13    1    6    6    0    0  0.25760475882E+02  0.36617834444E+02 -0.59916728207E+02  0.74796271538E+02  0.00000000000E+00 0. -1.
        -14    1    6    6    0    0 -0.40051260650E+02  0.66300534466E+02 -0.25047134010E+03  0.26217504946E+03  0.00000000000E+00 0.  1.
</event>
<event>
12    1  0.1594900E-001  0.2079359E+03  0.7818608E-02  0.1143435E+00
         21   -1    0    0  501  502  0.00000000000E+00  0.00000000000E+00  0.17595958509E+03  0.17595958509E+03  0.00000000000E+00 0.  1.
         21   -1    0    0  502  503 -0.00000000000E+00 -0.00000000000E+00 -0.33310209148E+03  0.33310209148E+03  0.00000000000E+00 0. -1.
         -6    2    1    2    0  503  0.81020952048E+01 -0.11500241053E+03  0.52924033693E+02  0.21348547318E+03  0.17170875209E+03 0.  0.
        -24    2    3    3    0    0  0.43425471259E+02 -0.13300178667E+03  0.19325223866E+02  0.16130608588E+03  0.77916251529E+02 0.  0.
          6    2    1    2  501    0 -0.81020952048E+01  0.11500241053E+03 -0.21006654008E+03  0.29557620339E+03  0.17304953735E+03 0.  0.
         24    2    5    5    0    0  0.60566364469E+01 -0.11042717837E+02 -0.82687121219E+02  0.11575559719E+03  0.80022333147E+02 0.  0.
          5    1    5    5  501    0 -0.14158731652E+02  0.12604512837E+03 -0.12737941886E+03  0.17982060621E+03  0.47000000000E+01 0. -1.
        -11    1    6    6    0    0  0.15560090224E+02  0.32552596360E+02 -0.31988281785E+02  0.48218648976E+02  0.00000000000E+00 0.  1.
         12    1    6    6    0    0 -0.95034537767E+01 -0.43595314197E+02 -0.50698839434E+02  0.67536948211E+02  0.00000000000E+00 0. -1.
         -5    1    3    3    0  503 -0.35323376055E+02  0.17999376144E+02  0.33598809827E+02  0.52179387302E+02  0.47000000000E+01 0.  1.
         11    1    4    4    0    0 -0.22538743062E+02 -0.26432504624E+02  0.21722346185E+01  0.34805040479E+02  0.00000000000E+00 0. -1.
        -12    1    4    4    0    0  0.65964214322E+02 -0.10656928205E+03  0.17152989248E+02  0.12650104540E+03  0.00000000000E+00 0.  1.
</event>
<event>
12    1  0.1594900E-001  0.2473844E+03  0.7818608E-02  0.1115146E+00
         21   -1    0    0  503  502  0.00000000000E+00  0.00000000000E+00  0.52883375569E+03  0.52883375569E+03  0.00000000000E+00 0.  1.
         21   -1    0    0  501  503 -0.00000000000E+00 -0.00000000000E+00 -0.16030143529E+03  0.16030143529E+03  0.00000000000E+00 0.  1.
          6    2    1    2  501    0  0.17264780834E+03 -0.34313504282E+02  0.12241004305E+01  0.24628714979E+03  0.17225324215E+03 0.  0.
         24    2    3    3    0    0  0.14393791425E+03 -0.84368900660E+02  0.18715798222E+02  0.18580698596E+03  0.79609800731E+02 0.  0.
         -6    2    1    2    0  502 -0.17264780834E+03  0.34313504282E+02  0.36730821997E+03  0.44284804119E+03  0.17382283173E+03 0.  0.
        -24    2    5    5    0    0 -0.18321706249E+03  0.43785060518E+01  0.35650666908E+03  0.40898690191E+03  0.81151817778E+02 0.  0.
          5    1    3    3  501    0  0.28709894093E+02  0.50055396378E+02 -0.17491697791E+02  0.60480163830E+02  0.47000000000E+01 0. -1.
        -11    1    4    4    0    0  0.33988898918E+02 -0.48932943383E+02  0.35073370706E+02  0.69136238909E+02  0.00000000000E+00 0.  1.
         12    1    4    4    0    0  0.10994901533E+03 -0.35435957277E+02 -0.16357572484E+02  0.11667074705E+03  0.00000000000E+00 0. -1.
         -5    1    5    5    0  502  0.10569254146E+02  0.29934998230E+02  0.10801550884E+02  0.33861139286E+02  0.47000000000E+01 0.  1.
         13    1    6    6    0    0 -0.16051804301E+03  0.13966590094E+02  0.34698572949E+03  0.38257052192E+03  0.00000000000E+00 0. -1.
        -14    1    6    6    0    0 -0.22699019478E+02 -0.95880840420E+01  0.95209395877E+01  0.26416379984E+02  0.00000000000E+00 0.  1.
</event>
<event>
12    1  0.1594900E-001  0.2182456E+03  0.7818608E-02  0.1135532E+00
         21   -1    0    0  503  502  0.00000000000E+00  0.00000000000E+00  0.50280471252E+02  0.50280471252E+02  0.00000000000E+00 0. -1.
         21   -1    0    0  501  503 -0.00000000000E+00 -0.00000000000E+00 -0.11137437761E+04  0.11137437761E+04  0.00000000000E+00 0. -1.
          6    2    1    2  501    0 -0.85814278990E+01  0.13034940288E+03 -0.76000684508E+03  0.79023693007E+03  0.17262500787E+03 0.  0.
         24    2    3    3    0    0  0.41606001974E+02  0.81308322685E+02 -0.63355926624E+03  0.64554800217E+03  0.83622822985E+02 0.  0.
         -6    2    1    2    0  502  0.85814278990E+01 -0.13034940288E+03 -0.30345645973E+03  0.37378731725E+03  0.17483285688E+03 0.  0.
        -24    2    5    5    0    0  0.26351095478E+02 -0.12316077310E+03 -0.12554197377E+03  0.19478147432E+03  0.79473764852E+02 0.  0.
          5    1    3    3  501    0 -0.50187429872E+02  0.49041080191E+02 -0.12644757884E+03  0.14468892790E+03  0.47000000000E+01 0. -1.
        -11    1    4    4    0    0  0.31353723862E+02 -0.58593130232E+00 -0.31176720926E+03  0.31334037736E+03  0.00000000000E+00 0.  1.
         12    1    4    4    0    0  0.10252278112E+02  0.81894253987E+02 -0.32179205698E+03  0.33220762480E+03  0.00000000000E+00 0. -1.
         -5    1    5    5    0  502 -0.17769667579E+02 -0.71886297811E+01 -0.17791448597E+03  0.17900584292E+03  0.47000000000E+01 0.  1.
         13    1    6    6    0    0 -0.73161791383E+01 -0.11330658522E+03 -0.90488745333E+02  0.14518995063E+03  0.00000000000E+00 0. -1.
        -14    1    6    6    0    0  0.33667274616E+02 -0.98541878752E+01 -0.35053228433E+02  0.49591523694E+02  0.00000000000E+00 0.  1.
</event>
<event>
12    1  0.1594900E-001  0.1951552E+03  0.7818608E-02  0.1154142E+00
         21   -1    0    0  501  502  0.00000000000E+00  0.00000000000E+00  0.12951673644E+03  0.12951673644E+03  0.00000000000E+00 0. -1.
         21   -1    0    0  502  503 -0.00000000000E+00 -0.00000000000E+00 -0.38067596345E+03  0.38067596345E+03  0.00000000000E+00 0. -1.
         -6    2    1    2    0  503 -0.24263412795E+02 -0.89023608059E+02 -0.24818216172E+03  0.31501482910E+03  0.17066353203E+03 0.  0.
        -24    2    3    3    0    0 -0.48966946763E+02 -0.21551934192E+02 -0.43111108440E+02  0.97669669831E+02  0.69415769039E+02 0.  0.
          6    2    1    2  501    0  0.24263412795E+02  0.89023608059E+02 -0.29770652966E+01  0.19517787079E+03  0.17196401466E+03 0.  0.
         24    2    5    5    0    0 -0.27634732846E+02  0.44700907437E+02  0.50905975005E+02  0.10809520120E+03  0.79569495700E+02 0.  0.
          5    1    5    5  501    0  0.51898145641E+02  0.44322700622E+02 -0.53883040301E+02  0.87082669593E+02  0.47000000000E+01 0. -1.
        -13    1    6    6    0    0 -0.41543495165E+02  0.60935980632E+02  0.42532052840E+02  0.85135370117E+02  0.00000000000E+00 0.  1.
         14    1    6    6    0    0  0.13908762320E+02 -0.16235073195E+02  0.83739221644E+01  0.22959831082E+02  0.00000000000E+00 0. -1.
         -5    1    3    3    0  503  0.24703533968E+02 -0.67471673867E+02 -0.20507105328E+03  0.21734515927E+03  0.47000000000E+01 0.  1.
         11    1    4    4    0    0 -0.50699184060E+02 -0.19740841815E+02 -0.59769458437E+02  0.80823859484E+02  0.00000000000E+00 0. -1.
        -12    1    4    4    0    0  0.17322372970E+01 -0.18110923766E+01  0.16658349997E+02  0.16845810348E+02  0.00000000000E+00 0.  1.
</event>
<event>
12    1  0.1594900E-001  0.1803606E+03  0.7818608E-02  0.1167462E+00
         21   -1    0    0  503  502  0.00000000000E+00  0.00000000000E+00  0.20151354564E+03  0.20151354564E+03  0.00000000000E+00 0.  1.
         21   -1    0    0  501  503 -0.00000000000E+00 -0.00000000000E+00 -0.16158237936E+03  0.16158237936E+03  0.00000000000E+00 0.  1.
          6    2    1    2  501    0 -0.22060963159E+02  0.50990638351E+02  0.26042532975E+02  0.18223104232E+03  0.17159023272E+03 0.  0.
         24    2    3    3    0    0 -0.42446984452E+02  0.13405482454E+02  0.74329158139E+02  0.11756326072E+03  0.79465986885E+02 0.  0.
         -6    2    1    2    0  502  0.22060963159E+02 -0.50990638351E+02  0.13888633304E+02  0.18086488268E+03  0.17155897050E+03 0.  0.
        -24    2    5    5    0    0  0.71326906235E+01  0.44010939140E+02 -0.61444164476E-01  0.83577433811E+02  0.70691906379E+02 0.  0.
          5    1    3    3  501    0  0.20386021294E+02  0.37585155896E+02 -0.48286625164E+02  0.64667781605E+02  0.47000000000E+01 0. -1.
        -11    1    4    4    0    0 -0.12138441396E+02 -0.27864269519E+02  0.54987945099E+02  0.62828603212E+02  0.00000000000E+00 0.  1.
         12    1    4    4    0    0 -0.30308543057E+02  0.41269751974E+02  0.19341213039E+02  0.54734657503E+02  0.00000000000E+00 0. -1.
         -5    1    5    5    0  502  0.14928272535E+02 -0.95001577491E+02  0.13950077468E+02  0.97287448872E+02  0.47000000000E+01 0.  1.
         13    1    6    6    0    0  0.14491276252E+02  0.62225114104E+02 -0.11802847463E+01  0.63901134456E+02  0.00000000000E+00 0. -1.
        -14    1    6    6    0    0 -0.73585856283E+01 -0.18214174964E+02  0.11188405818E+01  0.19676299355E+02  0.00000000000E+00 0.  1.
</event>
<event>
12    1  0.1594900E-001  0.3932523E+03  0.7818608E-02  0.1046152E+00
         21   -1    0    0  503  502  0.00000000000E+00  0.00000000000E+00  0.15224697351E+04  0.15224697351E+04  0.00000000000E+00 0.  1.
         21   -1    0    0  501  503 -0.00000000000E+00 -0.00000000000E+00 -0.10856699162E+03  0.10856699162E+03  0.00000000000E+00 0. -1.
          6    2    1    2  501    0 -0.24617627951E+03  0.25254638616E+03  0.49946353533E+03  0.63562402842E+03  0.17369986940E+03 0.  0.
         24    2    3    3    0    0 -0.16496165397E+03  0.24410407324E+03  0.43489405082E+03  0.53142039903E+03  0.80471480737E+02 0.  0.
         -6    2    1    2    0  502  0.24617627951E+03 -0.25254638616E+03  0.91443920818E+03  0.99541269834E+03  0.17396820628E+03 0.  0.
        -24    2    5    5    0    0  0.25415459756E+03 -0.23264002142E+03  0.74581019912E+03  0.82536050161E+03  0.79190690561E+02 0.  0.
          5    1    3    3  501    0 -0.81214625535E+02  0.84423129154E+01  0.64569484505E+02  0.10420362939E+03  0.47000000000E+01 0. -1.
        -13    1    4    4    0    0 -0.93703666328E+02  0.95674697486E+02  0.25170672579E+03  0.28511453950E+03  0.00000000000E+00 0.  1.
         14    1    4    4    0    0 -0.71257987643E+02  0.14842937576E+03  0.18318732503E+03  0.24630585953E+03  0.00000000000E+00 0. -1.
         -5    1    5    5    0  502 -0.79783180506E+01 -0.19906364734E+02  0.16862900906E+03  0.17005219673E+03  0.47000000000E+01 0.  1.
         13    1    6    6    0    0  0.14405585563E+03 -0.88698435880E+02  0.30544923615E+03  0.34916863825E+03  0.00000000000E+00 0. -1.
        -14    1    6    6    0    0  0.11009874192E+03 -0.14394158554E+03  0.44036096297E+03  0.47619186336E+03  0.00000000000E+00 0.  1.
</event>
<event>
12    1  0.1594900E-001  0.1845341E+03  0.7818608E-02  0.1163661E+00
         21   -1    0    0  503  502  0.00000000000E+00  0.00000000000E+00  0.12410064454E+03  0.12410064454E+03  0.00000000000E+00 0. -1.
         21   -1    0    0  501  503 -0.00000000000E+00 -0.00000000000E+00 -0.49764336416E+03  0.49764336416E+03  0.00000000000E+00 0. -1.
          6    2    1    2  501    0 -0.66947079274E+02 -0.20173358489E+02 -0.39529580998E+03  0.43593214659E+03  0.16996818298E+03 0.  0.
         24    2    3    3    0    0 -0.36979755775E+01  0.40774448279E+02 -0.14079894484E+03  0.16666308294E+03  0.79221270463E+02 0.  0.
         -6    2    1    2    0  502  0.66947079274E+02  0.20173358489E+02  0.21753090364E+02  0.18581186211E+03  0.17077463320E+03 0.  0.
        -24    2    5    5    0    0  0.27353639800E+02  0.25976515516E+02  0.75906529270E+02  0.11831369898E+03  0.82542893165E+02 0.  0.
          5    1    3    3  501    0 -0.63249103697E+02 -0.60947806768E+02 -0.25449686514E+03  0.26926906365E+03  0.47000000000E+01 0. -1.
        -13    1    4    4    0    0 -0.24655994415E+02  0.38940858442E+02 -0.32640415380E+02  0.56477475448E+02  0.00000000000E+00 0.  1.
         14    1    4    4    0    0  0.20958018838E+02  0.18335898374E+01 -0.10815852946E+03  0.11018560750E+03  0.00000000000E+00 0. -1.
         -5    1    5    5    0  502  0.39593439474E+02 -0.58031570267E+01 -0.54153438906E+02  0.67498163132E+02  0.47000000000E+01 0.  1.
         11    1    6    6    0    0  0.24268975648E+02 -0.27792240512E+02  0.30899754762E+02  0.48126776913E+02  0.00000000000E+00 0. -1.
        -12    1    6    6    0    0  0.30846641523E+01  0.53768756028E+02  0.45006774508E+02  0.70186922068E+02  0.00000000000E+00 0.  1.
</event>
<event>
12    1  0.1594900E-001  0.1849389E+03  0.7818608E-02  0.1163186E+00
         21   -1    0    0  503  502  0.00000000000E+00  0.00000000000E+00  0.15567278133E+03  0.15567278133E+03  0.00000000000E+00 0. -1.
         21   -1    0    0  501  503 -0.00000000000E+00 -0.00000000000E+00 -0.24663115611E+03  0.24663115611E+03  0.00000000000E+00 0. -1.
          6    2    1    2  501    0 -0.68428282268E+02 -0.54029828849E+01  0.21513698168E+02  0.18584984911E+03  0.17136424705E+03 0.  0.
         24    2    3    3    0    0 -0.76607347481E+02 -0.28883139771E+00 -0.44477710078E+02  0.11899173356E+03  0.79448076438E+02 0.  0.
         -6    2    1    2    0  502  0.68428282268E+02  0.54029828849E+01 -0.11247207295E+03  0.21645408832E+03  0.17172880690E+03 0.  0.
        -24    2    5    5    0    0  0.26185179150E+01 -0.57524103021E+01  0.60621481854E+01  0.80337155276E+02  0.79858387267E+02 0.  0.
          5    1    3    3  501    0  0.81790652129E+01 -0.51141514871E+01  0.65991408246E+02  0.66858115555E+02  0.47000000000E+01 0. -1.
        -11    1    4    4    0    0 -0.14912431839E+02 -0.24805795991E+02 -0.43922869380E+02  0.52601583557E+02  0.00000000000E+00 0.  1.
         12    1    4    4    0    0 -0.61694915642E+02  0.24516964593E+02 -0.55484069796E+00  0.66390150001E+02  0.00000000000E+00 0. -1.
         -5    1    5    5    0  502  0.65809764353E+02  0.11155393187E+02 -0.11853422113E+03  0.13611693304E+03  0.47000000000E+01 0.  1.
         13    1    6    6    0    0  0.25633345912E+02  0.27394344135E+02 -0.64955179560E+01  0.38075060955E+02  0.00000000000E+00 0. -1.
        -14    1    6    6    0    0 -0.23014827997E+02 -0.33146754437E+02  0.12557666141E+02  0.42262094321E+02  0.00000000000E+00 0.  1.
</event>
<event>
12    1  0.1594900E-001  0.1934554E+03  0.7818608E-02  0.1155519E+00
         21   -1    0    0  503  502  0.00000000000E+00  0.00000000000E+00  0.21410143510E+03  0.21410143510E+03  0.00000000000E+00 0.  1.
         21   -1    0    0  501  503 -0.00000000000E+00 -0.00000000000E+00 -0.17028471635E+04  0.17028471635E+04  0.00000000000E+00 0.  1.
          6    2    1    2  501    0  0.56268654176E+02 -0.66601835505E+02 -0.16526117825E+04  0.16638962340E+04  0.17269339271E+03 0.  0.
         24    2    3    3    0    0  0.49365726980E+02 -0.11100712860E+03 -0.11252624469E+04  0.11346147473E+04  0.79846682130E+02 0.  0.
         -6    2    1    2    0  502 -0.56268654176E+02  0.66601835505E+02  0.16386605404E+03  0.25305236466E+03  0.17199258606E+03 0.  0.
        -24    2    5    5    0    0  0.18324360130E+02  0.75439303638E+02  0.12764623423E+03  0.16952881126E+03  0.80122319151E+02 0.  0.
          5    1    3    3  501    0  0.69029271959E+01  0.44405293094E+02 -0.52734933557E+03  0.52928148672E+03  0.47000000000E+01 0. -1.
        -13    1    4    4    0    0  0.66677633836E+02 -0.10502564237E+03 -0.89184241874E+03  0.90047720253E+03  0.00000000000E+00 0.  1.
         14    1    4    4    0    0 -0.17311906856E+02 -0.59814862277E+01 -0.23342002817E+03  0.23413754472E+03  0.00000000000E+00 0. -1.
         -5    1    5    5    0  502 -0.74593014306E+02 -0.88374681322E+01  0.36219819812E+02  0.83523553405E+02  0.47000000000E+01 0.  1.
         11    1    6    6    0    0 -0.26055357556E+02  0.46506787856E+02  0.38240633923E+02  0.65605709026E+02  0.00000000000E+00 0. -1.
        -12    1    6    6    0    0  0.44379717686E+02  0.28932515782E+02  0.89405600307E+02  0.10392310223E+03  0.00000000000E+00 0.  1.
</event>
<event>
12    1  0.1594900E-001  0.2914958E+03  0.7818608E-02  0.1089794E+00
         21   -1    0    0  501  502  0.00000000000E+00  0.00000000000E+00  0.63276553102E+03  0.63276553102E+03  0.00000000000E+00 0.  1.
         21   -1    0    0  502  503 -0.00000000000E+00 -0.00000000000E+00 -0.15138748308E+03  0.15138748308E+03  0.00000000000E+00 0.  1.
         -6    2    1    2    0  503  0.15185838479E+03 -0.17860164516E+03  0.10651809090E+03  0.31034804011E+03  0.17323477026E+03 0.  0.
        -24    2    3    3    0    0  0.55087536232E+02 -0.87351901917E+02 -0.17053660157E+02  0.12873531910E+03  0.74946405139E+02 0.  0.
          6    2    1    2  501    0 -0.15185838479E+03  0.17860164516E+03  0.37485995704E+03  0.47380497399E+03  0.17032806374E+03 0.  0.
         24    2    5    5    0    0 -0.42043014294E+02  0.60422693295E+02  0.67805295939E+02  0.12691834241E+03  0.78052485976E+02 0.  0.
          5    1    5    5  501    0 -0.10981537050E+03  0.11817895187E+03  0.30705466110E+03  0.34688663158E+03  0.47000000000E+01 0. -1.
        -11    1    6    6    0    0 -0.50369845921E+02  0.57623541371E+02  0.80761017905E+02  0.11126516037E+03  0.00000000000E+00 0.  1.
         12    1    6    6    0    0  0.83268316267E+01  0.27991519241E+01 -0.12955721967E+02  0.15653182044E+02  0.00000000000E+00 0. -1.
         -5    1    3    3    0  503  0.96770848561E+02 -0.91249743247E+02  0.12357175106E+03  0.18161272101E+03  0.47000000000E+01 0.  1.
         11    1    4    4    0    0  0.24204984776E+02  0.93682209437E+01 -0.12773711938E+01  0.25986083369E+02  0.00000000000E+00 0. -1.
        -12    1    4    4    0    0  0.30882551456E+02 -0.96720122861E+02 -0.15776288963E+02  0.10274923573E+03  0.00000000000E+00 0.  1.
</event>
<event>
12    1  0.1594900E-001  0.2011589E+03  0.7818608E-02  0.1149150E+00
         21   -1    0    0  503  502  0.00000000000E+00  0.00000000000E+00  0.15262505078E+03  0.15262505078E+03  0.00000000000E+00 0.  1.
         21   -1    0    0  501  503 -0.00000000000E+00 -0.00000000000E+00 -0.35575434385E+03  0.35575434385E+03  0.00000000000E+00 0.  1.
          6    2    1    2  501    0  0.41696169287E+01  0.10120345715E+03 -0.23189776649E+03  0.30698773729E+03  0.17379692545E+03 0.  0.
         24    2    3    3    0    0 -0.26380464121E+02  0.88199712214E+02 -0.64818228616E+02  0.13657627402E+03  0.77308199716E+02 0.  0.
         -6    2    1    2    0  502 -0.41696169287E+01 -0.10120345715E+03  0.28768473428E+02  0.20139165734E+03  0.17167250548E+03 0.  0.
        -24    2    5    5    0    0 -0.29615503461E+02 -0.61512954038E+01  0.54657486683E+02  0.99535201475E+02  0.77491283392E+02 0.  0.
          5    1    3    3  501    0  0.30550081050E+02  0.13003744932E+02 -0.16707953788E+03  0.17041146326E+03  0.47000000000E+01 0. -1.
        -11    1    4    4    0    0 -0.49267452868E+02  0.55993465423E+02 -0.61961782921E+02  0.96962944597E+02  0.00000000000E+00 0.  1.
         12    1    4    4    0    0  0.22886988747E+02  0.32206246790E+02 -0.28564456954E+01  0.39613329426E+02  0.00000000000E+00 0. -1.
         -5    1    5    5    0  502  0.25445886533E+02 -0.95052161742E+02 -0.25889013255E+02  0.10185645586E+03  0.47000000000E+01 0.  1.
         13    1    6    6    0    0 -0.41661047790E+02 -0.23750334474E+02  0.85189280749E+01  0.48706194946E+02  0.00000000000E+00 0. -1.
        -14    1    6    6    0    0  0.12045544328E+02  0.17599039070E+02  0.46138558608E+02  0.50829006530E+02  0.00000000000E+00 0.  1.
</event>
<event>
12    1  0.1594900E-001  0.2063469E+03  0.7818608E-02  0.1145037E+00
         21   -1    0    0  503  502  0.00000000000E+00  0.00000000000E+00  0.26687431596E+03  0.26687431596E+03  0.00000000000E+00 0.  1.
         21   -1    0    0  501  503 -0.00000000000E+00 -0.00000000000E+00 -0.19042188211E+03  0.19042188211E+03  0.00000000000E+00 0.  1.
          6    2    1    2  501    0  0.60943453643E+02 -0.97243431651E+02 -0.56654330944E+02  0.21398303056E+03  0.17148945919E+03 0.  0.
         24    2    3    3    0    0  0.96743806211E+02 -0.11137819896E+03 -0.48091672774E+02  0.17427325839E+03  0.79334055457E+02 0.  0.
         -6    2    1    2    0  502 -0.60943453643E+02  0.97243431651E+02  0.13310676480E+03  0.24331316750E+03  0.16826614961E+03 0.  0.
        -24    2    5    5    0    0 -0.69545721315E+02  0.58591398934E+02  0.18709179207E+02  0.12216500932E+03  0.79402120459E+02 0.  0.
          5    1    3    3  501    0 -0.35800352569E+02  0.14134767313E+02 -0.85626581705E+01  0.39709772172E+02  0.47000000000E+01 0. -1.
        -11    1    4    4    0    0  0.11091755003E+02 -0.67913862998E+02 -0.49833426854E+01  0.68993865820E+02  0.00000000000E+00 0.  1.
         12    1    4    4    0    0  0.85652051208E+02 -0.43464335965E+02 -0.43108330088E+02  0.10527939257E+03  0.00000000000E+00 0. -1.
         -5    1    5    5    0  502  0.86022676725E+01  0.38652032716E+02  0.11439758559E+03  0.12114815818E+03  0.47000000000E+01 0.  1.
         11    1    6    6    0    0  0.10970500876E+02  0.52581360810E+01 -0.15502960173E+02  0.19706386240E+02  0.00000000000E+00 0. -1.
        -12    1    6    6    0    0 -0.80516222192E+02  0.53333262853E+02  0.34212139380E+02  0.10245862308E+03  0.00000000000E+00 0.  1.
</event>
<event>
12    1  0.1594900E-001  0.1827523E+03  0.7818608E-02  0.1166127E+00
         21   -1    0    0  501  502  0.00000000000E+00  0.00000000000E+00  0.17406344006E+03  0.17406344006E+03  0.00000000000E+00 0. -1.
         21   -1    0    0  502  503 -0.00000000000E+00 -0.00000000000E+00 -0.20277068591E+03  0.20277068591E+03  0.00000000000E+00 0.  1.
         -6    2    1    2    0  503 -0.16636744580E+01  0.46677030025E+02 -0.65878797526E+02  0.19426379371E+03  0.17668302873E+03 0.  0.
        -24    2    3    3    0    0  0.10910508437E+02  0.60810871491E+02  0.20564369263E+02  0.10565010045E+03  0.83198853089E+02 0.  0.
          6    2    1    2  501    0  0.16636744580E+01 -0.46677030025E+02  0.37171551679E+02  0.18257033226E+03  0.17253605137E+03 0.  0.
         24    2    5    5    0    0 -0.40900970514E+01 -0.57685763256E+01  0.84917597506E+02  0.11925854534E+03  0.83436184620E+02 0.  0.
          5    1    5    5  501    0  0.57537715094E+01 -0.40908453699E+02 -0.47746045827E+02  0.63311786918E+02  0.47000000000E+01 0. -1.
        -11    1    6    6    0    0 -0.17435600803E+02 -0.22725910076E+02 -0.29357335928E+01  0.28793848229E+02  0.00000000000E+00 0.  1.
         12    1    6    6    0    0  0.13345503752E+02  0.16957333750E+02  0.87853331099E+02  0.90464697111E+02  0.00000000000E+00 0. -1.
         -5    1    3    3    0  503 -0.12574182895E+02 -0.14133841466E+02 -0.86443166789E+02  0.88613693268E+02  0.47000000000E+01 0.  1.
         11    1    4    4    0    0  0.69758732190E+01  0.70295818365E+02 -0.11867846694E+02  0.71631073368E+02  0.00000000000E+00 0. -1.
        -12    1    4    4    0    0  0.39346352182E+01 -0.94849468740E+01  0.32432215956E+02  0.34019027078E+02  0.00000000000E+00 0.  1.
</event>
<event>
12    1  0.1594900E-001  0.2053836E+03  0.7818608E-02  0.1145622E+00
         21   -1    0    0  503  502  0.00000000000E+00  0.00000000000E+00  0.89733392706E+02  0.89733392706E+02  0.00000000000E+00 0. -1.
         21   -1    0    0  501  503 -0.00000000000E+00 -0.00000000000E+00 -0.47872384568E+03  0.47872384568E+03  0.00000000000E+00 0.  1.
          6    2    1    2  501    0 -0.88176039429E+02 -0.70038137642E+02 -0.14932689750E+03  0.25393097309E+03  0.17176164334E+03 0.  0.
         24    2    3    3    0    0 -0.70854807119E+02 -0.95070097613E+02 -0.16627303623E+03  0.21877580666E+03  0.78469126742E+02 0.  0.
         -6    2    1    2    0  502  0.88176039429E+02  0.70038137642E+02 -0.23966355547E+03  0.31452626529E+03  0.16972859831E+03 0.  0.
        -24    2    5    5    0    0  0.75685039326E+02  0.93195339853E+02 -0.11493246160E+03  0.18696366546E+03  0.85629112596E+02 0.  0.
          5    1    3    3  501    0 -0.17321232310E+02  0.25031959971E+02  0.16946138730E+02  0.35155166428E+02  0.47000000000E+01 0. -1.
        -13    1    4    4    0    0  0.65122432555E+01 -0.21838957743E+02 -0.75349219167E+02  0.78720100461E+02  0.00000000000E+00 0.  1.
         14    1    4    4    0    0 -0.77367050374E+02 -0.73231139870E+02 -0.90923817064E+02  0.14005570620E+03  0.00000000000E+00 0. -1.
         -5    1    5    5    0  502  0.12491000102E+02 -0.23157202211E+02 -0.12473109387E+03  0.12756259984E+03  0.47000000000E+01 0.  1.
         13    1    6    6    0    0  0.41640216946E+02  0.99592509651E+02 -0.64399908426E+02  0.12569774800E+03  0.00000000000E+00 0. -1.
        -14    1    6    6    0    0  0.34044822381E+02 -0.63971697982E+01 -0.50532553170E+02  0.61265917460E+02  0.00000000000E+00 0.  1.
</event>
<event>
12    1  0.1594900E-001  0.1765686E+03  0.7818608E-02  0.1171866E+00
         21   -1    0    0  501  502  0.00000000000E+00  0.00000000000E+00  0.24370851423E+03  0.24370851423E+03  0.00000000000E+00 0.  1.
         21   -1    0    0  502  503 -0.00000000000E+00 -0.00000000000E+00 -0.14357120808E+03  0.14357120808E+03  0.00000000000E+00 0.  1.
         -6    2    1    2    0  503 -0.27585369467E+02  0.12033339228E+02  0.11834065891E+03  0.21255822040E+03  0.17398486039E+03 0.  0.
        -24    2    3    3    0    0 -0.66956571971E+02  0.54799051300E+02  0.87841784716E+02  0.14674584281E+03  0.79574145849E+02 0.  0.
          6    2    1    2  501    0  0.27585369467E+02 -0.12033339228E+02 -0.18203352763E+02  0.17472150191E+03  0.17114463858E+03 0.  0.
         24    2    5    5    0    0 -0.18571835704E+02 -0.54101718951E+02  0.16534185108E+02  0.10310430635E+03  0.84173687319E+02 0.  0.
          5    1    5    5  501    0  0.46157205171E+02  0.42068379722E+02 -0.34737537871E+02  0.71617195554E+02  0.47000000000E+01 0. -1.
        -13    1    6    6    0    0 -0.45842087659E+02 -0.32695804603E+02 -0.12738943986E+02  0.57730350194E+02  0.00000000000E+00 0.  1.
         14    1    6    6    0    0  0.27270251955E+02 -0.21405914348E+02  0.29273129094E+02  0.45373956161E+02  0.00000000000E+00 0. -1.
         -5    1    3    3    0  503  0.39371202504E+02 -0.42765712072E+02  0.30498874197E+02  0.65812377582E+02  0.47000000000E+01 0.  1.
         13    1    4    4    0    0 -0.19435803195E+01  0.48368532372E+02  0.19460269404E+02  0.52172737263E+02  0.00000000000E+00 0. -1.
        -14    1    4    4    0    0 -0.65012991651E+02  0.64305189284E+01  0.68381515312E+02  0.94573105551E+02  0.00000000000E+00 0.  1.
</event>
<event>
12    1  0.1594900E-001  0.1761711E+03  0.7818608E-02  0.1171612E+00
         21   -1    0    0  501  502  0.00000000000E+00  0.00000000000E+00  0.54954188129E+03  0.54954188129E+03  0.00000000000E+00 0. -1.
         21   -1    0    0  502  503 -0.00000000000E+00 -0.00000000000E+00 -0.57446124448E+02  0.57446124448E+02  0.00000000000E+00 0. -1.
         -6    2    1    2    0  503 -0.34610228261E+02 -0.19162194042E+02  0.28665524432E+03  0.33635530787E+03  0.17146021829E+03 0.  0.
        -24    2    3    3    0    0 -0.42470636064E+02  0.31623184271E+02  0.82627323585E+02  0.12590240792E+03  0.78869265275E+02 0.  0.
          6    2    1    2  501    0  0.34610228261E+02  0.19162194042E+02  0.20544051252E+03  0.27063269787E+03  0.17167176643E+03 0.  0.
         24    2    5    5    0    0 -0.27036625718E+02  0.56765345928E+02  0.14020254661E+03  0.17320367840E+03  0.79934201111E+02 0.  0.
          5    1    5    5  501    0  0.61646853980E+02 -0.37603151886E+02  0.65237965914E+02  0.97429019465E+02  0.47000000000E+01 0. -1.
        -11    1    6    6    0    0 -0.23505302230E+02  0.19093647653E+02  0.24871614594E+01  0.30385071758E+02  0.00000000000E+00 0.  1.
         12    1    6    6    0    0 -0.35313234888E+01  0.37671698275E+02  0.13771538515E+03  0.14281860664E+03  0.00000000000E+00 0. -1.
         -5    1    3    3    0  503  0.78604078027E+01 -0.50785378314E+02  0.20402792073E+03  0.21045289996E+03  0.47000000000E+01 0.  1.
         13    1    4    4    0    0 -0.19869592950E+02  0.25596232706E+02  0.94335141362E+02  0.99745108895E+02  0.00000000000E+00 0. -1.
        -14    1    4    4    0    0 -0.22601043114E+02  0.60269515659E+01 -0.11707817776E+02  0.26157299021E+02  0.00000000000E+00 0.  1.
</event>
<event>
12    1  0.1594900E-001  0.2722269E+03  0.7818608E-02  0.1100013E+00
         21   -1    0    0  503  502  0.00000000000E+00  0.00000000000E+00  0.13283548389E+03  0.13283548389E+03  0.00000000000E+00 0. -1.
         21   -1    0    0  501  503 -0.00000000000E+00 -0.00000000000E+00 -0.56712251153E+03  0.56712251153E+03  0.00000000000E+00 0.  1.
          6    2    1    2  501    0 -0.20385587568E+03 -0.53259041221E+02 -0.17245549514E+03  0.32225517608E+03  0.17237678841E+03 0.  0.
         24    2    3    3    0    0 -0.14511918714E+03  0.12134841776E+02 -0.53369458632E+02  0.17416759184E+03  0.79241517341E+02 0.  0.
         -6    2    1    2    0  502  0.20385587568E+03  0.53259041221E+02 -0.26183153250E+03  0.37770281935E+03  0.17236567180E+03 0.  0.
        -24    2    5    5    0    0  0.16608228952E+03  0.10140296629E+03 -0.20542347133E+03  0.29434431230E+03  0.81079486612E+02 0.  0.
          5    1    3    3  501    0 -0.58736688536E+02 -0.65393882997E+02 -0.11908603651E+03  0.14808758424E+03  0.47000000000E+01 0. -1.
        -13    1    4    4    0    0 -0.12862122820E+03  0.34105584058E+02 -0.59900002054E+02  0.14592676743E+03  0.00000000000E+00 0.  1.
         14    1    4    4    0    0 -0.16497958942E+02 -0.21970742282E+02  0.65305434222E+01  0.28240824405E+02  0.00000000000E+00 0. -1.
         -5    1    5    5    0  502  0.37773586159E+02 -0.48143925067E+02 -0.56408061171E+02  0.83358507048E+02  0.47000000000E+01 0.  1.
         11    1    6    6    0    0  0.15838017181E+02  0.25575157700E+02 -0.76936313538E+02  0.82608279370E+02  0.00000000000E+00 0. -1.
        -12    1    6    6    0    0  0.15024427234E+03  0.75827808587E+02 -0.12848715779E+03  0.21173603293E+03  0.00000000000E+00 0.  1.
</event>
<event>
12    1  0.1594900E-001  0.1768938E+03  0.7818608E-02  0.1171506E+00
         21   -1    0    0  503  502  0.00000000000E+00  0.00000000000E+00  0.21186431804E+03  0.21186431804E+03  0.00000000000E+00 0. -1.
         21   -1    0    0  501  503 -0.00000000000E+00 -0.00000000000E+00 -0.13433946363E+04  0.13433946363E+04  0.00000000000E+00 0. -1.
          6    2    1    2  501    0  0.37834461128E+02  0.17370757527E+02 -0.12996148495E+04  0.13112429474E+04  0.16919255419E+03 0.  0.
         24    2    3    3    0    0 -0.31359364376E+02  0.33828304294E+02 -0.94941969717E+03  0.95386727524E+03  0.79606868404E+02 0.  0.
         -6    2    1    2    0  502 -0.37834461128E+02 -0.17370757527E+02  0.16808453120E+03  0.24401600698E+03  0.17192501962E+03 0.  0.
        -24    2    5    5    0    0 -0.74107728989E+02 -0.18884506979E+02  0.50907243271E+02  0.12125343856E+03  0.79134498459E+02 0.  0.
          5    1    3    3  501    0  0.69193825504E+02 -0.16457546767E+02 -0.35019515231E+03  0.35737567213E+03  0.47000000000E+01 0. -1.
        -11    1    4    4    0    0  0.51522375173E+01 -0.20851268931E+02 -0.39113409964E+03  0.39172337800E+03  0.00000000000E+00 0.  1.
         12    1    4    4    0    0 -0.36511601894E+02  0.54679573226E+02 -0.55828559752E+03  0.56214389724E+03  0.00000000000E+00 0. -1.
         -5    1    5    5    0  502  0.36273267862E+02  0.15137494526E+01  0.11717728793E+03  0.12276256842E+03  0.47000000000E+01 0.  1.
         13    1    6    6    0    0 -0.13019877668E+02  0.76482211418E+01  0.52504930813E+02  0.54633142513E+02  0.00000000000E+00 0. -1.
        -14    1    6    6    0    0 -0.61087851321E+02 -0.26532728121E+02 -0.15976875415E+01  0.66620296052E+02  0.00000000000E+00 0.  1.
</event>
<event>
12    1  0.1594900E-001  0.1996319E+03  0.7818608E-02  0.1150854E+00
         21   -1    0    0  501  502  0.00000000000E+00  0.00000000000E+00  0.13637003429E+04  0.13637003429E+04  0.00000000000E+00 0. -1.
         21   -1    0    0  502  503 -0.00000000000E+00 -0.00000000000E+00 -0.30685969264E+02  0.30685969264E+02  0.00000000000E+00 0. -1.
         -6    2    1    2    0  503  0.10924614362E+02  0.93752197127E+02  0.48211987749E+03  0.52038726540E+03  0.17162315709E+03 0.  0.
        -24    2    3    3    0    0  0.63883275465E+02  0.35496789086E+02  0.19498520545E+03  0.22261768629E+03  0.78729340061E+02 0.  0.
          6    2    1    2  501    0 -0.10924614362E+02 -0.93752197127E+02  0.85089449613E+03  0.87399904675E+03  0.17590926216E+03 0.  0.
         24    2    5    5    0    0 -0.25442596767E+02 -0.71138255355E+02  0.25597856313E+03  0.27845793187E+03  0.79409180417E+02 0.  0.
          5    1    5    5  501    0  0.14517982406E+02 -0.22613941773E+02  0.59491593300E+03  0.59554111488E+03  0.47000000000E+01 0. -1.
        -13    1    6    6    0    0 -0.43899827895E+02 -0.11067569965E+02  0.85157380380E+02  0.96444105197E+02  0.00000000000E+00 0.  1.
         14    1    6    6    0    0  0.18457231128E+02 -0.60070685390E+02  0.17082118275E+03  0.18201382667E+03  0.00000000000E+00 0. -1.
         -5    1    3    3    0  503 -0.52958661104E+02  0.58255408042E+02  0.28713467204E+03  0.29776957911E+03  0.47000000000E+01 0.  1.
         11    1    4    4    0    0  0.28680895178E+02  0.56404533632E+02  0.90778949618E+02  0.11065659879E+03  0.00000000000E+00 0. -1.
        -12    1    4    4    0    0  0.35202380288E+02 -0.20907744546E+02  0.10420625583E+03  0.11196108750E+03  0.00000000000E+00 0.  1.
</event>
<event>
12    1  0.1594900E-001  0.2276071E+03  0.7818608E-02  0.1128478E+00
         21   -1    0    0  503  502  0.00000000000E+00  0.00000000000E+00  0.35289871127E+03  0.35289871127E+03  0.00000000000E+00 0.  1.
         21   -1    0    0  501  503 -0.00000000000E+00 -0.00000000000E+00 -0.27107744555E+03  0.27107744555E+03  0.00000000000E+00 0.  1.
          6    2    1    2  501    0 -0.86752120716E+02  0.12031016027E+03 -0.17081233461E+03  0.28393393476E+03  0.17158426659E+03 0.  0.
         24    2    3    3    0    0 -0.11618060876E+02  0.11340249674E+03 -0.62689795990E+02  0.15200434702E+03  0.78614282330E+02 0.  0.
         -6    2    1    2    0  502  0.86752120716E+02 -0.12031016027E+03  0.25263360032E+03  0.34004222205E+03  0.17263983218E+03 0.  0.
        -24    2    5    5    0    0  0.49764138064E+02 -0.24822593746E+02  0.20491606834E+03  0.22697127495E+03  0.80204326495E+02 0.  0.
          5    1    3    3  501    0 -0.75134059840E+02  0.69076635287E+01 -0.10812253862E+03  0.13192958774E+03  0.47000000000E+01 0. -1.
        -11    1    4    4    0    0 -0.57831055620E+01  0.10590810018E+03 -0.79597688700E+02  0.13261131943E+03  0.00000000000E+00 0.  1.
         12    1    4    4    0    0 -0.58349553138E+01  0.74943965612E+01  0.16907892711E+02  0.19393027594E+02  0.00000000000E+00 0. -1.
         -5    1    5    5    0  502  0.36987982652E+02 -0.95487566525E+02  0.47717531984E+02  0.11307094711E+03  0.47000000000E+01 0.  1.
         11    1    6    6    0    0  0.34289175633E+02  0.21710778028E+02  0.49547647317E+02  0.64047441814E+02  0.00000000000E+00 0. -1.
        -12    1    6    6    0    0  0.15474962430E+02 -0.46533371774E+02  0.15536842102E+03  0.16292383313E+03  0.00000000000E+00 0.  1.
</event>
<event>
12    1  0.1594900E-001  0.2150276E+03  0.7818608E-02  0.1137892E+00
         21   -1    0    0  503  502  0.00000000000E+00  0.00000000000E+00  0.59630156980E+03  0.59630156980E+03  0.00000000000E+00 0.  1.
         21   -1    0    0  501  503 -0.00000000000E+00 -0.00000000000E+00 -0.79048168224E+02  0.79048168224E+02  0.00000000000E+00 0.  1.
          6    2    1    2  501    0  0.19236411036E+02  0.12652790129E+03  0.31267492005E+03  0.37947656852E+03  0.17279326118E+03 0.  0.
         24    2    3    3    0    0  0.15970521777E+02  0.67966234880E+02  0.30141274425E+03  0.31956779279E+03  0.79996657050E+02 0.  0.
         -6    2    1    2    0  502 -0.19236411036E+02 -0.12652790129E+03  0.20457848153E+03  0.29587316951E+03  0.17119938089E+03 0.  0.
        -24    2    5    5    0    0  0.40981684406E+02 -0.72699042234E+02  0.17466779988E+03  0.20961481360E+03  0.80404481031E+02 0.  0.
          5    1    3    3  501    0  0.32658892596E+01  0.58561666414E+02  0.11262175797E+02  0.59908775731E+02  0.47000000000E+01 0. -1.
        -11    1    4    4    0    0  0.17519623089E+02  0.65211080780E+02  0.11669229073E+03  0.13482029879E+03  0.00000000000E+00 0.  1.
         12    1    4    4    0    0 -0.15491013123E+01  0.27551540995E+01  0.18472045352E+03  0.18474749400E+03  0.00000000000E+00 0. -1.
         -5    1    5    5    0  502 -0.60218095443E+02 -0.53828859060E+02  0.29910681649E+02  0.86258355904E+02  0.47000000000E+01 0.  1.
         13    1    6    6    0    0 -0.33002939235E+01  0.10452236504E+02 -0.22483883960E+00  0.10963199370E+02  0.00000000000E+00 0. -1.
        -14    1    6    6    0    0  0.44281978330E+02 -0.83151278738E+02  0.17489263872E+03  0.19865161423E+03  0.00000000000E+00 0.  1.
</event>
<event>
12    1  0.1594900E-001  0.1868219E+03  0.7818608E-02  0.1161485E+00
         21   -1    0    0  503  502  0.00000000000E+00  0.00000000000E+00  0.15886496075E+04  0.15886496075E+04  0.00000000000E+00 0. -1.
         21   -1    0    0  501  503 -0.00000000000E+00 -0.00000000000E+00 -0.43226168912E+02  0.43226168912E+02  0.00000000000E+00 0.  1.
          6    2    1    2  501    0 -0.48109349583E+02  0.52705047755E+02  0.20024960018E+03  0.27386552455E+03  0.17265599204E+03 0.  0.
         24    2    3    3    0    0 -0.72354065028E+02  0.19735953002E+02  0.20496942959E+03  0.23240308099E+03  0.79838001101E+02 0.  0.
         -6    2    1    2    0  502  0.48109349583E+02 -0.52705047755E+02  0.13451738384E+04  0.13580102519E+04  0.17206643211E+03 0.  0.
        -24    2    5    5    0    0  0.62097767181E+02 -0.52627641314E+01  0.44404933311E+03  0.45551708838E+03  0.80200861524E+02 0.  0.
          5    1    3    3  501    0  0.24244715445E+02  0.32969094752E+02 -0.47198294130E+01  0.41462443554E+02  0.47000000000E+01 0. -1.
        -11    1    4    4    0    0 -0.34879439657E+02  0.18361606674E+02  0.21022993727E+02  0.44673148263E+02  0.00000000000E+00 0.  1.
         12    1    4    4    0    0 -0.37474625371E+02  0.13743463282E+01  0.18394643587E+03  0.18772993273E+03  0.00000000000E+00 0. -1.
         -5    1    5    5    0  502 -0.13988417597E+02 -0.47442283623E+02  0.90112450533E+03  0.90249316353E+03  0.47000000000E+01 0.  1.
         11    1    6    6    0    0  0.37339114546E+02  0.20761041088E+02  0.37734926242E+03  0.37976005075E+03  0.00000000000E+00 0. -1.
        -12    1    6    6    0    0  0.24758652635E+02 -0.26023805219E+02  0.66700070697E+02  0.75757037623E+02  0.00000000000E+00 0.  1.
</event>
<event>
12    1  0.1594900E-001  0.2246297E+03  0.7818608E-02  0.1130524E+00
         21   -1    0    0  503  502  0.00000000000E+00  0.00000000000E+00  0.55680455494E+02  0.55680455494E+02  0.00000000000E+00 0. -1.
         21   -1    0    0  501  503 -0.00000000000E+00 -0.00000000000E+00 -0.98338173160E+03  0.98338173160E+03  0.00000000000E+00 0.  1.
          6    2    1    2  501    0  0.12575610044E+03  0.72657614191E+02 -0.61011323568E+03  0.65006260502E+03  0.17102486486E+03 0.  0.
         24    2    3    3    0    0  0.13696388120E+03  0.83695944139E+02 -0.38642981142E+03  0.42577746650E+03  0.78704104075E+02 0.  0.
         -6    2    1    2    0  502 -0.12575610044E+03 -0.72657614191E+02 -0.31758804043E+03  0.38899958208E+03  0.17136156434E+03 0.  0.
        -24    2    5    5    0    0 -0.11449909607E+03 -0.76553272767E+02 -0.14280959176E+03  0.21375263510E+03  0.79530893014E+02 0.  0.
          5    1    3    3  501    0 -0.11207780763E+02 -0.11038329948E+02 -0.22368342425E+03  0.22428513852E+03  0.47000000000E+01 0. -1.
        -13    1    4    4    0    0  0.39298430240E+02  0.18725056669E+02 -0.20614100784E+03  0.21068723141E+03  0.00000000000E+00 0.  1.
         14    1    4    4    0    0  0.97665450963E+02  0.64970887470E+02 -0.18028880358E+03  0.21509023508E+03  0.00000000000E+00 0. -1.
         -5    1    5    5    0  502 -0.11257004372E+02  0.38956585754E+01 -0.17477844868E+03  0.17524694698E+03  0.47000000000E+01 0.  1.
         13    1    6    6    0    0 -0.10198339580E+03 -0.89504532276E+02 -0.14094559204E+03  0.19564594101E+03  0.00000000000E+00 0. -1.
        -14    1    6    6    0    0 -0.12515700265E+02  0.12951259509E+02 -0.18639997131E+01  0.18106694091E+02  0.00000000000E+00 0.  1.
</event>
<event>
12    1  0.1594900E-001  0.2637548E+03  0.7818608E-02  0.1104964E+00
         21   -1    0    0  503  502  0.00000000000E+00  0.00000000000E+00  0.27555503325E+03  0.27555503325E+03  0.00000000000E+00 0.  1.
         21   -1    0    0  501  503 -0.00000000000E+00 -0.00000000000E+00 -0.44544275785E+03  0.44544275785E+03  0.00000000000E+00 0.  1.
          6    2    1    2  501    0 -0.12469092718E+03  0.15588047065E+03 -0.32248544298E+03  0.41660946582E+03  0.17239500466E+03 0.  0.
         24    2    3    3    0    0 -0.93818280082E+01  0.10122638606E+03 -0.11768104436E+03  0.17525870653E+03  0.80820703319E+02 0.  0.
         -6    2    1    2    0  502  0.12469092718E+03 -0.15588047065E+03  0.15259771837E+03  0.30438832528E+03  0.17181280646E+03 0.  0.
        -24    2    5    5    0    0  0.24629934261E+02 -0.20405950363E+02  0.91089832665E+02  0.12502596035E+03  0.79442411053E+02 0.  0.
          5    1    3    3  501    0 -0.11530909917E+03  0.54654084594E+02 -0.20480439862E+03  0.24135075929E+03  0.47000000000E+01 0. -1.
        -13    1    4    4    0    0 -0.34687391635E+02  0.67757747253E+02 -0.10811416513E+03  0.13222329656E+03  0.00000000000E+00 0.  1.
         14    1    4    4    0    0  0.25305563627E+02  0.33468638803E+02 -0.95668792285E+01  0.43035409978E+02  0.00000000000E+00 0. -1.
         -5    1    5    5    0  502  0.10006099292E+03 -0.13547452029E+03  0.61507885710E+02  0.17936236493E+03  0.47000000000E+01 0.  1.
         13    1    6    6    0    0  0.28632223322E+00 -0.63605548978E+01 -0.14459333711E+02  0.15799081315E+02  0.00000000000E+00 0. -1.
        -14    1    6    6    0    0  0.24343612028E+02 -0.14045395465E+02  0.10554916638E+03  0.10922687903E+03  0.00000000000E+00 0.  1.
</event>
<event>
12    1  0.1594900E-001  0.1718676E+03  0.7818608E-02  0.1177522E+00
         21   -1    0    0  501  502  0.00000000000E+00  0.00000000000E+00  0.11110111443E+03  0.11110111443E+03  0.00000000000E+00 0.  1.
         21   -1    0    0  502  503 -0.00000000000E+00 -0.00000000000E+00 -0.34567649340E+03  0.34567649340E+03  0.00000000000E+00 0.  1.
         -6    2    1    2    0  503  0.82470339016E+01 -0.51798547925E+01 -0.23171797266E+03  0.28488628411E+03  0.16544525244E+03 0.  0.
        -24    2    3    3    0    0 -0.57089964435E+01 -0.64135414090E+02 -0.11975093147E+03  0.15749226122E+03  0.79483223225E+02 0.  0.
          6    2    1    2  501    0 -0.82470339016E+01  0.51798547925E+01 -0.28574063070E+01  0.17189132372E+03  0.17159142734E+03 0.  0.
         24    2    5    5    0    0 -0.66486723428E+02  0.29524491732E+02  0.34833389898E+01  0.10827671978E+03  0.80121996924E+02 0.  0.
          5    1    5    5  501    0  0.58239689526E+02 -0.24344636940E+02 -0.63407452968E+01  0.63614603943E+02  0.47000000000E+01 0. -1.
        -11    1    6    6    0    0 -0.18834610207E+02 -0.51675640400E+01  0.36002167270E+02  0.40958543771E+02  0.00000000000E+00 0.  1.
         12    1    6    6    0    0 -0.47652113221E+02  0.34692055772E+02 -0.32518828280E+02  0.67318176007E+02  0.00000000000E+00 0. -1.
         -5    1    3    3    0  503  0.13956030345E+02  0.58955559297E+02 -0.11196704119E+03  0.12739402289E+03  0.47000000000E+01 0.  1.
         11    1    4    4    0    0 -0.31341951141E+02 -0.52200312667E+02 -0.39932080438E+02  0.72813196551E+02  0.00000000000E+00 0. -1.
        -12    1    4    4    0    0  0.25632954698E+02 -0.11935101423E+02 -0.79818851034E+02  0.84679064667E+02  0.00000000000E+00 0.  1.
</event>
<event>
12    1  0.1594900E-001  0.1976803E+03  0.7818608E-02  0.1152078E+00
         21   -1    0    0  503  502  0.00000000000E+00  0.00000000000E+00  0.10164308707E+03  0.10164308707E+03  0.00000000000E+00 0. -1.
         21   -1    0    0  501  503 -0.00000000000E+00 -0.00000000000E+00 -0.61237508258E+03  0.61237508258E+03  0.00000000000E+00 0.  1.
          6    2    1    2  501    0 -0.54580406106E+02  0.75035143740E+02 -0.47405224922E+03  0.51296364268E+03  0.17261769954E+03 0.  0.
         24    2    3    3    0    0 -0.49667184037E+02  0.10985124309E+03 -0.27241088523E+03  0.30822568773E+03  0.79128120194E+02 0.  0.
         -6    2    1    2    0  502  0.54580406106E+02 -0.75035143740E+02 -0.36679746281E+02  0.20105452697E+03  0.17455149813E+03 0.  0.
        -24    2    5    5    0    0  0.43696983013E+02  0.92878132523E+01 -0.63791950605E+02  0.11169026343E+03  0.80060053607E+02 0.  0.
          5    1    3    3  501    0 -0.49132220693E+01 -0.34816099353E+02 -0.20164136400E+03  0.20473795496E+03  0.47000000000E+01 0. -1.
        -11    1    4    4    0    0 -0.51058366145E+02  0.52045169827E+02 -0.21381354646E+03  0.22590238844E+03  0.00000000000E+00 0.  1.
         12    1    4    4    0    0  0.13911821079E+01  0.57806073266E+02 -0.58597338769E+02  0.82323299283E+02  0.00000000000E+00 0. -1.
         -5    1    5    5    0  502  0.10883423093E+02 -0.84322956992E+02  0.27112204324E+02  0.89364263536E+02  0.47000000000E+01 0.  1.
         13    1    6    6    0    0  0.32000114001E+02 -0.26615699906E+02 -0.51459505507E+01  0.41939046063E+02  0.00000000000E+00 0. -1.
        -14    1    6    6    0    0  0.11696869012E+02  0.35903513159E+02 -0.58646000054E+02  0.69751217367E+02  0.00000000000E+00 0.  1.
</event>
<event>
12    1  0.1594900E-001  0.2916935E+03  0.7818608E-02  0.1089715E+00
         21   -1    0    0  503  502  0.00000000000E+00  0.00000000000E+00  0.12248033977E+03  0.12248033977E+03  0.00000000000E+00 0. -1.
         21   -1    0    0  501  503 -0.00000000000E+00 -0.00000000000E+00 -0.69785643202E+03  0.69785643202E+03  0.00000000000E+00 0.  1.
          6    2    1    2  501    0 -0.12976784017E+03 -0.19572704254E+03 -0.24373606744E+03  0.37866924881E+03  0.16980683703E+03 0.  0.
         24    2    3    3    0    0 -0.36288581355E+02 -0.16406657960E+03 -0.12810671509E+03  0.22657390415E+03  0.81790585731E+02 0.  0.
         -6    2    1    2    0  502  0.12976784017E+03  0.19572704254E+03 -0.33164002481E+03  0.44166752297E+03  0.17302117578E+03 0.  0.
        -24    2    5    5    0    0  0.11145520134E+03  0.14523010957E+03 -0.14342814259E+03  0.24588423566E+03  0.79833443042E+02 0.  0.
          5    1    3    3  501    0 -0.93479258816E+02 -0.31660462938E+02 -0.11562935235E+03  0.15209534466E+03  0.47000000000E+01 0. -1.
        -13    1    4    4    0    0 -0.10814233570E+02 -0.10076405120E+03 -0.12120389603E+03  0.15798963914E+03  0.00000000000E+00 0.  1.
         14    1    4    4    0    0 -0.25474347785E+02 -0.63302528400E+02 -0.69028190594E+01  0.68584265017E+02  0.00000000000E+00 0. -1.
         -5    1    5    5    0  502  0.18312638830E+02  0.50496932963E+02 -0.18821188222E+03  0.19578328731E+03  0.47000000000E+01 0.  1.
         11    1    6    6    0    0  0.64371612343E+01  0.69246438917E+02 -0.58893363253E+02  0.91131413808E+02  0.00000000000E+00 0. -1.
        -12    1    6    6    0    0  0.10501804011E+03  0.75983670657E+02 -0.84534779333E+02  0.15475282185E+03  0.00000000000E+00 0.  1.
</event>
<event>
12    1  0.1594900E-001  0.1810791E+03  0.7818608E-02  0.1167503E+00
         21   -1    0    0  501  502  0.00000000000E+00  0.00000000000E+00  0.64081308278E+03  0.64081308278E+03  0.00000000000E+00 0.  1.
         21   -1    0    0  502  503 -0.00000000000E+00 -0.00000000000E+00 -0.77978106651E+02  0.77978106651E+02  0.00000000000E+00 0.  1.
         -6    2    1    2    0  503 -0.38929149701E+01  0.46778422623E+02  0.68883744228E+02  0.19373849609E+03  0.17488927651E+03 0.  0.
        -24    2    3    3    0    0  0.32114998531E+02  0.69494529817E+02  0.93003290218E+02  0.14458126001E+03  0.79957901104E+02 0.  0.
          6    2    1    2  501    0  0.38929149701E+01 -0.46778422623E+02  0.49395123190E+03  0.52505269333E+03  0.17172401019E+03 0.  0.
         24    2    5    5    0    0  0.64992259811E+02 -0.49906927596E+02  0.28797575058E+03  0.31013199543E+03  0.80852497861E+02 0.  0.
          5    1    5    5  501    0 -0.61099344841E+02  0.31285049725E+01  0.20597548132E+03  0.21492069791E+03  0.47000000000E+01 0. -1.
        -11    1    6    6    0    0 -0.93843162765E+01 -0.30820455453E+02  0.13717024575E+03  0.14090295308E+03  0.00000000000E+00 0.  1.
         12    1    6    6    0    0  0.74376576088E+02 -0.19086472143E+02  0.15080550483E+03  0.16922904235E+03  0.00000000000E+00 0. -1.
         -5    1    3    3    0  503 -0.36007913501E+02 -0.22716107194E+02 -0.24119545990E+02  0.49157236085E+02  0.47000000000E+01 0.  1.
         11    1    4    4    0    0  0.38083619925E+02 -0.14299346678E+01  0.43776165490E+02  0.58041015539E+02  0.00000000000E+00 0. -1.
        -12    1    4    4    0    0 -0.59686213938E+01  0.70924464485E+02  0.49227124727E+02  0.86540244468E+02  0.00000000000E+00 0.  1.
</event>
<event>
12    1  0.1594900E-001  0.1785761E+03  0.7818608E-02  0.1169190E+00
         21   -1    0    0  501  502  0.00000000000E+00  0.00000000000E+00  0.21404908292E+03  0.21404908292E+03  0.00000000000E+00 0.  1.
         21   -1    0    0  502  503 -0.00000000000E+00 -0.00000000000E+00 -0.14917023117E+03  0.14917023117E+03  0.00000000000E+00 0.  1.
         -6    2    1    2    0  503  0.26314453697E+02 -0.36513144091E+02  0.39008672235E+02  0.18278702648E+03  0.17281134331E+03 0.  0.
        -24    2    3    3    0    0  0.75444968973E+02 -0.16504313363E+02  0.58476106036E+02  0.12608401230E+03  0.80705560387E+02 0.  0.
          6    2    1    2  501    0 -0.26314453697E+02  0.36513144091E+02  0.25870179513E+02  0.18043228760E+03  0.17280302097E+03 0.  0.
         24    2    5    5    0    0  0.24557246255E+02  0.13094250449E+02 -0.41209209922E+02  0.92921665835E+02  0.78496619422E+02 0.  0.
          5    1    5    5  501    0 -0.50871699952E+02  0.23418893642E+02  0.67079389435E+02  0.87510621769E+02  0.47000000000E+01 0. -1.
        -13    1    6    6    0    0  0.26205204750E+02 -0.11496784613E+02  0.14444277456E+02  0.32055045837E+02  0.00000000000E+00 0.  1.
         14    1    6    6    0    0 -0.16479584945E+01  0.24591035062E+02 -0.55653487378E+02  0.60866619998E+02  0.00000000000E+00 0. -1.
         -5    1    3    3    0  503 -0.49130515276E+02 -0.20008830727E+02 -0.19467433801E+02  0.56703014180E+02  0.47000000000E+01 0.  1.
         13    1    4    4    0    0  0.65729996570E+02  0.17419830034E+02  0.14200009582E+02  0.69465985918E+02  0.00000000000E+00 0. -1.
        -14    1    4    4    0    0  0.97149724030E+01 -0.33924143397E+02  0.44276096454E+02  0.56618026381E+02  0.00000000000E+00 0.  1.
</event>
<event>
12    1  0.1594900E-001  0.1915768E+03  0.7818608E-02  0.1157948E+00
         21   -1    0    0  503  502  0.00000000000E+00  0.00000000000E+00  0.65830755718E+03  0.65830755718E+03  0.00000000000E+00 0.  1.
         21   -1    0    0  501  503 -0.00000000000E+00 -0.00000000000E+00 -0.20414575512E+03  0.20414575512E+03  0.00000000000E+00 0. -1.
          6    2    1    2  501    0 -0.73561208794E+02 -0.22352826549E+02 -0.14264039787E+03  0.23565626941E+03  0.17110433635E+03 0.  0.
         24    2    3    3    0    0  0.92833148634E+01  0.26688264442E+02 -0.94948180409E+02  0.12811613127E+03  0.81241262517E+02 0.  0.
         -6    2    1    2    0  502  0.73561208794E+02  0.22352826549E+02  0.59680219992E+03  0.62679704289E+03  0.17547298040E+03 0.  0.
        -24    2    5    5    0    0  0.11725330067E+03  0.24193882561E+02  0.51609861724E+03  0.53488650684E+03  0.73567057928E+02 0.  0.
          5    1    3    3  501    0 -0.82844523657E+02 -0.49041090991E+02 -0.47692217457E+02  0.10754013814E+03  0.47000000000E+01 0. -1.
        -13    1    4    4    0    0  0.15851276028E+02  0.17459968817E+02  0.77287894937E+01  0.24816277921E+02  0.00000000000E+00 0.  1.
         14    1    4    4    0    0 -0.65679611645E+01  0.92282956257E+01 -0.10267696990E+03  0.10329985335E+03  0.00000000000E+00 0. -1.
         -5    1    5    5    0  502 -0.43692091873E+02 -0.18410560118E+01  0.80703582678E+02  0.91910536047E+02  0.47000000000E+01 0.  1.
         13    1    6    6    0    0  0.70636206199E+02 -0.21417157035E+02  0.23490397513E+03  0.24622763000E+03  0.00000000000E+00 0. -1.
        -14    1    6    6    0    0  0.46617094468E+02  0.45611039595E+02  0.28119464211E+03  0.28865887685E+03  0.00000000000E+00 0.  1.
</event>
<event>
12    1  0.1594900E-001  0.1813562E+03  0.7818608E-02  0.1167242E+00
         21   -1    0    0  501  502  0.00000000000E+00  0.00000000000E+00  0.78419354409E+03  0.78419354409E+03  0.00000000000E+00 0.  1.
         21   -1    0    0  502  503 -0.00000000000E+00 -0.00000000000E+00 -0.44521127924E+02  0.44521127924E+02  0.00000000000E+00 0.  1.
         -6    2    1    2    0  503 -0.14577097501E+02  0.58012490795E+02  0.25427703617E+03  0.31054603865E+03  0.16794073400E+03 0.  0.
        -24    2    3    3    0    0  0.45402186175E+02  0.22612135474E+02  0.20214610371E+03  0.22342300067E+03  0.80511631478E+02 0.  0.
          6    2    1    2  501    0  0.14577097501E+02 -0.58012490795E+02  0.48539538000E+03  0.51816863337E+03  0.17120781766E+03 0.  0.
         24    2    5    5    0    0  0.67594003574E+02 -0.67448675873E+02  0.37374341388E+03  0.39411991127E+03  0.80796607849E+02 0.  0.
          5    1    5    5  501    0 -0.53016906073E+02  0.94361850775E+01  0.11165196612E+03  0.12404872210E+03  0.47000000000E+01 0. -1.
        -11    1    6    6    0    0  0.15079122099E+02 -0.45330593632E+02  0.67951648655E+02  0.83064247406E+02  0.00000000000E+00 0.  1.
         12    1    6    6    0    0  0.52514881475E+02 -0.22118082241E+02  0.30579176523E+03  0.31105566386E+03  0.00000000000E+00 0. -1.
         -5    1    3    3    0  503 -0.59979283676E+02  0.35400355321E+02  0.52130932464E+02  0.87123037979E+02  0.47000000000E+01 0.  1.
         11    1    4    4    0    0 -0.18587895322E+02 -0.85175615835E+01  0.74793035440E+02  0.77537454551E+02  0.00000000000E+00 0. -1.
        -12    1    4    4    0    0  0.63990081497E+02  0.31129697058E+02  0.12735306827E+03  0.14588554612E+03  0.00000000000E+00 0.  1.
</event>
<event>
12    1  0.1594900E-001  0.1769405E+03  0.7818608E-02  0.1173515E+00
         21   -1    0    0  503  502  0.00000000000E+00  0.00000000000E+00  0.39969919565E+03  0.39969919565E+03  0.00000000000E+00 0.  1.
         21   -1    0    0  501  503 -0.00000000000E+00 -0.00000000000E+00 -0.77133587712E+02  0.77133587712E+02  0.00000000000E+00 0.  1.
          6    2    1    2  501    0  0.38238046091E+02 -0.10961604919E+02  0.11573846687E+03  0.21143159886E+03  0.17241120419E+03 0.  0.
         24    2    3    3    0    0  0.58652899128E+01  0.13475515625E+02  0.14238678540E+03  0.16267310131E+03  0.77282275369E+02 0.  0.
         -6    2    1    2    0  502 -0.38238046091E+02  0.10961604919E+02  0.20682714107E+03  0.26540118450E+03  0.16148689576E+03 0.  0.
        -24    2    5    5    0    0 -0.54478731292E+01  0.61937215568E+02  0.15585152814E+03  0.18606448784E+03  0.80401472743E+02 0.  0.
          5    1    3    3  501    0  0.32372756178E+02 -0.24437120544E+02 -0.26648318526E+02  0.48758497550E+02  0.47000000000E+01 0. -1.
        -13    1    4    4    0    0 -0.63564600604E+01 -0.17095890356E+02  0.12324865822E+03  0.12459095394E+03  0.00000000000E+00 0.  1.
         14    1    4    4    0    0  0.12221749973E+02  0.30571405981E+02  0.19138127179E+02  0.38082147366E+02  0.00000000000E+00 0. -1.
         -5    1    5    5    0  502 -0.32790172962E+02 -0.50975610648E+02  0.50975612931E+02  0.79336696664E+02  0.47000000000E+01 0.  1.
         13    1    6    6    0    0  0.27298783200E+02  0.49432598013E+01  0.85022436864E+02  0.89434188943E+02  0.00000000000E+00 0. -1.
        -14    1    6    6    0    0 -0.32746656329E+02  0.56993955766E+02  0.70829091272E+02  0.96630298898E+02  0.00000000000E+00 0.  1.
</event>
<event>
12    1  0.1594900E-001  0.2127940E+03  0.7818608E-02  0.1139516E+00
         21   -1    0    0  503  502  0.00000000000E+00  0.00000000000E+00  0.40805083155E+03  0.40805083155E+03  0.00000000000E+00 0.  1.
         21   -1    0    0  501  503 -0.00000000000E+00 -0.00000000000E+00 -0.28214640085E+03  0.28214640085E+03  0.00000000000E+00 0. -1.
          6    2    1    2  501    0 -0.70448528640E+02 -0.10237511664E+03 -0.20619028862E+03  0.29577592161E+03  0.17182927861E+03 0.  0.
         24    2    3    3    0    0 -0.15927614920E+02  0.37225768781E+01 -0.39118116683E+02  0.90436078327E+02  0.79880602869E+02 0.  0.
         -6    2    1    2    0  502  0.70448528640E+02  0.10237511664E+03  0.33209471932E+03  0.39442131079E+03  0.17273565964E+03 0.  0.
        -24    2    5    5    0    0  0.98377650801E+02  0.23777370363E+02  0.18202921397E+03  0.22266745354E+03  0.78756806743E+02 0.  0.
          5    1    3    3  501    0 -0.54520913721E+02 -0.10609769352E+03 -0.16707217193E+03  0.20533984328E+03  0.47000000000E+01 0. -1.
        -11    1    4    4    0    0  0.13568758520E+02  0.81384631658E+01  0.19232753683E+02  0.24904710493E+02  0.00000000000E+00 0.  1.
         12    1    4    4    0    0 -0.29496373440E+02 -0.44158862877E+01 -0.58350870366E+02  0.65531367834E+02  0.00000000000E+00 0. -1.
         -5    1    5    5    0  502 -0.27929122161E+02  0.78597746279E+02  0.15006550536E+03  0.17175385726E+03  0.47000000000E+01 0.  1.
         11    1    6    6    0    0  0.54604873018E+02  0.52172094308E+02  0.97436585263E+02  0.12327817215E+03  0.00000000000E+00 0. -1.
        -12    1    6    6    0    0  0.43772777783E+02 -0.28394723945E+02  0.84592628703E+02  0.99389281382E+02  0.00000000000E+00 0.  1.
</event>
<event>
12    1  0.1594900E-001  0.2131334E+03  0.7818608E-02  0.1139816E+00
         21   -1    0    0  503  502  0.00000000000E+00  0.00000000000E+00  0.33132589493E+03  0.33132589493E+03  0.00000000000E+00 0. -1.
         21   -1    0    0  501  503 -0.00000000000E+00 -0.00000000000E+00 -0.13488835091E+03  0.13488835091E+03  0.00000000000E+00 0. -1.
          6    2    1    2  501    0  0.27184076408E+02  0.12036294861E+03  0.10537685738E+03  0.23776062673E+03  0.17378037905E+03 0.  0.
         24    2    3    3    0    0 -0.50875440048E+02  0.36871060395E+02  0.39522168971E+02  0.10576398475E+03  0.75340780034E+02 0.  0.
         -6    2    1    2    0  502 -0.27184076408E+02 -0.12036294861E+03  0.91060686640E+02  0.22845361910E+03  0.16933042852E+03 0.  0.
        -24    2    5    5    0    0 -0.20442381618E+01  0.34007980402E+01  0.57339380020E+02  0.97653416610E+02  0.78947076815E+02 0.  0.
          5    1    3    3  501    0  0.78059516456E+02  0.83491888215E+02  0.65854688411E+02  0.13199664198E+03  0.47000000000E+01 0. -1.
        -13    1    4    4    0    0 -0.46485001044E+02  0.30701209986E+02 -0.91947465451E+01  0.56462049030E+02  0.00000000000E+00 0.  1.
         14    1    4    4    0    0 -0.43904390044E+01  0.61698504091E+01  0.48716915516E+02  0.49301935724E+02  0.00000000000E+00 0. -1.
         -5    1    5    5    0  502 -0.25139838246E+02 -0.12376374665E+03  0.33721306620E+02  0.13080020249E+03  0.47000000000E+01 0.  1.
         13    1    6    6    0    0 -0.25702510079E+01 -0.82255223923E+01 -0.18772941685E+02  0.20656445686E+02  0.00000000000E+00 0. -1.
        -14    1    6    6    0    0  0.52601284609E+00  0.11626320432E+02  0.76112321705E+02  0.76996970925E+02  0.00000000000E+00 0.  1.
</event>
<event>
12    1  0.1594900E-001  0.1962384E+03  0.7818608E-02  0.1153268E+00
         21   -1    0    0  503  502  0.00000000000E+00  0.00000000000E+00  0.12157123093E+03  0.12157123093E+03  0.00000000000E+00 0.  1.
         21   -1    0    0  501  503 -0.00000000000E+00 -0.00000000000E+00 -0.42835508671E+03  0.42835508671E+03  0.00000000000E+00 0.  1.
          6    2    1    2  501    0  0.23406718603E+02  0.89233151715E+02 -0.29561939035E+03  0.35482437197E+03  0.17320242825E+03 0.  0.
         24    2    3    3    0    0 -0.33650317426E+02  0.76467636516E+02 -0.11015304255E+03  0.16030362781E+03  0.81141339713E+02 0.  0.
         -6    2    1    2    0  502 -0.23406718603E+02 -0.89233151715E+02 -0.11164465424E+02  0.19510194568E+03  0.17155084983E+03 0.  0.
        -24    2    5    5    0    0  0.81741580518E+01 -0.90894598596E+01 -0.49797267634E+02  0.10057709962E+03  0.86524851716E+02 0.  0.
          5    1    3    3  501    0  0.57057036029E+02  0.12765515199E+02 -0.18546634780E+03  0.19452074416E+03  0.47000000000E+01 0. -1.
        -11    1    4    4    0    0 -0.27370462083E+02  0.22308257970E+02 -0.98380036276E+02  0.10452479182E+03  0.00000000000E+00 0.  1.
         12    1    4    4    0    0 -0.62798553435E+01  0.54159378546E+02 -0.11773006272E+02  0.55778835989E+02  0.00000000000E+00 0. -1.
         -5    1    5    5    0  502 -0.31580876655E+02 -0.80143691856E+02  0.38632802210E+02  0.94524846052E+02  0.47000000000E+01 0.  1.
         13    1    6    6    0    0 -0.24335389579E+02  0.28635535953E+02 -0.20897756674E+02  0.42999085330E+02  0.00000000000E+00 0. -1.
        -14    1    6    6    0    0  0.32509547630E+02 -0.37724995812E+02 -0.28899510960E+02  0.57578014293E+02  0.00000000000E+00 0.  1.
</event>
<event>
12    1  0.1594900E-001  0.2139115E+03  0.7818608E-02  0.1138657E+00
         21   -1    0    0  501  502  0.00000000000E+00  0.00000000000E+00  0.35134533294E+03  0.35134533294E+03  0.00000000000E+00 0.  1.
         21   -1    0    0  502  503 -0.00000000000E+00 -0.00000000000E+00 -0.12980073834E+03  0.12980073834E+03  0.00000000000E+00 0.  1.
         -6    2    1    2    0  503 -0.69960993234E+02  0.10411746516E+03  0.11511558570E+03  0.24291920834E+03  0.17327191516E+03 0.  0.
        -24    2    3    3    0    0 -0.11387357296E+03  0.61779224701E+02  0.89995652730E+02  0.17678342153E+03  0.79807878016E+02 0.  0.
          6    2    1    2  501    0  0.69960993234E+02 -0.10411746516E+03  0.10642900890E+03  0.23822686295E+03  0.17230762365E+03 0.  0.
         24    2    5    5    0    0  0.97528511187E+02 -0.48281929860E+02  0.11209429887E+03  0.17552311060E+03  0.80001720409E+02 0.  0.
          5    1    5    5  501    0 -0.27567517954E+02 -0.55835535305E+02 -0.56652899694E+01  0.62703752354E+02  0.47000000000E+01 0. -1.
        -13    1    6    6    0    0  0.97916288078E+01 -0.16236999025E+02 -0.10284994113E+02  0.21570749545E+02  0.00000000000E+00 0.  1.
         14    1    6    6    0    0  0.87736882379E+02 -0.32044930836E+02  0.12237929298E+03  0.15395236105E+03  0.00000000000E+00 0. -1.
         -5    1    3    3    0  503  0.43912579731E+02  0.42338240464E+02  0.25119932971E+02  0.66135786808E+02  0.47000000000E+01 0.  1.
         13    1    4    4    0    0 -0.81242719214E+02  0.15892310168E+02  0.87452878198E+02  0.12041989392E+03  0.00000000000E+00 0. -1.
        -14    1    4    4    0    0 -0.32630853751E+02  0.45886914533E+02  0.25427745321E+01  0.56363527606E+02  0.00000000000E+00 0.  1.
</event>
<event>
12    1  0.1594900E-001  0.1765421E+03  0.7818608E-02  0.1171380E+00
         21   -1    0    0  503  502  0.00000000000E+00  0.00000000000E+00  0.42468955178E+03  0.42468955178E+03  0.00000000000E+00 0.  1.
         21   -1    0    0  501  503 -0.00000000000E+00 -0.00000000000E+00 -0.30604458369E+03  0.30604458369E+03  0.00000000000E+00 0.  1.
          6    2    1    2  501    0  0.32118718567E+02 -0.12561466486E+02 -0.25948530054E+03  0.31342175653E+03  0.17236929469E+03 0.  0.
         24    2    3    3    0    0 -0.45128446591E+02  0.14788825152E+02 -0.12438105514E+03  0.15533820235E+03  0.80025147245E+02 0.  0.
         -6    2    1    2    0  502 -0.32118718567E+02  0.12561466486E+02  0.37813026862E+03  0.41731237894E+03  0.17314074923E+03 0.  0.
        -24    2    5    5    0    0 -0.31300444093E+02  0.67522325610E+02  0.31496244945E+03  0.33344564544E+03  0.80284940324E+02 0.  0.
          5    1    3    3  501    0  0.77247165158E+02 -0.27350291638E+02 -0.13510424540E+03  0.15808355418E+03  0.47000000000E+01 0. -1.
        -13    1    4    4    0    0 -0.30006137199E+02  0.25008454078E+02 -0.11116356040E+02  0.40612367778E+02  0.00000000000E+00 0.  1.
         14    1    4    4    0    0 -0.15122309392E+02 -0.10219628925E+02 -0.11326469910E+03  0.11472583457E+03  0.00000000000E+00 0. -1.
         -5    1    5    5    0  502 -0.81827447427E+00 -0.54960859125E+02  0.63167819175E+02  0.83866733501E+02  0.47000000000E+01 0.  1.
         13    1    6    6    0    0 -0.19159365539E+02  0.50841150318E+02  0.75073473022E+02  0.92671086133E+02  0.00000000000E+00 0. -1.
        -14    1    6    6    0    0 -0.12141078554E+02  0.16681175293E+02  0.23988897643E+03  0.24077455931E+03  0.00000000000E+00 0.  1.
</event>
<event>
12    1  0.1594900E-001  0.1996056E+03  0.7818608E-02  0.1150248E+00
         21   -1    0    0  503  502  0.00000000000E+00  0.00000000000E+00  0.47675039739E+03  0.47675039739E+03  0.00000000000E+00 0. -1.
         21   -1    0    0  501  503 -0.00000000000E+00 -0.00000000000E+00 -0.26732532429E+03  0.26732532429E+03  0.00000000000E+00 0. -1.
          6    2    1    2  501    0 -0.10099837130E+03 -0.11432170834E+01 -0.20409739140E+03  0.28489902059E+03  0.17120084347E+03 0.  0.
         24    2    3    3    0    0  0.92478808285E+01  0.64571383440E+01 -0.50859154551E+02  0.95912119604E+02  0.80531131557E+02 0.  0.
         -6    2    1    2    0  502  0.10099837130E+03  0.11432170834E+01  0.41352246450E+03  0.45917670109E+03  0.17216398063E+03 0.  0.
        -24    2    5    5    0    0  0.63550646516E+02 -0.47965749280E+02  0.14503925576E+03  0.18364204620E+03  0.79678213115E+02 0.  0.
          5    1    3    3  501    0 -0.11024625213E+03 -0.76003554274E+01 -0.15323823685E+03  0.18898690099E+03  0.47000000000E+01 0. -1.
        -11    1    4    4    0    0 -0.17053272120E+02 -0.24197560555E+02 -0.46720214580E+02  0.55309262129E+02  0.00000000000E+00 0.  1.
         12    1    4    4    0    0  0.26301152949E+02  0.30654698899E+02 -0.41389399704E+01  0.40602857475E+02  0.00000000000E+00 0. -1.
         -5    1    5    5    0  502  0.37447724788E+02  0.49108966363E+02  0.26848320874E+03  0.27553465489E+03  0.47000000000E+01 0.  1.
         13    1    6    6    0    0  0.40108101904E+02  0.14799394846E+02  0.77488376772E+02  0.88499324636E+02  0.00000000000E+00 0. -1.
        -14    1    6    6    0    0  0.23442544611E+02 -0.62765144125E+02  0.67550878987E+02  0.95142721566E+02  0.00000000000E+00 0.  1.
</event>
<event>
12    1  0.1594900E-001  0.2119931E+03  0.7818608E-02  0.1140022E+00
         21   -1    0    0  503  502  0.00000000000E+00  0.00000000000E+00  0.21656100420E+02  0.21656100420E+02  0.00000000000E+00 0.  1.
         21   -1    0    0  501  503 -0.00000000000E+00 -0.00000000000E+00 -0.21244458312E+04  0.21244458312E+04  0.00000000000E+00 0.  1.
          6    2    1    2  501    0  0.58808874563E+02  0.10972247693E+03 -0.12164980776E+04  0.12348094540E+04  0.17143310435E+03 0.  0.
         24    2    3    3    0    0  0.80620006388E+01  0.13324765447E+03 -0.85618953401E+03  0.87015480127E+03  0.79302753712E+02 0.  0.
         -6    2    1    2    0  502 -0.58808874563E+02 -0.10972247693E+03 -0.88629165326E+03  0.91129247768E+03  0.17159131552E+03 0.  0.
        -24    2    5    5    0    0 -0.75950242009E+02 -0.79649963350E+02 -0.85034871112E+03  0.86117094897E+03  0.80061956739E+02 0.  0.
          5    1    3    3  501    0  0.50746873924E+02 -0.23525177542E+02 -0.36030854355E+03  0.36465465271E+03  0.47000000000E+01 0. -1.
        -11    1    4    4    0    0  0.28090656629E+02  0.43657446454E+02 -0.48547264101E+03  0.48824045591E+03  0.00000000000E+00 0.  1.
         12    1    4    4    0    0 -0.20028655990E+02  0.89590208013E+02 -0.37071689300E+03  0.38191434535E+03  0.00000000000E+00 0. -1.
         -5    1    5    5    0  502  0.17141367447E+02 -0.30072513575E+02 -0.35942942141E+02  0.50121528712E+02  0.47000000000E+01 0.  1.
         13    1    6    6    0    0 -0.52934168539E+02 -0.88165485879E+01 -0.50729345597E+03  0.51012391456E+03  0.00000000000E+00 0. -1.
        -14    1    6    6    0    0 -0.23016073470E+02 -0.70833414762E+02 -0.34305525515E+03  0.35104703441E+03  0.00000000000E+00 0.  1.
</event>
<event>
12    1  0.1594900E-001  0.1804787E+03  0.7818608E-02  0.1167953E+00
         21   -1    0    0  501  502  0.00000000000E+00  0.00000000000E+00  0.10568377706E+04  0.10568377706E+04  0.00000000000E+00 0.  1.
         21   -1    0    0  502  503 -0.00000000000E+00 -0.00000000000E+00 -0.32516404834E+02  0.32516404834E+02  0.00000000000E+00 0.  1.
         -6    2    1    2    0  503  0.30018732930E+02 -0.35094822325E+02  0.36955991392E+03  0.41017444154E+03  0.17185974409E+03 0.  0.
        -24    2    3    3    0    0 -0.26067570106E+02  0.23009945584E+02  0.26074271473E+03  0.27458273722E+03  0.78739700827E+02 0.  0.
          6    2    1    2  501    0 -0.30018732930E+02  0.35094822325E+02  0.65476145180E+03  0.67917973385E+03  0.17447000092E+03 0.  0.
         24    2    5    5    0    0 -0.90530673191E+02  0.17834311498E+02  0.48161140051E+03  0.49489015083E+03  0.66729714721E+02 0.  0.
          5    1    5    5  501    0  0.60511940262E+02  0.17260510827E+02  0.17315005129E+03  0.18428958302E+03  0.47000000000E+01 0. -1.
        -13    1    6    6    0    0 -0.60249635522E+02  0.39169018431E+02  0.24240795885E+03  0.25283561676E+03  0.00000000000E+00 0.  1.
         14    1    6    6    0    0 -0.30281037669E+02 -0.21334706933E+02  0.23920344166E+03  0.24205453407E+03  0.00000000000E+00 0. -1.
         -5    1    3    3    0  503  0.56086303036E+02 -0.58104767908E+02  0.10881719919E+03  0.13559170432E+03  0.47000000000E+01 0.  1.
         11    1    4    4    0    0  0.14901161156E+02  0.18857497841E+02  0.19851048535E+03  0.19996015259E+03  0.00000000000E+00 0. -1.
        -12    1    4    4    0    0 -0.40968731262E+02  0.41524477424E+01  0.62232229383E+02  0.74622584634E+02  0.00000000000E+00 0.  1.
</event>
<event>
12    1  0.1594900E-001  0.1874087E+03  0.7818608E-02  0.1160977E+00
         21   -1    0    0  501  502  0.00000000000E+00  0.00000000000E+00  0.71792072264E+03  0.71792072264E+03  0.00000000000E+00 0. -1.
         21   -1    0    0  502  503 -0.00000000000E+00 -0.00000000000E+00 -0.99113287292E+02  0.99113287292E+02  0.00000000000E+00 0.  1.
         -6    2    1    2    0  503  0.69800686472E+02  0.24847834328E+02  0.18455901673E+02  0.18831522653E+03  0.17214079567E+03 0.  0.
        -24    2    3    3    0    0  0.51796601433E+02 -0.41551836969E+02 -0.24040906603E+02  0.10731441086E+03  0.80802069972E+02 0.  0.
          6    2    1    2  501    0 -0.69800686472E+02 -0.24847834328E+02  0.60035153368E+03  0.62871878340E+03  0.17139368107E+03 0.  0.
         24    2    5    5    0    0 -0.11831816746E+02  0.45564788693E+02  0.34631792668E+03  0.35876787893E+03  0.81007053764E+02 0.  0.
          5    1    5    5  501    0 -0.57968869725E+02 -0.70412623021E+02  0.25403360700E+03  0.26995090447E+03  0.47000000000E+01 0. -1.
        -11    1    6    6    0    0  0.17411270004E+02 -0.17173018488E+02  0.93595127970E+02  0.96737339569E+02  0.00000000000E+00 0.  1.
         12    1    6    6    0    0 -0.29243086751E+02  0.62737807182E+02  0.25272279871E+03  0.26203053936E+03  0.00000000000E+00 0. -1.
         -5    1    3    3    0  503  0.18004085038E+02  0.66399671297E+02  0.42496808276E+02  0.81000815676E+02  0.47000000000E+01 0.  1.
         11    1    4    4    0    0  0.33784305493E+00 -0.50084700675E+02 -0.50357466218E+00  0.50088371576E+02  0.00000000000E+00 0. -1.
        -12    1    4    4    0    0  0.51458758378E+02  0.85328637064E+01 -0.23537331941E+02  0.57226039281E+02  0.00000000000E+00 0.  1.
</event>
<event>
12    1  0.1594900E-001  0.2541947E+03  0.7818608E-02  0.1110927E+00
         21   -1    0    0  501  502  0.00000000000E+00  0.00000000000E+00  0.26513495276E+03  0.26513495276E+03  0.00000000000E+00 0. -1.
         21   -1    0    0  502  503 -0.00000000000E+00 -0.00000000000E+00 -0.29801916134E+03  0.29801916134E+03  0.00000000000E+00 0. -1.
         -6    2    1    2    0  503  0.14346758959E+03  0.11803991822E+03 -0.13835103364E+03  0.28940622578E+03  0.17348943327E+03 0.  0.
        -24    2    3    3    0    0  0.99259451517E+02  0.62590284149E-01 -0.66048313985E+02  0.14406943537E+03  0.80877560507E+02 0.  0.
          6    2    1    2  501    0 -0.14346758959E+03 -0.11803991822E+03  0.10546682506E+03  0.27374788832E+03  0.17116741400E+03 0.  0.
         24    2    5    5    0    0 -0.10564474561E+03 -0.92024344371E+02  0.14226053114E+03  0.21472887090E+03  0.79000867370E+02 0.  0.
          5    1    5    5  501    0 -0.37822843980E+02 -0.26015573846E+02 -0.36793706085E+02  0.59019017416E+02  0.47000000000E+01 0. -1.
        -11    1    6    6    0    0 -0.97374637231E+01 -0.36813595934E+01  0.59241689909E+02  0.60149384299E+02  0.00000000000E+00 0.  1.
         12    1    6    6    0    0 -0.95907281886E+02 -0.88342984777E+02  0.83018841234E+02  0.15457948660E+03  0.00000000000E+00 0. -1.
         -5    1    3    3    0  503  0.44208138072E+02  0.11797732793E+03 -0.72302719653E+02  0.14533679041E+03  0.47000000000E+01 0.  1.
         11    1    4    4    0    0  0.23938851270E+02  0.29614933441E+02 -0.47821719727E+02  0.61131250277E+02  0.00000000000E+00 0. -1.
        -12    1    4    4    0    0  0.75320600247E+02 -0.29552343157E+02 -0.18226594259E+02  0.82938185089E+02  0.00000000000E+00 0.  1.
</event>
<event>
12    1  0.1594900E-001  0.1926894E+03  0.7818608E-02  0.1157229E+00
         21   -1    0    0  503  502  0.00000000000E+00  0.00000000000E+00  0.13592444016E+03  0.13592444016E+03  0.00000000000E+00 0.  1.
         21   -1    0    0  501  503 -0.00000000000E+00 -0.00000000000E+00 -0.26785882545E+03  0.26785882545E+03  0.00000000000E+00 0.  1.
          6    2    1    2  501    0  0.17989158220E+02 -0.73492817531E+02 -0.82675672631E+02  0.20489731125E+03  0.17153086390E+03 0.  0.
         24    2    3    3    0    0 -0.56823233626E+02 -0.71815746387E+02 -0.37415082219E+02  0.11731696193E+03  0.63063459079E+02 0.  0.
         -6    2    1    2    0  502 -0.17989158220E+02  0.73492817531E+02 -0.49258712663E+02  0.19888595437E+03  0.17721286079E+03 0.  0.
        -24    2    5    5    0    0  0.47263926946E+02  0.20996027849E+01 -0.79128509743E+01  0.93593378586E+02  0.80366785318E+02 0.  0.
          5    1    3    3  501    0  0.74812391846E+02 -0.16770711445E+01 -0.45260590412E+02  0.87580349313E+02  0.47000000000E+01 0. -1.
        -13    1    4    4    0    0 -0.37651309417E+02 -0.23712505137E+02 -0.46925669821E+02  0.64667785557E+02  0.00000000000E+00 0.  1.
         14    1    4    4    0    0 -0.19171924209E+02 -0.48103241250E+02  0.95105876017E+01  0.52649176377E+02  0.00000000000E+00 0. -1.
         -5    1    5    5    0  502 -0.65253085166E+02  0.71393214746E+02 -0.41345861689E+02  0.10529257578E+03  0.47000000000E+01 0.  1.
         11    1    6    6    0    0  0.58166147162E+02  0.10584283310E+02 -0.30949251656E+02  0.66732180445E+02  0.00000000000E+00 0. -1.
        -12    1    6    6    0    0 -0.10902220215E+02 -0.84846805251E+01  0.23036400682E+02  0.26861198142E+02  0.00000000000E+00 0.  1.
</event>
<event>
12    1  0.1594900E-001  0.2515179E+03  0.7818608E-02  0.1112558E+00
         21   -1    0    0  503  502  0.00000000000E+00  0.00000000000E+00  0.18329791338E+04  0.18329791338E+04  0.00000000000E+00 0. -1.
         21   -1    0    0  501  503 -0.00000000000E+00 -0.00000000000E+00 -0.59971827923E+02  0.59971827923E+02  0.00000000000E+00 0.  1.
          6    2    1    2  501    0 -0.32637589659E+02 -0.18009413206E+03  0.26628678495E+03  0.36538166275E+03  0.17057549347E+03 0.  0.
         24    2    3    3    0    0  0.24739666496E+02 -0.10596860987E+03  0.82375809913E+02  0.15890629060E+03  0.81388191765E+02 0.  0.
         -6    2    1    2    0  502  0.32637589659E+02  0.18009413206E+03  0.15067205209E+04  0.15275692989E+04  0.17251703198E+03 0.  0.
        -24    2    5    5    0    0 -0.24762025667E+02  0.16601206540E+03  0.98550871761E+03  0.10029962780E+04  0.81246152997E+02 0.  0.
          5    1    3    3  501    0 -0.57377256155E+02 -0.74125522186E+02  0.18391097503E+03  0.20647537214E+03  0.47000000000E+01 0. -1.
        -11    1    4    4    0    0 -0.19208037468E+01 -0.88235712710E+02  0.22614805340E+02  0.91107957419E+02  0.00000000000E+00 0.  1.
         12    1    4    4    0    0  0.26660470242E+02 -0.17732897160E+02  0.59761004573E+02  0.67798333186E+02  0.00000000000E+00 0. -1.
         -5    1    5    5    0  502  0.57399615326E+02  0.14082066661E+02  0.52121180327E+03  0.52457302095E+03  0.47000000000E+01 0.  1.
         11    1    6    6    0    0  0.15232526025E+02  0.72416211501E+02  0.25803059023E+03  0.26843234349E+03  0.00000000000E+00 0. -1.
        -12    1    6    6    0    0 -0.39994551692E+02  0.93595853894E+02  0.72747812737E+03  0.73456393448E+03  0.00000000000E+00 0.  1.
</event>
<event>
12    1  0.1594900E-001  0.2203475E+03  0.7818608E-02  0.1133670E+00
         21   -1    0    0  503  502  0.00000000000E+00  0.00000000000E+00  0.10665056580E+03  0.10665056580E+03  0.00000000000E+00 0. -1.
         21   -1    0    0  501  503 -0.00000000000E+00 -0.00000000000E+00 -0.46087503647E+03  0.46087503647E+03  0.00000000000E+00 0.  1.
          6    2    1    2  501    0  0.13419281006E+03 -0.27536219472E+02 -0.20994362456E+03  0.30435070698E+03  0.17258932090E+03 0.  0.
         24    2    3    3    0    0  0.50015155907E+02 -0.27673233360E+02 -0.19643730865E+03  0.21896682793E+03  0.78048266097E+02 0.  0.
         -6    2    1    2    0  502 -0.13419281006E+03  0.27536219472E+02 -0.14428084611E+03  0.26317489529E+03  0.17227335634E+03 0.  0.
        -24    2    5    5    0    0 -0.13770549953E+02  0.97404728496E+01 -0.10956890383E+03  0.13650517411E+03  0.79648057206E+02 0.  0.
          5    1    3    3  501    0  0.84177654152E+02  0.13701388829E+00 -0.13506315911E+02  0.85383879046E+02  0.47000000000E+01 0. -1.
        -11    1    4    4    0    0  0.40730906326E+02  0.21750721029E+02 -0.10234199395E+03  0.11227637473E+03  0.00000000000E+00 0.  1.
         12    1    4    4    0    0  0.92842495810E+01 -0.49423954389E+02 -0.94095314694E+02  0.10669045321E+03  0.00000000000E+00 0. -1.
         -5    1    5    5    0  502 -0.12042226011E+03  0.17795746622E+02 -0.34711942282E+02  0.12666972118E+03  0.47000000000E+01 0.  1.
         13    1    6    6    0    0 -0.68724750152E+01  0.80638291132E+01  0.11263978843E+02  0.15463941030E+02  0.00000000000E+00 0. -1.
        -14    1    6    6    0    0 -0.68980749381E+01  0.16766437364E+01 -0.12083288267E+03  0.12104123308E+03  0.00000000000E+00 0.  1.
</event>
<event>
12    1  0.1594900E-001  0.1790877E+03  0.7818608E-02  0.1169137E+00
         21   -1    0    0  501  502  0.00000000000E+00  0.00000000000E+00  0.45472768158E+02  0.45472768158E+02  0.00000000000E+00 0. -1.
         21   -1    0    0  502  503 -0.00000000000E+00 -0.00000000000E+00 -0.81426916583E+03  0.81426916583E+03  0.00000000000E+00 0. -1.
         -6    2    1    2    0  503  0.72507646072E+01 -0.42711018538E+02 -0.54843301485E+03  0.57693255816E+03  0.17376881249E+03 0.  0.
        -24    2    3    3    0    0 -0.52596756285E+02 -0.52137638686E+02 -0.27482380212E+03  0.29665648316E+03  0.83619343762E+02 0.  0.
          6    2    1    2  501    0 -0.72507646072E+01  0.42711018538E+02 -0.22036338282E+03  0.28280937583E+03  0.17188460628E+03 0.  0.
         24    2    5    5    0    0  0.19984416590E+02  0.89037140516E+02 -0.14370625077E+03  0.18907426732E+03  0.82283672471E+02 0.  0.
          5    1    5    5  501    0 -0.27235181197E+02 -0.46326121978E+02 -0.76657132051E+02  0.93735108506E+02  0.47000000000E+01 0. -1.
        -13    1    6    6    0    0 -0.59975189888E+01  0.41109502156E+02 -0.12453928614E+03  0.13128592915E+03  0.00000000000E+00 0.  1.
         14    1    6    6    0    0  0.25981935579E+02  0.47927638360E+02 -0.19166964632E+02  0.57788338170E+02  0.00000000000E+00 0. -1.
         -5    1    3    3    0  503  0.59847520893E+02  0.94266201476E+01 -0.27360921273E+03  0.28027607499E+03  0.47000000000E+01 0.  1.
         13    1    4    4    0    0 -0.97434735542E+01 -0.57321205928E+02 -0.21603340483E+03  0.22372100466E+03  0.00000000000E+00 0. -1.
        -14    1    4    4    0    0 -0.42853282731E+02  0.51835672425E+01 -0.58790397294E+02  0.72935478501E+02  0.00000000000E+00 0.  1.
</event>
<event>
12    1  0.1594900E-001  0.1784768E+03  0.7818608E-02  0.1169432E+00
         21   -1    0    0  501  502  0.00000000000E+00  0.00000000000E+00  0.65102463522E+02  0.65102463522E+02  0.00000000000E+00 0.  1.
         21   -1    0    0  502  503 -0.00000000000E+00 -0.00000000000E+00 -0.12032661299E+04  0.12032661299E+04  0.00000000000E+00 0.  1.
         -6    2    1    2    0  503  0.25568626073E+02 -0.35791441144E+02 -0.10577686624E+04  0.10726204402E+04  0.17235220822E+03 0.  0.
        -24    2    3    3    0    0 -0.51953324840E+02 -0.23391767796E+02 -0.53540633175E+03  0.54437059471E+03  0.80206493180E+02 0.  0.
          6    2    1    2  501    0 -0.25568626073E+02  0.35791441144E+02 -0.80395003954E+02  0.19574815320E+03  0.17297167665E+03 0.  0.
         24    2    5    5    0    0  0.47204333128E+02  0.18794717182E+02 -0.13519237963E+02  0.95352683715E+02  0.79547935464E+02 0.  0.
          5    1    5    5  501    0 -0.72772959201E+02  0.16996723962E+02 -0.66875765991E+02  0.10039546949E+03  0.47000000000E+01 0. -1.
        -13    1    6    6    0    0  0.65284605398E+02 -0.38210265302E+01 -0.81120741845E+01  0.65897539357E+02  0.00000000000E+00 0.  1.
         14    1    6    6    0    0 -0.18080272271E+02  0.22615743712E+02 -0.54071637789E+01  0.29455144358E+02  0.00000000000E+00 0. -1.
         -5    1    3    3    0  503  0.77521950913E+02 -0.12399673348E+02 -0.52236233069E+03  0.52824984552E+03  0.47000000000E+01 0.  1.
         13    1    4    4    0    0 -0.69390987519E-01  0.15279817733E+02 -0.21334295960E+02  0.26241757357E+02  0.00000000000E+00 0. -1.
        -14    1    4    4    0    0 -0.51883933853E+02 -0.38671585529E+02 -0.51407203579E+03  0.51812883736E+03  0.00000000000E+00 0.  1.
</event>
<event>
12    1  0.1594900E-001  0.2256523E+03  0.7818608E-02  0.1129832E+00
         21   -1    0    0  501  502  0.00000000000E+00  0.00000000000E+00  0.19279869275E+03  0.19279869275E+03  0.00000000000E+00 0.  1.
         21   -1    0    0  502  503 -0.00000000000E+00 -0.00000000000E+00 -0.34005198944E+03  0.34005198944E+03  0.00000000000E+00 0.  1.
         -6    2    1    2    0  503 -0.84857498410E+02 -0.11719436466E+03 -0.19997476332E+03  0.30112127765E+03  0.17247841529E+03 0.  0.
        -24    2    3    3    0    0 -0.88045656606E+02 -0.14361051508E+03 -0.13294779492E+03  0.22885315294E+03  0.79514978143E+02 0.  0.
          6    2    1    2  501    0  0.84857498410E+02  0.11719436466E+03  0.52721466634E+02  0.23172940455E+03  0.17315787519E+03 0.  0.
         24    2    5    5    0    0  0.11778698690E+03  0.11461457265E+03  0.14230291458E+02  0.18079152959E+03  0.73978384878E+02 0.  0.
          5    1    5    5  501    0 -0.32929488488E+02  0.25797920145E+01  0.38491175176E+02  0.50937874959E+02  0.47000000000E+01 0. -1.
        -13    1    6    6    0    0  0.80353892225E+02  0.11051684732E+03 -0.83290587695E+01  0.13689446576E+03  0.00000000000E+00 0.  1.
         14    1    6    6    0    0  0.37433094673E+02  0.40977253339E+01  0.22559350228E+02  0.43897063825E+02  0.00000000000E+00 0. -1.
         -5    1    3    3    0  503  0.31881581968E+01  0.26416150412E+02 -0.67026968405E+02  0.72268124708E+02  0.47000000000E+01 0.  1.
         11    1    4    4    0    0 -0.90656836638E+02 -0.75122156218E+02 -0.83745916619E+02  0.14448314412E+03  0.00000000000E+00 0. -1.
        -12    1    4    4    0    0  0.26111800320E+01 -0.68488358857E+02 -0.49201878298E+02  0.84370008819E+02  0.00000000000E+00 0.  1.
</event>
<event>
12    1  0.1594900E-001  0.1999772E+03  0.7818608E-02  0.1150055E+00
         21   -1    0    0  501  502  0.00000000000E+00  0.00000000000E+00  0.37865106172E+03  0.37865106172E+03  0.00000000000E+00 0.  1.
         21   -1    0    0  502  503 -0.00000000000E+00 -0.00000000000E+00 -0.18313492256E+03  0.18313492256E+03  0.00000000000E+00 0.  1.
         -6    2    1    2    0  503 -0.43504915096E+02 -0.88547384736E+02 -0.86058513790E+02  0.21642359222E+03  0.17233625995E+03 0.  0.
        -24    2    3    3    0    0 -0.81489868066E+01 -0.12989540171E+01  0.12059438316E+02  0.80366424626E+02  0.79026823845E+02 0.  0.
          6    2    1    2  501    0  0.43504915096E+02  0.88547384736E+02  0.28157465295E+03  0.34536239206E+03  0.17394706000E+03 0.  0.
         24    2    5    5    0    0  0.73402881487E+02  0.95856028757E+02  0.27924370612E+03  0.31414015663E+03  0.78298335486E+02 0.  0.
          5    1    5    5  501    0 -0.29897966391E+02 -0.73086440208E+01  0.23309468229E+01  0.31222235424E+02  0.47000000000E+01 0. -1.
        -11    1    6    6    0    0  0.28396249362E+02  0.25294218736E+02  0.18158953645E+03  0.18552871537E+03  0.00000000000E+00 0.  1.
         12    1    6    6    0    0  0.45006632125E+02  0.70561810021E+02  0.97654169676E+02  0.12861144126E+03  0.00000000000E+00 0. -1.
         -5    1    3    3    0  503 -0.35355928289E+02 -0.87248430719E+02 -0.98117952107E+02  0.13605716759E+03  0.47000000000E+01 0.  1.
         11    1    4    4    0    0  0.18720662193E+02  0.19777988145E+02 -0.19794204049E+02  0.33666638114E+02  0.00000000000E+00 0. -1.
        -12    1    4    4    0    0 -0.26869648999E+02 -0.21076942162E+02  0.31853642365E+02  0.46699786511E+02  0.00000000000E+00 0.  1.
</event>
<event>
12    1  0.1594900E-001  0.2167579E+03  0.7818608E-02  0.1139197E+00
         21   -1    0    0  503  502  0.00000000000E+00  0.00000000000E+00  0.23099208292E+03  0.23099208292E+03  0.00000000000E+00 0. -1.
         21   -1    0    0  501  503 -0.00000000000E+00 -0.00000000000E+00 -0.20390193979E+03  0.20390193979E+03  0.00000000000E+00 0. -1.
          6    2    1    2  501    0  0.18089994870E+02 -0.10354525677E+03 -0.42849750387E+02  0.22095266758E+03  0.18956558783E+03 0.  0.
         24    2    3    3    0    0  0.21404126822E+02 -0.44868440372E+02  0.52079318643E+02  0.10920486939E+03  0.82110501657E+02 0.  0.
         -6    2    1    2    0  502 -0.18089994870E+02  0.10354525677E+03  0.69939893510E+02  0.21394135513E+03  0.17271492876E+03 0.  0.
        -24    2    5    5    0    0  0.10463730763E+02  0.28583186560E+02  0.98310752125E+02  0.12872619899E+03  0.77323619338E+02 0.  0.
          5    1    3    3  501    0 -0.33141319520E+01 -0.58676816394E+02 -0.94929069030E+02  0.11174779819E+03  0.47000000000E+01 0. -1.
        -13    1    4    4    0    0 -0.29707562647E+02 -0.24428311055E+02  0.95149644660E+01  0.39620906201E+02  0.00000000000E+00 0.  1.
         14    1    4    4    0    0  0.51111689469E+02 -0.20440129317E+02  0.42564354177E+02  0.69583963191E+02  0.00000000000E+00 0. -1.
         -5    1    5    5    0  502 -0.28553725633E+02  0.74962070206E+02 -0.28370858614E+02  0.85215156138E+02  0.47000000000E+01 0.  1.
         13    1    6    6    0    0 -0.29927628340E+02 -0.31472529901E+01  0.24513653580E+02  0.38813494448E+02  0.00000000000E+00 0. -1.
        -14    1    6    6    0    0  0.40391359104E+02  0.31730439550E+02  0.73797098545E+02  0.89912704541E+02  0.00000000000E+00 0.  1.
</event>
<event>
12    1  0.1594900E-001  0.2506912E+03  0.7818608E-02  0.1112969E+00
         21   -1    0    0  501  502  0.00000000000E+00  0.00000000000E+00  0.11062101400E+03  0.11062101400E+03  0.00000000000E+00 0.  1.
         21   -1    0    0  502  503 -0.00000000000E+00 -0.00000000000E+00 -0.85581025297E+03  0.85581025297E+03  0.00000000000E+00 0.  1.
         -6    2    1    2    0  503  0.15143622792E+03  0.10340640516E+03 -0.65314740193E+03  0.69937741153E+03  0.17000417451E+03 0.  0.
        -24    2    3    3    0    0  0.68649441132E+01  0.45271581945E+02 -0.29196318118E+03  0.30598620027E+03  0.79299508227E+02 0.  0.
          6    2    1    2  501    0 -0.15143622792E+03 -0.10340640516E+03 -0.92041837045E+02  0.26705385544E+03  0.17093930556E+03 0.  0.
         24    2    5    5    0    0 -0.16815473766E+03 -0.11732865445E+03 -0.10237403506E+03  0.24251446040E+03  0.79314509982E+02 0.  0.
          5    1    5    5  501    0  0.16718509747E+02  0.13922249289E+02  0.10332198014E+02  0.24539395046E+02  0.47000000000E+01 0. -1.
        -13    1    6    6    0    0 -0.33281451793E+02 -0.55377817572E+02 -0.45787492742E+01  0.64771310450E+02  0.00000000000E+00 0.  1.
         14    1    6    6    0    0 -0.13487328587E+03 -0.61950836879E+02 -0.97795285784E+02  0.17774314995E+03  0.00000000000E+00 0. -1.
         -5    1    3    3    0  503  0.14457128380E+03  0.58134823217E+02 -0.36118422075E+03  0.39339121125E+03  0.47000000000E+01 0.  1.
         13    1    4    4    0    0  0.35419958720E+00 -0.32100187950E+01  0.44863929003E+01  0.55278747514E+01  0.00000000000E+00 0. -1.
        -14    1    4    4    0    0  0.65107445260E+01  0.48481600740E+02 -0.29644957408E+03  0.30045832552E+03  0.00000000000E+00 0.  1.
</event>
<event>
12    1  0.1594900E-001  0.3030183E+03  0.7818608E-02  0.1083755E+00
         21   -1    0    0  503  502  0.00000000000E+00  0.00000000000E+00  0.16279349935E+03  0.16279349935E+03  0.00000000000E+00 0.  1.
         21   -1    0    0  501  503 -0.00000000000E+00 -0.00000000000E+00 -0.57490623181E+03  0.57490623181E+03  0.00000000000E+00 0. -1.
          6    2    1    2  501    0 -0.94632211961E+02 -0.23061515308E+03 -0.25730824199E+03  0.39752685278E+03  0.17228308946E+03 0.  0.
         24    2    3    3    0    0 -0.41655532942E+02 -0.17164867939E+03 -0.92616853357E+02  0.21469108760E+03  0.79472819292E+02 0.  0.
         -6    2    1    2    0  502  0.94632211961E+02  0.23061515308E+03 -0.15480449047E+03  0.34017287838E+03  0.17208879262E+03 0.  0.
        -24    2    5    5    0    0  0.14566266944E+02  0.18759837080E+03 -0.14633944074E+03  0.24876857774E+03  0.71170559175E+02 0.  0.
          5    1    3    3  501    0 -0.52976679019E+02 -0.58966473688E+02 -0.16469138863E+03  0.18283576518E+03  0.47000000000E+01 0. -1.
        -13    1    4    4    0    0 -0.25587146826E+02 -0.17306547152E+03 -0.93819416018E+02  0.19851559721E+03  0.00000000000E+00 0.  1.
         14    1    4    4    0    0 -0.16068386116E+02  0.14167921236E+01  0.12025626615E+01  0.16175490387E+02  0.00000000000E+00 0. -1.
         -5    1    5    5    0  502  0.80065945017E+02  0.43016782279E+02 -0.84650497338E+01  0.91404300643E+02  0.47000000000E+01 0.  1.
         11    1    6    6    0    0  0.38300795909E+02  0.12453770762E+03 -0.11759525607E+03  0.17551420409E+03  0.00000000000E+00 0. -1.
        -12    1    6    6    0    0 -0.23734528965E+02  0.63060663188E+02 -0.28744184665E+02  0.73254373651E+02  0.00000000000E+00 0.  1.
</event>
<event>
12    1  0.1594900E-001  0.2050577E+03  0.7818608E-02  0.1146299E+00
         21   -1    0    0  501  502  0.00000000000E+00  0.00000000000E+00  0.29381719548E+03  0.29381719548E+03  0.00000000000E+00 0.  1.
         21   -1    0    0  502  503 -0.00000000000E+00 -0.00000000000E+00 -0.14198475200E+03  0.14198475200E+03  0.00000000000E+00 0. -1.
         -6    2    1    2    0  503 -0.44801867283E+02  0.10309868974E+03  0.54751104014E+02  0.21224123254E+03  0.17149959259E+03 0.  0.
        -24    2    3    3    0    0 -0.83399523632E+02  0.11362295235E+03  0.30361345564E+02  0.16515100535E+03  0.80544319605E+02 0.  0.
          6    2    1    2  501    0  0.44801867283E+02 -0.10309868974E+03  0.97081339475E+02  0.22356071494E+03  0.16708698230E+03 0.  0.
         24    2    5    5    0    0  0.94231371676E+02 -0.42814087691E+02  0.57958585165E+02  0.13620976158E+03  0.66942542842E+02 0.  0.
          5    1    5    5  501    0 -0.49429504393E+02 -0.60284602050E+02  0.39122754311E+02  0.87350953365E+02  0.47000000000E+01 0. -1.
        -11    1    6    6    0    0  0.27923109710E+02  0.17601888508E+02  0.21422015775E+02  0.39350086337E+02  0.00000000000E+00 0.  1.
         12    1    6    6    0    0  0.66308261966E+02 -0.60415976199E+02  0.36536569390E+02  0.96859675241E+02  0.00000000000E+00 0. -1.
         -5    1    3    3    0  503  0.38597656349E+02 -0.10524262610E+02  0.24389758450E+02  0.47090227186E+02  0.47000000000E+01 0.  1.
         13    1    4    4    0    0 -0.25881050848E+02  0.26104196806E+02 -0.27124180519E+02  0.45683465857E+02  0.00000000000E+00 0. -1.
        -14    1    4    4    0    0 -0.57518472784E+02  0.87518755546E+02  0.57485526083E+02  0.11946753949E+03  0.00000000000E+00 0.  1.
</event>
<event>
12    1  0.1594900E-001  0.2137533E+03  0.7818608E-02  0.1138812E+00
         21   -1    0    0  503  502  0.00000000000E+00  0.00000000000E+00  0.61266412208E+03  0.61266412208E+03  0.00000000000E+00 0. -1.
         21   -1    0    0  501  503 -0.00000000000E+00 -0.00000000000E+00 -0.74767552555E+02  0.74767552555E+02  0.00000000000E+00 0. -1.
          6    2    1    2  501    0  0.67594599811E+02  0.10626949168E+03  0.29704872026E+03  0.36540971210E+03  0.17153448837E+03 0.  0.
         24    2    3    3    0    0  0.22535702608E+02 -0.11173834899E+01  0.84574068002E+02  0.12306736535E+03  0.86508363741E+02 0.  0.
         -6    2    1    2    0  502 -0.67594599811E+02 -0.10626949168E+03  0.24084784926E+03  0.32202196254E+03  0.17270849161E+03 0.  0.
        -24    2    5    5    0    0 -0.10052959425E+03 -0.12171627944E+03  0.20746178031E+03  0.27242320539E+03  0.79075663420E+02 0.  0.
          5    1    3    3  501    0  0.45058897203E+02  0.10738687517E+03  0.21247465226E+03  0.24234234675E+03  0.47000000000E+01 0. -1.
        -13    1    4    4    0    0 -0.21808284813E+02 -0.71918864717E+01  0.73438196541E+02  0.76944741397E+02  0.00000000000E+00 0.  1.
         14    1    4    4    0    0  0.44343987421E+02  0.60745029818E+01  0.11135871461E+02  0.46122623950E+02  0.00000000000E+00 0. -1.
         -5    1    5    5    0  502  0.32934994436E+02  0.15446787754E+02  0.33386068949E+02  0.49598757144E+02  0.47000000000E+01 0.  1.
         13    1    6    6    0    0 -0.72539013916E+02 -0.12854902394E+03  0.17755763211E+03  0.23089710439E+03  0.00000000000E+00 0. -1.
        -14    1    6    6    0    0 -0.27990580330E+02  0.68327444994E+01  0.29904148208E+02  0.41526101005E+02  0.00000000000E+00 0.  1.
</event>
<event>
12    1  0.1594900E-001  0.2100358E+03  0.7818608E-02  0.1142177E+00
         21   -1    0    0  503  502  0.00000000000E+00  0.00000000000E+00  0.11382393798E+04  0.11382393798E+04  0.00000000000E+00 0.  1.
         21   -1    0    0  501  503 -0.00000000000E+00 -0.00000000000E+00 -0.39011680746E+02  0.39011680746E+02  0.00000000000E+00 0. -1.
          6    2    1    2  501    0  0.11535230620E+03 -0.36165748176E+02  0.46720011013E+03  0.51224113400E+03  0.17175832023E+03 0.  0.
         24    2    3    3    0    0 -0.61280590236E+01 -0.35917480521E+02  0.16704675627E+03  0.18840218235E+03  0.79140034242E+02 0.  0.
         -6    2    1    2    0  502 -0.11535230620E+03  0.36165748176E+02  0.63202758889E+03  0.66500992651E+03  0.16782494854E+03 0.  0.
        -24    2    5    5    0    0 -0.67088974183E+02 -0.40830941959E+02  0.33642982311E+03  0.35572370205E+03  0.84771634654E+02 0.  0.
          5    1    3    3  501    0  0.12148036522E+03 -0.24826765477E+00  0.30015335386E+03  0.32383895165E+03  0.47000000000E+01 0. -1.
        -11    1    4    4    0    0  0.18153765354E+02 -0.60330278835E+01  0.14010988021E+03  0.14140981280E+03  0.00000000000E+00 0.  1.
         12    1    4    4    0    0 -0.24281824378E+02 -0.29884452638E+02  0.26936876057E+02  0.46992369554E+02  0.00000000000E+00 0. -1.
         -5    1    5    5    0  502 -0.48263332019E+02  0.76996690135E+02  0.29559776578E+03  0.30928622446E+03  0.47000000000E+01 0.  1.
         11    1    6    6    0    0 -0.79316633777E+02 -0.42071248974E+02  0.32971048429E+03  0.34171643483E+03  0.00000000000E+00 0. -1.
        -12    1    6    6    0    0  0.12227659594E+02  0.12403070156E+01  0.67193388211E+01  0.14007267215E+02  0.00000000000E+00 0.  1.
</event>
<event>
12    1  0.1594900E-001  0.3612934E+03  0.7818608E-02  0.1058118E+00
         21   -1    0    0  501  502  0.00000000000E+00  0.00000000000E+00  0.21536982932E+03  0.21536982932E+03  0.00000000000E+00 0. -1.
         21   -1    0    0  502  503 -0.00000000000E+00 -0.00000000000E+00 -0.10448366066E+04  0.10448366066E+04  0.00000000000E+00 0. -1.
         -6    2    1    2    0  503 -0.31502765564E+03  0.35076598603E+02 -0.82325189595E+03  0.89885961784E+03  0.17243009252E+03 0.  0.
        -24    2    3    3    0    0 -0.17665382424E+03  0.15816855663E+02 -0.62995359552E+03  0.66031281349E+03  0.87833550625E+02 0.  0.
          6    2    1    2  501    0  0.31502765564E+03 -0.35076598603E+02 -0.62148813237E+01  0.36134681809E+03  0.17337850676E+03 0.  0.
         24    2    5    5    0    0  0.21588294710E+03 -0.86426941946E+02  0.19803481760E+02  0.24660547327E+03  0.79668176925E+02 0.  0.
          5    1    5    5  501    0  0.99144708540E+02  0.51350343343E+02 -0.26018363084E+02  0.11474134482E+03  0.47000000000E+01 0. -1.
        -13    1    6    6    0    0 -0.24091728538E+01 -0.16347594847E+02  0.55270308932E+00  0.16533404121E+02  0.00000000000E+00 0.  1.
         14    1    6    6    0    0  0.21829211995E+03 -0.70079347099E+02  0.19250778670E+02  0.23007206915E+03  0.00000000000E+00 0. -1.
         -5    1    3    3    0  503 -0.13837383139E+03  0.19259742939E+02 -0.19329830044E+03  0.23854680435E+03  0.47000000000E+01 0.  1.
         11    1    4    4    0    0 -0.10459998828E+03 -0.32756985557E+02 -0.31176811881E+03  0.33047471546E+03  0.00000000000E+00 0. -1.
        -12    1    4    4    0    0 -0.72053835965E+02  0.48573841220E+02 -0.31818547670E+03  0.32983809803E+03  0.00000000000E+00 0.  1.
</event>
<event>
12    1  0.1594900E-001  0.1942858E+03  0.7818608E-02  0.1154909E+00
         21   -1    0    0  501  502  0.00000000000E+00  0.00000000000E+00  0.13014518011E+04  0.13014518011E+04  0.00000000000E+00 0. -1.
         21   -1    0    0  502  503 -0.00000000000E+00 -0.00000000000E+00 -0.29100321164E+02  0.29100321164E+02  0.00000000000E+00 0.  1.
         -6    2    1    2    0  503  0.78938624069E+02  0.36819235858E+02  0.70226663409E+03  0.72864628945E+03  0.17366642530E+03 0.  0.
        -24    2    3    3    0    0 -0.22780594184E+02  0.15636032297E+02  0.22407935013E+03  0.23927864032E+03  0.79241854985E+02 0.  0.
          6    2    1    2  501    0 -0.78938624069E+02 -0.36819235858E+02  0.57008484583E+03  0.60190583279E+03  0.17235700627E+03 0.  0.
         24    2    5    5    0    0 -0.42294824463E+02 -0.78632682890E+02  0.24357710753E+03  0.27066494527E+03  0.77186490324E+02 0.  0.
          5    1    5    5  501    0 -0.36643799605E+02  0.41813447032E+02  0.32650773829E+03  0.33124088752E+03  0.47000000000E+01 0. -1.
        -11    1    6    6    0    0  0.80253555468E+01 -0.53288198994E+02  0.16777359717E+03  0.17621582900E+03  0.00000000000E+00 0.  1.
         12    1    6    6    0    0 -0.50320180010E+02 -0.25344483896E+02  0.75803510364E+02  0.94449116267E+02  0.00000000000E+00 0. -1.
         -5    1    3    3    0  503  0.10171921825E+03  0.21183203561E+02  0.47818728396E+03  0.48936764914E+03  0.47000000000E+01 0.  1.
         13    1    4    4    0    0  0.37208166581E+01 -0.12225595193E+02  0.18133068658E+03  0.18178043776E+03  0.00000000000E+00 0. -1.
        -14    1    4    4    0    0 -0.26501410842E+02  0.27861627489E+02  0.42748663547E+02  0.57498202564E+02  0.00000000000E+00 0.  1.
</event>
<event>
12    1  0.1594900E-001  0.1759856E+03  0.7818608E-02  0.1172459E+00
         21   -1    0    0  501  502  0.00000000000E+00  0.00000000000E+00  0.15383622007E+03  0.15383622007E+03  0.00000000000E+00 0.  1.
         21   -1    0    0  502  503 -0.00000000000E+00 -0.00000000000E+00 -0.21402037035E+03  0.21402037035E+03  0.00000000000E+00 0.  1.
         -6    2    1    2    0  503 -0.27663917796E+01 -0.28322220465E+02 -0.80044512591E+02  0.19075391061E+03  0.17079265008E+03 0.  0.
        -24    2    3    3    0    0 -0.55297990140E+01  0.81773780850E+01  0.21174915054E+02  0.83016639222E+02  0.79661390716E+02 0.  0.
          6    2    1    2  501    0  0.27663917796E+01  0.28322220465E+02  0.19860362310E+02  0.17710267981E+03  0.17366958314E+03 0.  0.
         24    2    5    5    0    0 -0.50544098129E+02 -0.12908534685E+01  0.52740992094E+02  0.10766084590E+03  0.79075111978E+02 0.  0.
          5    1    5    5  501    0  0.53310489909E+02  0.29613073934E+02 -0.32880629784E+02  0.69441833912E+02  0.47000000000E+01 0. -1.
        -11    1    6    6    0    0 -0.16586077368E+02 -0.61094328520E+01 -0.20330797770E+02  0.26940016151E+02  0.00000000000E+00 0.  1.
         12    1    6    6    0    0 -0.33958020761E+02  0.48185793836E+01  0.73071789864E+02  0.80720829748E+02  0.00000000000E+00 0. -1.
         -5    1    3    3    0  503  0.27634072344E+01 -0.36499598550E+02 -0.10121942764E+03  0.10773727139E+03  0.47000000000E+01 0.  1.
         13    1    4    4    0    0 -0.35807038654E+02 -0.13653839740E+02 -0.31690140195E+01  0.38452750314E+02  0.00000000000E+00 0. -1.
        -14    1    4    4    0    0  0.30277239640E+02  0.21831217825E+02  0.24343929074E+02  0.44563888909E+02  0.00000000000E+00 0.  1.
</event>
<event>
12    1  0.1594900E-001  0.1785740E+03  0.7818608E-02  0.1169239E+00
         21   -1    0    0  503  502  0.00000000000E+00  0.00000000000E+00  0.10108818606E+03  0.10108818606E+03  0.00000000000E+00 0.  1.
         21   -1    0    0  501  503 -0.00000000000E+00 -0.00000000000E+00 -0.40492536221E+03  0.40492536221E+03  0.00000000000E+00 0.  1.
          6    2    1    2  501    0 -0.45752151980E+02 -0.90515277622E+01 -0.27101531827E+03  0.32444825297E+03  0.17216903482E+03 0.  0.
         24    2    3    3    0    0 -0.62480000221E+02 -0.64150540664E+02 -0.17308796310E+03  0.21074874101E+03  0.80228090912E+02 0.  0.
         -6    2    1    2    0  502  0.45752151980E+02  0.90515277622E+01 -0.32821857873E+02  0.18156529530E+03  0.17237602077E+03 0.  0.
        -24    2    5    5    0    0 -0.28763057179E+02  0.43538881318E+02 -0.28081721469E+02  0.99185365438E+02  0.79537450246E+02 0.  0.
          5    1    3    3  501    0  0.16727848241E+02  0.55099012901E+02 -0.97927355165E+02  0.11369951196E+03  0.47000000000E+01 0. -1.
        -11    1    4    4    0    0 -0.37502587088E+01  0.10229454341E+02 -0.69501510931E+02  0.70350310577E+02  0.00000000000E+00 0.  1.
         12    1    4    4    0    0 -0.58729741512E+02 -0.74379995004E+02 -0.10358645217E+03  0.14039843044E+03  0.00000000000E+00 0. -1.
         -5    1    5    5    0  502  0.74515209158E+02 -0.34487353556E+02 -0.47401364042E+01  0.82379929864E+02  0.47000000000E+01 0.  1.
         11    1    6    6    0    0 -0.53576468376E+02  0.22941778967E+02 -0.32346681187E+02  0.66656364809E+02  0.00000000000E+00 0. -1.
        -12    1    6    6    0    0  0.24813411197E+02  0.20597102351E+02  0.42649597184E+01  0.32529000628E+02  0.00000000000E+00 0.  1.
</event>
<event>
12    1  0.1594900E-001  0.1774005E+03  0.7818608E-02  0.1170542E+00
         21   -1    0    0  503  502  0.00000000000E+00  0.00000000000E+00  0.78217145126E+03  0.78217145126E+03  0.00000000000E+00 0. -1.
         21   -1    0    0  501  503 -0.00000000000E+00 -0.00000000000E+00 -0.40448623717E+02  0.40448623717E+02  0.00000000000E+00 0. -1.
          6    2    1    2  501    0 -0.30537607746E+02 -0.31965303800E+02  0.32934725265E+03  0.37370521333E+03  0.17097265134E+03 0.  0.
         24    2    3    3    0    0 -0.40342565694E+02  0.44400429007E+02  0.18503089857E+03  0.21006792417E+03  0.79329557147E+02 0.  0.
         -6    2    1    2    0  502  0.30537607746E+02  0.31965303800E+02  0.41237557489E+03  0.44891486165E+03  0.17180399328E+03 0.  0.
        -24    2    5    5    0    0  0.71165831107E+02  0.59853823700E+02  0.33424716233E+03  0.35642399223E+03  0.81669094433E+02 0.  0.
          5    1    3    3  501    0  0.98049579481E+01 -0.76365732807E+02  0.14431635409E+03  0.16363728916E+03  0.47000000000E+01 0. -1.
        -11    1    4    4    0    0 -0.18364842639E+02  0.10164967155E+02  0.38553512419E+00  0.20993871480E+02  0.00000000000E+00 0.  1.
         12    1    4    4    0    0 -0.21977723056E+02  0.34235461852E+02  0.18464536344E+03  0.18907405269E+03  0.00000000000E+00 0. -1.
         -5    1    5    5    0  502 -0.40628223360E+02 -0.27888519900E+02  0.78128412564E+02  0.92490869416E+02  0.47000000000E+01 0.  1.
         11    1    6    6    0    0  0.88506670825E+01  0.42057270712E+02  0.55244586331E+02  0.69993661473E+02  0.00000000000E+00 0. -1.
        -12    1    6    6    0    0  0.62315164024E+02  0.17796552988E+02  0.27900257600E+03  0.28643033076E+03  0.00000000000E+00 0.  1.
</event>
<event>
12    1  0.1594900E-001  0.2067499E+03  0.7818608E-02  0.1144545E+00
         21   -1    0    0  501  502  0.00000000000E+00  0.00000000000E+00  0.16922239599E+03  0.16922239599E+03  0.00000000000E+00 0.  1.
         21   -1    0    0  502  503 -0.00000000000E+00 -0.00000000000E+00 -0.33009028794E+03  0.33009028794E+03  0.00000000000E+00 0.  1.
         -6    2    1    2    0  503 -0.77390462237E+02 -0.80759381696E+02 -0.20343598128E+03  0.29005467209E+03  0.17387970826E+03 0.  0.
        -24    2    3    3    0    0 -0.35248037895E+02 -0.52494051848E+02 -0.21932885764E+02  0.10153311766E+03  0.76353604036E+02 0.  0.
          6    2    1    2  501    0  0.77390462237E+02  0.80759381696E+02  0.42568089334E+02  0.20925801184E+03  0.17165521231E+03 0.  0.
         24    2    5    5    0    0  0.47046331447E+02 -0.20989669327E+02 -0.42408404645E+01  0.93125322361E+02  0.77462361285E+02 0.  0.
          5    1    5    5  501    0  0.30344130790E+02  0.10174905102E+03  0.46808929798E+02  0.11613268948E+03  0.47000000000E+01 0. -1.
        -11    1    6    6    0    0  0.14926770114E+02  0.28632569837E+02  0.67861969492E+01  0.32995226784E+02  0.00000000000E+00 0.  1.
         12    1    6    6    0    0  0.32119561333E+02 -0.49622239164E+02 -0.11027037414E+02  0.60130095576E+02  0.00000000000E+00 0. -1.
         -5    1    3    3    0  503 -0.42142424342E+02 -0.28265329848E+02 -0.18150309552E+03  0.18852155443E+03  0.47000000000E+01 0.  1.
         11    1    4    4    0    0  0.20884409269E+02 -0.33014763182E+02 -0.30330776624E+01  0.39183321689E+02  0.00000000000E+00 0. -1.
        -12    1    4    4    0    0 -0.56132447164E+02 -0.19479288666E+02 -0.18899808102E+02  0.62349795973E+02  0.00000000000E+00 0.  1.
</event>
<event>
12    1  0.1594900E-001  0.2484590E+03  0.7818608E-02  0.1114372E+00
         21   -1    0    0  501  502  0.00000000000E+00  0.00000000000E+00  0.57015893850E+02  0.57015893850E+02  0.00000000000E+00 0. -1.
         21   -1    0    0  502  503 -0.00000000000E+00 -0.00000000000E+00 -0.25679394159E+04  0.25679394159E+04  0.00000000000E+00 0. -1.
         -6    2    1    2    0  503  0.58455291392E+02 -0.16895125033E+03 -0.22550313161E+04  0.22686776102E+04  0.17254076792E+03 0.  0.
        -24    2    3    3    0    0  0.87390034288E+02 -0.17806107951E+03 -0.18069666967E+04  0.18195627012E+04  0.79605368243E+02 0.  0.
          6    2    1    2  501    0 -0.58455291392E+02  0.16895125033E+03 -0.25589220594E+03  0.35627769949E+03  0.17173069619E+03 0.  0.
         24    2    5    5    0    0 -0.85183246223E+01  0.22357840155E+02 -0.45549434629E+02  0.95031646888E+02  0.79898861346E+02 0.  0.
          5    1    5    5  501    0 -0.49936966770E+02  0.14659341017E+03 -0.21034277131E+03  0.26124605260E+03  0.47000000000E+01 0. -1.
        -13    1    6    6    0    0 -0.94046859253E+01 -0.27790763603E+02 -0.31277447477E+02  0.42884185660E+02  0.00000000000E+00 0.  1.
         14    1    6    6    0    0  0.88636130301E+00  0.50148603759E+02 -0.14271987152E+02  0.52147461228E+02  0.00000000000E+00 0. -1.
         -5    1    3    3    0  503 -0.28934742896E+02  0.91098291856E+01 -0.44806461939E+03  0.44911490900E+03  0.47000000000E+01 0.  1.
         13    1    4    4    0    0  0.81550044353E+02 -0.13952979695E+03 -0.16472969795E+04  0.16552058218E+04  0.00000000000E+00 0. -1.
        -14    1    4    4    0    0  0.58399899350E+01 -0.38531282565E+02 -0.15966971718E+03  0.16435687939E+03  0.00000000000E+00 0.  1.
</event>
<event>
12    1  0.1594900E-001  0.1755869E+03  0.7818608E-02  0.1172243E+00
         21   -1    0    0  503  502  0.00000000000E+00  0.00000000000E+00  0.13549475759E+03  0.13549475759E+03  0.00000000000E+00 0. -1.
         21   -1    0    0  501  503 -0.00000000000E+00 -0.00000000000E+00 -0.35307900955E+03  0.35307900955E+03  0.00000000000E+00 0. -1.
          6    2    1    2  501    0 -0.22239295212E+02 -0.31193521352E+02 -0.25467387140E+03  0.30911235817E+03  0.17095042314E+03 0.  0.
         24    2    3    3    0    0 -0.65519743804E+02 -0.40486705144E+02 -0.23645582660E+03  0.26101300628E+03  0.79274342601E+02 0.  0.
         -6    2    1    2    0  502  0.22239295212E+02  0.31193521352E+02  0.37089619433E+02  0.17946140898E+03  0.17135674897E+03 0.  0.
        -24    2    5    5    0    0 -0.64997864752E+01 -0.37733916228E+02  0.51870329797E+02  0.10318896398E+03  0.80568824712E+02 0.  0.
          5    1    3    3  501    0  0.43280448592E+02  0.92931837917E+01 -0.18218044797E+02  0.48099351883E+02  0.47000000000E+01 0. -1.
        -13    1    4    4    0    0 -0.18864854064E+02 -0.27869317451E+02 -0.19831009580E+02  0.39062136591E+02  0.00000000000E+00 0.  1.
         14    1    4    4    0    0 -0.46654889740E+02 -0.12617387693E+02 -0.21662481702E+03  0.22195086969E+03  0.00000000000E+00 0. -1.
         -5    1    5    5    0  502  0.28739081687E+02  0.68927437580E+02 -0.14780710364E+02  0.76272445001E+02  0.47000000000E+01 0.  1.
         13    1    6    6    0    0 -0.40037139626E+02 -0.37215821332E+02  0.24520161557E+02  0.59910167998E+02  0.00000000000E+00 0. -1.
        -14    1    6    6    0    0  0.33537353150E+02 -0.51809489577E+00  0.27350168240E+02  0.43278795979E+02  0.00000000000E+00 0.  1.
</event>
<event>
12    1  0.1594900E-001  0.2204558E+03  0.7818608E-02  0.1133562E+00
         21   -1    0    0  503  502  0.00000000000E+00  0.00000000000E+00  0.86215563932E+03  0.86215563932E+03  0.00000000000E+00 0.  1.
         21   -1    0    0  501  503 -0.00000000000E+00 -0.00000000000E+00 -0.30433179236E+03  0.30433179236E+03  0.00000000000E+00 0.  1.
          6    2    1    2  501    0  0.11380674304E+03 -0.77509334088E+02 -0.24756623187E+03  0.33149629934E+03  0.17216586676E+03 0.  0.
         24    2    3    3    0    0 -0.64463550611E-01 -0.21162381533E+01 -0.12277940341E+03  0.14644329838E+03  0.79789567729E+02 0.  0.
         -6    2    1    2    0  502 -0.11380674304E+03  0.77509334088E+02  0.80539007883E+03  0.83499113235E+03  0.17203877584E+03 0.  0.
        -24    2    5    5    0    0 -0.98899147171E+02  0.97458074920E+02  0.78852254481E+03  0.80454786742E+03  0.79059152679E+02 0.  0.
          5    1    3    3  501    0  0.11387120659E+03 -0.75393095935E+02 -0.12478682846E+03  0.18505300096E+03  0.47000000000E+01 0. -1.
        -11    1    4    4    0    0  0.76689453087E+01 -0.32555562479E+02 -0.19994744946E+02  0.38967514624E+02  0.00000000000E+00 0.  1.
         12    1    4    4    0    0 -0.77334088593E+01  0.30439324326E+02 -0.10278465846E+03  0.10747578375E+03  0.00000000000E+00 0. -1.
         -5    1    5    5    0  502 -0.14907595873E+02 -0.19948740832E+02  0.16867534020E+02  0.30443264927E+02  0.47000000000E+01 0.  1.
         13    1    6    6    0    0 -0.13346932750E+02 -0.12586611681E+02  0.14129522357E+03  0.14248123951E+03  0.00000000000E+00 0. -1.
        -14    1    6    6    0    0 -0.85552214421E+02  0.11004468660E+03  0.64722732124E+03  0.66206662792E+03  0.00000000000E+00 0.  1.
</event>
<event>
12    1  0.1594900E-001  0.2055104E+03  0.7818608E-02  0.1146330E+00
         21   -1    0    0  503  502  0.00000000000E+00  0.00000000000E+00  0.16188920690E+03  0.16188920690E+03  0.00000000000E+00 0.  1.
         21   -1    0    0  501  503 -0.00000000000E+00 -0.00000000000E+00 -0.27438078381E+03  0.27438078381E+03  0.00000000000E+00 0.  1.
          6    2    1    2  501    0  0.61248669816E+02 -0.80189601810E+02 -0.11667840799E+03  0.23632257046E+03  0.17903277528E+03 0.  0.
         24    2    3    3    0    0  0.90719972573E+02 -0.51392852602E+02 -0.13696829099E+03  0.19015353535E+03  0.80788090373E+02 0.  0.
         -6    2    1    2    0  502 -0.61248669816E+02  0.80189601810E+02  0.41868310812E+01  0.19994742025E+03  0.17256786931E+03 0.  0.
        -24    2    5    5    0    0 -0.12252607153E+01  0.14424929635E+02  0.56068842430E+02  0.96789120307E+02  0.77555392201E+02 0.  0.
          5    1    3    3  501    0 -0.29471302757E+02 -0.28796749208E+02  0.20289882997E+02  0.46169035112E+02  0.47000000000E+01 0. -1.
        -13    1    4    4    0    0  0.49609205477E+02 -0.63383036513E+02 -0.54423903515E+02  0.97161946560E+02  0.00000000000E+00 0.  1.
         14    1    4    4    0    0  0.41110767096E+02  0.11990183911E+02 -0.82544387474E+02  0.92991588786E+02  0.00000000000E+00 0. -1.
         -5    1    5    5    0  502 -0.60023409100E+02  0.65764672174E+02 -0.51882011348E+02  0.10315829995E+03  0.47000000000E+01 0.  1.
         13    1    6    6    0    0  0.32787006746E+02  0.19259165291E+02  0.99938017620E+01  0.39316400302E+02  0.00000000000E+00 0. -1.
        -14    1    6    6    0    0 -0.34012267461E+02 -0.48342356557E+01  0.46075040668E+02  0.57472720005E+02  0.00000000000E+00 0.  1.
</event>
<event>
12    1  0.1594900E-001  0.1860021E+03  0.7818608E-02  0.1162504E+00
         21   -1    0    0  503  502  0.00000000000E+00  0.00000000000E+00  0.12020967235E+03  0.12020967235E+03  0.00000000000E+00 0. -1.
         21   -1    0    0  501  503 -0.00000000000E+00 -0.00000000000E+00 -0.44607551303E+03  0.44607551303E+03  0.00000000000E+00 0. -1.
          6    2    1    2  501    0  0.69663145196E+02 -0.18307666691E+02 -0.33248127868E+03  0.38016543892E+03  0.16968746512E+03 0.  0.
         24    2    3    3    0    0  0.57906378268E+02  0.37521714553E+02 -0.70351676022E+02  0.11185748159E+03  0.52931183260E+02 0.  0.
         -6    2    1    2    0  502 -0.69663145196E+02  0.18307666691E+02  0.66154379973E+01  0.18611974646E+03  0.17148956687E+03 0.  0.
        -24    2    5    5    0    0 -0.12745697780E+02 -0.47089093243E+02  0.32917006078E+02  0.95399326966E+02  0.75084397728E+02 0.  0.
          5    1    3    3  501    0  0.11756766928E+02 -0.55829381244E+02 -0.26212960265E+03  0.26830795733E+03  0.47000000000E+01 0. -1.
        -13    1    4    4    0    0  0.56075590358E+01  0.88909922868E+01 -0.46446073401E+02  0.47620711845E+02  0.00000000000E+00 0.  1.
         14    1    4    4    0    0  0.52298819232E+02  0.28630722266E+02 -0.23905602621E+02  0.64236769744E+02  0.00000000000E+00 0. -1.
         -5    1    5    5    0  502 -0.56917447416E+02  0.65396759934E+02 -0.26301568080E+02  0.90720419497E+02  0.47000000000E+01 0.  1.
         11    1    6    6    0    0  0.17651547177E+02  0.97022568851E+01 -0.48654796388E+01  0.20721578090E+02  0.00000000000E+00 0. -1.
        -12    1    6    6    0    0 -0.30397244957E+02 -0.56791350128E+02  0.37782485716E+02  0.74677748876E+02  0.00000000000E+00 0.  1.
</event>
<event>
12    1  0.1594900E-001  0.1942101E+03  0.7818608E-02  0.1154819E+00
         21   -1    0    0  501  502  0.00000000000E+00  0.00000000000E+00  0.25280173375E+02  0.25280173375E+02  0.00000000000E+00 0. -1.
         21   -1    0    0  502  503 -0.00000000000E+00 -0.00000000000E+00 -0.15354782982E+04  0.15354782982E+04  0.00000000000E+00 0. -1.
         -6    2    1    2    0  503  0.47291956606E+02  0.72920311895E+02 -0.89079206049E+03  0.91161949029E+03  0.17316379239E+03 0.  0.
        -24    2    3    3    0    0 -0.17630033577E+02  0.11528800323E+02 -0.28185420987E+03  0.29614310698E+03  0.88403692599E+02 0.  0.
          6    2    1    2  501    0 -0.47291956606E+02 -0.72920311895E+02 -0.61940606431E+03  0.64913898126E+03  0.17367683623E+03 0.  0.
         24    2    5    5    0    0 -0.16830905776E+02 -0.34947219362E+02 -0.57803898416E+03  0.58508309399E+03  0.81783691104E+02 0.  0.
          5    1    5    5  501    0 -0.30461050830E+02 -0.37973092533E+02 -0.41367080148E+02  0.64055887271E+02  0.47000000000E+01 0. -1.
        -11    1    6    6    0    0 -0.21973972791E+02  0.91379749006E+01 -0.42687454639E+03  0.42753740938E+03  0.00000000000E+00 0.  1.
         12    1    6    6    0    0  0.51430670150E+01 -0.44085194262E+02 -0.15116443778E+03  0.15754568461E+03  0.00000000000E+00 0. -1.
         -5    1    3    3    0  503  0.64921990183E+02  0.61391511572E+02 -0.60893785062E+03  0.61547638331E+03  0.47000000000E+01 0.  1.
         13    1    4    4    0    0 -0.12308956833E+02  0.12496472099E+02 -0.28766823414E+03  0.28820250722E+03  0.00000000000E+00 0. -1.
        -14    1    4    4    0    0 -0.53210767435E+01 -0.96767177605E+00  0.58140242656E+01  0.79405997593E+01  0.00000000000E+00 0.  1.
</event>
<event>
12    1  0.1594900E-001  0.2299745E+03  0.7818608E-02  0.1126970E+00
         21   -1    0    0  503  502  0.00000000000E+00  0.00000000000E+00  0.25077619140E+03  0.25077619140E+03  0.00000000000E+00 0. -1.
         21   -1    0    0  501  503 -0.00000000000E+00 -0.00000000000E+00 -0.21392332419E+03  0.21392332419E+03  0.00000000000E+00 0.  1.
          6    2    1    2  501    0 -0.39091610052E+02  0.14672593736E+03 -0.15732835339E+02  0.23051199877E+03  0.17271828161E+03 0.  0.
         24    2    3    3    0    0  0.16178373906E+02  0.19126290622E+02 -0.29625232303E+02  0.90685214263E+02  0.81967059980E+02 0.  0.
         -6    2    1    2    0  502  0.39091610052E+02 -0.14672593736E+03  0.52585702554E+02  0.23418751682E+03  0.17035810005E+03 0.  0.
        -24    2    5    5    0    0 -0.41813985580E+02 -0.61339569431E+02  0.19504322836E+02  0.11190499593E+03  0.81433146420E+02 0.  0.
          5    1    3    3  501    0 -0.55269983958E+02  0.12759964673E+03  0.13892396964E+02  0.13982678451E+03  0.47000000000E+01 0. -1.
        -13    1    4    4    0    0  0.97723661523E+01  0.46071631374E+02 -0.39308032509E+02  0.61345055036E+02  0.00000000000E+00 0.  1.
         14    1    4    4    0    0  0.64060077537E+01 -0.26945340752E+02  0.96828002064E+01  0.29340159227E+02  0.00000000000E+00 0. -1.
         -5    1    5    5    0  502  0.80905595632E+02 -0.85386367924E+02  0.33081379718E+02  0.12228252089E+03  0.47000000000E+01 0.  1.
         11    1    6    6    0    0 -0.43546368268E+02 -0.78144274178E+02  0.49314246185E+01  0.89594267255E+02  0.00000000000E+00 0. -1.
        -12    1    6    6    0    0  0.17323826880E+01  0.16804704747E+02  0.14572898217E+02  0.22310728671E+02  0.00000000000E+00 0.  1.
</event>
<event>
12    1  0.1594900E-001  0.1883054E+03  0.7818608E-02  0.1160265E+00
         21   -1    0    0  503  502  0.00000000000E+00  0.00000000000E+00  0.71645237343E+03  0.71645237343E+03  0.00000000000E+00 0.  1.
         21   -1    0    0  501  503 -0.00000000000E+00 -0.00000000000E+00 -0.13340788607E+03  0.13340788607E+03  0.00000000000E+00 0. -1.
          6    2    1    2  501    0 -0.20984334418E+02  0.66679106814E+02 -0.45771073548E+02  0.19378836335E+03  0.17484991570E+03 0.  0.
         24    2    3    3    0    0  0.13806606034E+02  0.71633411075E+02  0.30924831699E+02  0.10929394608E+03  0.75278506112E+02 0.  0.
         -6    2    1    2    0  502  0.20984334418E+02 -0.66679106814E+02  0.62881556090E+03  0.65607189615E+03  0.17359400249E+03 0.  0.
        -24    2    5    5    0    0 -0.12811147382E+02 -0.84291742902E+02  0.26195753098E+03  0.28720980314E+03  0.81231148963E+02 0.  0.
          5    1    3    3  501    0 -0.34790940452E+02 -0.49543042608E+01 -0.76695905247E+02  0.84494417271E+02  0.47000000000E+01 0. -1.
        -11    1    4    4    0    0  0.43204838199E+02  0.57413597070E+02  0.17287943224E+02  0.73904344617E+02  0.00000000000E+00 0.  1.
         12    1    4    4    0    0 -0.29398232164E+02  0.14219814005E+02  0.13636888476E+02  0.35389601467E+02  0.00000000000E+00 0. -1.
         -5    1    5    5    0  502  0.33795481800E+02  0.17612636088E+02  0.36685802992E+03  0.36886209300E+03  0.47000000000E+01 0.  1.
         13    1    6    6    0    0  0.74654150232E+01 -0.91455001251E+02  0.23768083002E+03  0.25477819105E+03  0.00000000000E+00 0. -1.
        -14    1    6    6    0    0 -0.20276562405E+02  0.71632583485E+01  0.24276700964E+02  0.32431612091E+02  0.00000000000E+00 0.  1.
</event>
<event>
12    1  0.1594900E-001  0.2061647E+03  0.7818608E-02  0.1144930E+00
         21   -1    0    0  501  502  0.00000000000E+00  0.00000000000E+00  0.36800348704E+03  0.36800348704E+03  0.00000000000E+00 0.  1.
         21   -1    0    0  502  503 -0.00000000000E+00 -0.00000000000E+00 -0.17450478390E+03  0.17450478390E+03  0.00000000000E+00 0. -1.
         -6    2    1    2    0  503 -0.52972285389E+02 -0.97697123131E+02 -0.61825040145E+02  0.21523527983E+03  0.17364647767E+03 0.  0.
        -24    2    3    3    0    0 -0.38373712221E+02 -0.85696342249E+02 -0.10939895930E+03  0.16382997987E+03  0.77818539835E+02 0.  0.
          6    2    1    2  501    0  0.52972285389E+02  0.97697123131E+02  0.25532374329E+03  0.32727299111E+03  0.17194942842E+03 0.  0.
         24    2    5    5    0    0  0.94338316510E+02  0.99454912507E+02  0.22562579472E+03  0.27610369853E+03  0.80840927217E+02 0.  0.
          5    1    5    5  501    0 -0.41366031121E+02 -0.17577893762E+01  0.29697948566E+02  0.51169292581E+02  0.47000000000E+01 0. -1.
        -11    1    6    6    0    0  0.27828393544E+02  0.85525292691E+02  0.11116945857E+03  0.14299525760E+03  0.00000000000E+00 0.  1.
         12    1    6    6    0    0  0.66509922967E+02  0.13929619816E+02  0.11445633615E+03  0.13310844093E+03  0.00000000000E+00 0. -1.
         -5    1    3    3    0  503 -0.14598573169E+02 -0.12000780882E+02  0.47573919156E+02  0.51405299962E+02  0.47000000000E+01 0.  1.
         11    1    4    4    0    0  0.19760511438E+02 -0.48075687633E+02 -0.38155194835E+02  0.64479209413E+02  0.00000000000E+00 0. -1.
        -12    1    4    4    0    0 -0.58134223659E+02 -0.37620654616E+02 -0.71243764466E+02  0.99350770452E+02  0.00000000000E+00 0.  1.
</event>
<event>
12    1  0.1594900E-001  0.1808194E+03  0.7818608E-02  0.1167100E+00
         21   -1    0    0  501  502  0.00000000000E+00  0.00000000000E+00  0.52330822246E+02  0.52330822246E+02  0.00000000000E+00 0.  1.
         21   -1    0    0  502  503 -0.00000000000E+00 -0.00000000000E+00 -0.63204644956E+03  0.63204644956E+03  0.00000000000E+00 0. -1.
         -6    2    1    2    0  503 -0.39830900955E+01 -0.52252680162E+02 -0.24985229421E+03  0.30820515836E+03  0.17267901763E+03 0.  0.
        -24    2    3    3    0    0  0.55877517582E+02 -0.19236466249E+01 -0.17004171060E+03  0.19636543722E+03  0.80741589071E+02 0.  0.
          6    2    1    2  501    0  0.39830900955E+01  0.52252680162E+02 -0.32986333310E+03  0.37617211344E+03  0.17305904430E+03 0.  0.
         24    2    5    5    0    0  0.56703376869E+02  0.31254919798E+02 -0.28610624733E+03  0.30435911230E+03  0.81151349458E+02 0.  0.
          5    1    5    5  501    0 -0.52720286773E+02  0.20997760364E+02 -0.43757085774E+02  0.71813001143E+02  0.47000000000E+01 0. -1.
        -11    1    6    6    0    0  0.53276659167E+02  0.18735130815E+02 -0.80449170154E+02  0.98292810098E+02  0.00000000000E+00 0.  1.
         12    1    6    6    0    0  0.34267177022E+01  0.12519788983E+02 -0.20565707718E+03  0.20606630220E+03  0.00000000000E+00 0. -1.
         -5    1    3    3    0  503 -0.59860607677E+02 -0.50329033537E+02 -0.79810583615E+02  0.11183972114E+03  0.47000000000E+01 0.  1.
         13    1    4    4    0    0 -0.15564547075E+02 -0.14060546021E+01 -0.79548323019E+02  0.81068907791E+02  0.00000000000E+00 0. -1.
        -14    1    4    4    0    0  0.71442064656E+02 -0.51759202276E+00 -0.90493387576E+02  0.11529652943E+03  0.00000000000E+00 0.  1.
</event>
<event>
12    1  0.1594900E-001  0.2220362E+03  0.7818608E-02  0.1134588E+00
         21   -1    0    0  503  502  0.00000000000E+00  0.00000000000E+00  0.15197209774E+03  0.15197209774E+03  0.00000000000E+00 0.  1.
         21   -1    0    0  501  503 -0.00000000000E+00 -0.00000000000E+00 -0.30768322151E+03  0.30768322151E+03  0.00000000000E+00 0. -1.
          6    2    1    2  501    0  0.13334262595E+02  0.11940964708E+03 -0.84547593386E+02  0.23758864605E+03  0.18671797666E+03 0.  0.
         24    2    3    3    0    0  0.51526290125E+02  0.11538123486E+03 -0.56944347590E+01  0.14975488433E+03  0.80164274223E+02 0.  0.
         -6    2    1    2    0  502 -0.13334262595E+02 -0.11940964708E+03 -0.71163530380E+02  0.22206667320E+03  0.17266410431E+03 0.  0.
        -24    2    5    5    0    0 -0.61507684106E+02 -0.24083193921E+02 -0.49698581950E+02  0.11302243803E+03  0.77077409259E+02 0.  0.
          5    1    3    3  501    0 -0.38192027529E+02  0.40284122231E+01 -0.78853158628E+02  0.87833761717E+02  0.47000000000E+01 0. -1.
        -13    1    4    4    0    0 -0.83029476634E+01  0.37672795598E-01  0.15993321423E+02  0.18020174507E+02  0.00000000000E+00 0.  1.
         14    1    4    4    0    0  0.59829237788E+02  0.11534356206E+03 -0.21687756182E+02  0.13173470982E+03  0.00000000000E+00 0. -1.
         -5    1    5    5    0  502  0.48173421510E+02 -0.95326453159E+02 -0.21464948430E+02  0.10904423517E+03  0.47000000000E+01 0.  1.
         13    1    6    6    0    0  0.13526242834E+02 -0.21620705430E+02 -0.19491868621E+02  0.32099020091E+02  0.00000000000E+00 0. -1.
        -14    1    6    6    0    0 -0.75033926940E+02 -0.24624884910E+01 -0.30206713329E+02  0.80923417944E+02  0.00000000000E+00 0.  1.
</event>
<event>
12    1  0.1594900E-001  0.2398287E+03  0.7818608E-02  0.1119998E+00
         21   -1    0    0  503  502  0.00000000000E+00  0.00000000000E+00  0.14922091662E+03  0.14922091662E+03  0.00000000000E+00 0. -1.
         21   -1    0    0  501  503 -0.00000000000E+00 -0.00000000000E+00 -0.60522682286E+03  0.60522682286E+03  0.00000000000E+00 0. -1.
          6    2    1    2  501    0  0.10168655279E+03  0.13185180109E+03 -0.45560548990E+03  0.51461872401E+03  0.17184590832E+03 0.  0.
         24    2    3    3    0    0 -0.99731508263E+01  0.35899760442E+02 -0.12585026589E+03  0.15346047438E+03  0.79520885526E+02 0.  0.
         -6    2    1    2    0  502 -0.10168655279E+03 -0.13185180109E+03 -0.40041634274E+00  0.23982901547E+03  0.17260574689E+03 0.  0.
        -24    2    5    5    0    0 -0.56178976388E+00 -0.24503999760E+02 -0.30959684000E+02  0.89144819259E+02  0.79922056751E+02 0.  0.
          5    1    3    3  501    0  0.11165970362E+03  0.95952040647E+02 -0.32975522400E+03  0.36115824963E+03  0.47000000000E+01 0. -1.
        -13    1    4    4    0    0  0.27304924278E+01 -0.24837025429E+02 -0.27356157265E+02  0.37049868574E+02  0.00000000000E+00 0.  1.
         14    1    4    4    0    0 -0.12703643254E+02  0.60736785871E+02 -0.98494108629E+02  0.11641060581E+03  0.00000000000E+00 0. -1.
         -5    1    5    5    0  502 -0.10112476303E+03 -0.10734780133E+03  0.30559267658E+02  0.15068419621E+03  0.47000000000E+01 0.  1.
         13    1    6    6    0    0 -0.25662684965E+00 -0.24903888707E+02 -0.57467555183E+02  0.62632175667E+02  0.00000000000E+00 0. -1.
        -14    1    6    6    0    0 -0.30516291423E+00  0.39988894694E+00  0.26507871183E+02  0.26512643592E+02  0.00000000000E+00 0.  1.
</event>
<event>
12    1  0.1594900E-001  0.1755675E+03  0.7818608E-02  0.1172201E+00
         21   -1    0    0  501  502  0.00000000000E+00  0.00000000000E+00  0.19080666479E+03  0.19080666479E+03  0.00000000000E+00 0. -1.
         21   -1    0    0  502  503 -0.00000000000E+00 -0.00000000000E+00 -0.20766965022E+03  0.20766965022E+03  0.00000000000E+00 0. -1.
         -6    2    1    2    0  503  0.52822204752E+01 -0.29699716995E+02 -0.10246530019E+03  0.20315174090E+03  0.17280485249E+03 0.  0.
        -24    2    3    3    0    0 -0.59382173275E+02  0.10383958094E+01 -0.83013634486E+02  0.12880947367E+03  0.78570326635E+02 0.  0.
          6    2    1    2  501    0 -0.52822204752E+01  0.29699716995E+02  0.85602314761E+02  0.19532457411E+03  0.17295652031E+03 0.  0.
         24    2    5    5    0    0 -0.46349006279E+02  0.99384505039E+01 -0.77078255407E+01  0.91373331540E+02  0.77734625237E+02 0.  0.
          5    1    5    5  501    0  0.41066785804E+02  0.19761266491E+02  0.93310140302E+02  0.10395124257E+03  0.47000000000E+01 0. -1.
        -13    1    6    6    0    0 -0.26626599698E+02  0.40241904820E+02 -0.21301671572E+02  0.52746070250E+02  0.00000000000E+00 0.  1.
         14    1    6    6    0    0 -0.19722406581E+02 -0.30303454317E+02  0.13593846031E+02  0.38627261291E+02  0.00000000000E+00 0. -1.
         -5    1    3    3    0  503  0.64664393750E+02 -0.30738112804E+02 -0.19451665702E+02  0.74342267227E+02  0.47000000000E+01 0.  1.
         11    1    4    4    0    0 -0.16468867428E+01 -0.53090822219E+01 -0.68784564292E+02  0.69008802879E+02  0.00000000000E+00 0. -1.
        -12    1    4    4    0    0 -0.57735286532E+02  0.63474780313E+01 -0.14229070194E+02  0.59800670790E+02  0.00000000000E+00 0.  1.
</event>
<event>
12    1  0.1594900E-001  0.2517428E+03  0.7818608E-02  0.1112551E+00
         21   -1    0    0  501  502  0.00000000000E+00  0.00000000000E+00  0.23904256836E+03  0.23904256836E+03  0.00000000000E+00 0. -1.
         21   -1    0    0  502  503 -0.00000000000E+00 -0.00000000000E+00 -0.47826572083E+03  0.47826572083E+03  0.00000000000E+00 0. -1.
         -6    2    1    2    0  503  0.30805561323E+02  0.17899198195E+03 -0.36003799735E+03  0.43807602041E+03  0.17116111682E+03 0.  0.
        -24    2    3    3    0    0 -0.42114793667E+02  0.11059988295E+03 -0.16116073780E+03  0.21543480288E+03  0.80208359467E+02 0.  0.
          6    2    1    2  501    0 -0.30805561323E+02 -0.17899198195E+03  0.12081484489E+03  0.27923226878E+03  0.17431959435E+03 0.  0.
         24    2    5    5    0    0  0.16965754230E+02 -0.15680052517E+03  0.38382806041E+02  0.18129509314E+03  0.80749176401E+02 0.  0.
          5    1    5    5  501    0 -0.47771315553E+02 -0.22191456780E+02  0.82432038844E+02  0.97937175637E+02  0.47000000000E+01 0. -1.
        -11    1    6    6    0    0 -0.90678203764E+01 -0.12872799813E+03  0.54074232259E+02  0.13991835284E+03  0.00000000000E+00 0.  1.
         12    1    6    6    0    0  0.26033574606E+02 -0.28072527042E+02 -0.15691426218E+02  0.41376740302E+02  0.00000000000E+00 0. -1.
         -5    1    3    3    0  503  0.72920354990E+02  0.68392098992E+02 -0.19887725956E+03  0.22264121753E+03  0.47000000000E+01 0.  1.
         11    1    4    4    0    0  0.13086591709E+01  0.91611417123E+02 -0.80901275781E+02  0.12222675959E+03  0.00000000000E+00 0. -1.
        -12    1    4    4    0    0 -0.43423452838E+02  0.18988465832E+02 -0.80259462017E+02  0.93208043291E+02  0.00000000000E+00 0.  1.
</event>
<event>
12    1  0.1594900E-001  0.3288446E+03  0.7818608E-02  0.1071654E+00
         21   -1    0    0  503  502  0.00000000000E+00  0.00000000000E+00  0.13713320415E+03  0.13713320415E+03  0.00000000000E+00 0.  1.
         21   -1    0    0  501  503 -0.00000000000E+00 -0.00000000000E+00 -0.10608076170E+04  0.10608076170E+04  0.00000000000E+00 0. -1.
          6    2    1    2  501    0 -0.16457538426E+03  0.22675990685E+03 -0.76530756325E+03  0.83294927991E+03  0.17205732789E+03 0.  0.
         24    2    3    3    0    0 -0.59678850671E+02  0.89830748406E+02 -0.49157589597E+03  0.50936931628E+03  0.78607317056E+02 0.  0.
         -6    2    1    2    0  502  0.16457538426E+03 -0.22675990685E+03 -0.15836684962E+03  0.36499154125E+03  0.17214428153E+03 0.  0.
        -24    2    5    5    0    0  0.14268785490E+02 -0.60450695121E+02 -0.61793483081E+02  0.12086179569E+03  0.83254155013E+02 0.  0.
          5    1    3    3  501    0 -0.10489653359E+03  0.13692915845E+03 -0.27373166728E+03  0.32357996363E+03  0.47000000000E+01 0. -1.
        -11    1    4    4    0    0  0.44953304441E+01  0.18697040884E+02 -0.18478509018E+02  0.26669132516E+02  0.00000000000E+00 0.  1.
         12    1    4    4    0    0 -0.64174181115E+02  0.71133707522E+02 -0.47309738695E+03  0.48270018376E+03  0.00000000000E+00 0. -1.
         -5    1    5    5    0  502  0.15030659877E+03 -0.16630921173E+03 -0.96573366536E+02  0.24412974556E+03  0.47000000000E+01 0.  1.
         11    1    6    6    0    0 -0.17775514063E+01 -0.49885782525E+02 -0.80063274191E+02  0.94349768740E+02  0.00000000000E+00 0. -1.
        -12    1    6    6    0    0  0.16046336896E+02 -0.10564912596E+02  0.18269791110E+02  0.26512026953E+02  0.00000000000E+00 0.  1.
</event>
<event>
12    1  0.1594900E-001  0.2189932E+03  0.7818608E-02  0.1134793E+00
         21   -1    0    0  503  502  0.00000000000E+00  0.00000000000E+00  0.45951908923E+03  0.45951908923E+03  0.00000000000E+00 0. -1.
         21   -1    0    0  501  503 -0.00000000000E+00 -0.00000000000E+00 -0.10399343812E+03  0.10399343812E+03  0.00000000000E+00 0.  1.
          6    2    1    2  501    0 -0.38563797238E+02 -0.13004909498E+03  0.18180469164E+03  0.28398260866E+03  0.17086030130E+03 0.  0.
         24    2    3    3    0    0 -0.81436855293E+02 -0.81992117759E+02  0.76103588583E+02  0.16011822576E+03  0.80569356763E+02 0.  0.
         -6    2    1    2    0  502  0.38563797238E+02  0.13004909498E+03  0.17372095947E+03  0.27952991869E+03  0.17192460592E+03 0.  0.
        -24    2    5    5    0    0  0.34349383380E+02  0.71317893904E+02  0.18826317720E+03  0.21869669290E+03  0.78224660233E+02 0.  0.
          5    1    3    3  501    0  0.42873058055E+02 -0.48056977219E+02  0.10570110305E+03  0.12386438291E+03  0.47000000000E+01 0. -1.
        -13    1    4    4    0    0 -0.73763538217E+02 -0.86734263881E+02  0.88905269313E+02  0.14445774127E+03  0.00000000000E+00 0.  1.
         14    1    4    4    0    0 -0.76733170762E+01  0.47421461218E+01 -0.12801680730E+02  0.15660484485E+02  0.00000000000E+00 0. -1.
         -5    1    5    5    0  502  0.42144138587E+01  0.58731201074E+02 -0.14542217723E+02  0.60833225791E+02  0.47000000000E+01 0.  1.
         13    1    6    6    0    0 -0.14596237982E+02  0.35045705321E+01  0.82541605799E+02  0.83895463916E+02  0.00000000000E+00 0. -1.
        -14    1    6    6    0    0  0.48945621361E+02  0.67813323372E+02  0.10572157140E+03  0.13480122898E+03  0.00000000000E+00 0.  1.
</event>
<event>
12    1  0.1594900E-001  0.1711518E+03  0.7818608E-02  0.1176933E+00
         21   -1    0    0  501  502  0.00000000000E+00  0.00000000000E+00  0.27659521241E+03  0.27659521241E+03  0.00000000000E+00 0.  1.
         21   -1    0    0  502  503 -0.00000000000E+00 -0.00000000000E+00 -0.19170719537E+03  0.19170719537E+03  0.00000000000E+00 0.  1.
         -6    2    1    2    0  503 -0.13827008972E+02 -0.68433234638E+01 -0.11473983479E+03  0.20605383932E+03  0.17045509015E+03 0.  0.
        -24    2    3    3    0    0  0.38943673343E+02 -0.51202675484E+02 -0.78637546280E+02  0.12809255239E+03  0.78009708516E+02 0.  0.
          6    2    1    2  501    0  0.13827008972E+02  0.68433234638E+01  0.19962785183E+03  0.26224856847E+03  0.16936651140E+03 0.  0.
         24    2    5    5    0    0  0.24150623405E+02  0.26729706381E+02  0.31184044026E+02  0.92256063841E+02  0.79000043668E+02 0.  0.
          5    1    5    5  501    0 -0.10323614432E+02 -0.19886382917E+02  0.16844380781E+03  0.16999250463E+03  0.47000000000E+01 0. -1.
        -13    1    6    6    0    0  0.31668468678E+01  0.46141581506E+02  0.41226970691E+02  0.61957546557E+02  0.00000000000E+00 0.  1.
         14    1    6    6    0    0  0.20983776537E+02 -0.19411875125E+02 -0.10042926665E+02  0.30298517284E+02  0.00000000000E+00 0. -1.
         -5    1    3    3    0  503 -0.52770682315E+02  0.44359352020E+02 -0.36102288510E+02  0.77961286927E+02  0.47000000000E+01 0.  1.
         11    1    4    4    0    0  0.39782555131E+02  0.70161026377E+01 -0.46466053191E+02  0.61570865579E+02  0.00000000000E+00 0. -1.
        -12    1    4    4    0    0 -0.83888178836E+00 -0.58218778122E+02 -0.32171493089E+02  0.66521686812E+02  0.00000000000E+00 0.  1.
</event>
<event>
12    1  0.1594900E-001  0.1862672E+03  0.7818608E-02  0.1164457E+00
         21   -1    0    0  503  502  0.00000000000E+00  0.00000000000E+00  0.20627188252E+03  0.20627188252E+03  0.00000000000E+00 0. -1.
         21   -1    0    0  501  503 -0.00000000000E+00 -0.00000000000E+00 -0.71572511541E+03  0.71572511541E+03  0.00000000000E+00 0. -1.
          6    2    1    2  501    0  0.67872984340E+02  0.18938439197E+02 -0.66311136645E+03  0.68877583156E+03  0.17242405674E+03 0.  0.
         24    2    3    3    0    0  0.37690386589E+02  0.34837145454E+02 -0.16883911885E+03  0.19330544615E+03  0.78905991621E+02 0.  0.
         -6    2    1    2    0  502 -0.67872984340E+02 -0.18938439197E+02  0.15365813356E+03  0.23322116638E+03  0.16067322103E+03 0.  0.
        -24    2    5    5    0    0 -0.46971771904E+02 -0.68807317217E+02  0.13310465011E+03  0.17518409755E+03  0.77664830492E+02 0.  0.
          5    1    3    3  501    0  0.30182597750E+02 -0.15898706258E+02 -0.49427224760E+03  0.49547038540E+03  0.47000000000E+01 0. -1.
        -13    1    4    4    0    0  0.64493160525E+01 -0.29886440094E+01  0.74620546429E+01  0.10305723170E+02  0.00000000000E+00 0.  1.
         14    1    4    4    0    0  0.31241070537E+02  0.37825789464E+02 -0.17630117349E+03  0.18299972298E+03  0.00000000000E+00 0. -1.
         -5    1    5    5    0  502 -0.20901212436E+02  0.49868878020E+02  0.20553483452E+02  0.58037068829E+02  0.47000000000E+01 0.  1.
         11    1    6    6    0    0 -0.35183119696E+02 -0.28471727834E+01  0.12930125896E+02  0.37591840340E+02  0.00000000000E+00 0. -1.
        -12    1    6    6    0    0 -0.11788652208E+02 -0.65960144434E+02  0.12017452421E+03  0.13759225721E+03  0.00000000000E+00 0.  1.
</event>
<event>
12    1  0.1594900E-001  0.1794490E+03  0.7818608E-02  0.1168354E+00
         21   -1    0    0  503  502  0.00000000000E+00  0.00000000000E+00  0.10711054589E+04  0.10711054589E+04  0.00000000000E+00 0.  1.
         21   -1    0    0  501  503 -0.00000000000E+00 -0.00000000000E+00 -0.30349410001E+02  0.30349410001E+02  0.00000000000E+00 0. -1.
          6    2    1    2  501    0  0.32530450120E+02  0.39264869220E+02  0.57471988037E+03  0.60206356782E+03  0.17198150676E+03 0.  0.
         24    2    3    3    0    0 -0.46421226296E+01  0.86907376090E+02  0.40366384992E+03  0.42058667073E+03  0.79838603078E+02 0.  0.
         -6    2    1    2    0  502 -0.32530450120E+02 -0.39264869220E+02  0.46603616855E+03  0.49939130110E+03  0.17205232075E+03 0.  0.
        -24    2    5    5    0    0 -0.82223341406E+02 -0.60223611224E+01  0.24713546944E+03  0.27242422450E+03  0.79637121576E+02 0.  0.
          5    1    3    3  501    0  0.37172572749E+02 -0.47642506870E+02  0.17105603045E+03  0.18147689709E+03  0.47000000000E+01 0. -1.
        -11    1    4    4    0    0  0.22729698398E+02  0.71959762771E+00  0.14027577819E+03  0.14210718123E+03  0.00000000000E+00 0.  1.
         12    1    4    4    0    0 -0.27371821028E+02  0.86187778462E+02  0.26338807173E+03  0.27847948950E+03  0.00000000000E+00 0. -1.
         -5    1    5    5    0  502  0.49692891286E+02 -0.33242508098E+02  0.21890069912E+03  0.22696707660E+03  0.47000000000E+01 0.  1.
         11    1    6    6    0    0 -0.52851906430E+02  0.36330678661E+01  0.49890377240E+02  0.72770687344E+02  0.00000000000E+00 0. -1.
        -12    1    6    6    0    0 -0.29371434976E+02 -0.96554289885E+01  0.19724509220E+03  0.19965353715E+03  0.00000000000E+00 0.  1.
</event>
<event>
12    1  0.1594900E-001  0.2132378E+03  0.7818608E-02  0.1139445E+00
         21   -1    0    0  501  502  0.00000000000E+00  0.00000000000E+00  0.54238697939E+02  0.54238697939E+02  0.00000000000E+00 0. -1.
         21   -1    0    0  502  503 -0.00000000000E+00 -0.00000000000E+00 -0.83022091317E+03  0.83022091317E+03  0.00000000000E+00 0. -1.
         -6    2    1    2    0  503 -0.83519793960E+02  0.91151501772E+02 -0.37784735480E+03  0.43281625095E+03  0.17110561446E+03 0.  0.
        -24    2    3    3    0    0 -0.27285405793E+02  0.64985481078E+02 -0.93955487729E+02  0.14218994581E+03  0.80142004559E+02 0.  0.
          6    2    1    2  501    0  0.83519793960E+02 -0.91151501772E+02 -0.39813486043E+03  0.45164336015E+03  0.17374177801E+03 0.  0.
         24    2    5    5    0    0  0.10454951739E+03 -0.20988258023E+02 -0.20194207862E+03  0.24217062285E+03  0.80590935548E+02 0.  0.
          5    1    5    5  501    0 -0.21029723428E+02 -0.70163243749E+02 -0.19619278181E+03  0.20947273730E+03  0.47000000000E+01 0. -1.
        -11    1    6    6    0    0  0.12279118729E+02  0.23390070016E+01 -0.10703790129E+03  0.10776530064E+03  0.00000000000E+00 0.  1.
         12    1    6    6    0    0  0.92270398660E+02 -0.23327265024E+02 -0.94904177336E+02  0.13440532221E+03  0.00000000000E+00 0. -1.
         -5    1    3    3    0  503 -0.56234388167E+02  0.26166020694E+02 -0.28389186707E+03  0.29062630514E+03  0.47000000000E+01 0.  1.
         13    1    4    4    0    0  0.56037867945E+01  0.19522047975E+02 -0.82443750647E+02  0.84908685094E+02  0.00000000000E+00 0. -1.
        -14    1    4    4    0    0 -0.32889192588E+02  0.45463433103E+02 -0.11511737082E+02  0.57281260716E+02  0.00000000000E+00 0.  1.
</event>
<event>
12    1  0.1594900E-001  0.2045074E+03  0.7818608E-02  0.1146338E+00
         21   -1    0    0  501  502  0.00000000000E+00  0.00000000000E+00  0.29419142286E+03  0.29419142286E+03  0.00000000000E+00 0. -1.
         21   -1    0    0  502  503 -0.00000000000E+00 -0.00000000000E+00 -0.15058176996E+03  0.15058176996E+03  0.00000000000E+00 0. -1.
         -6    2    1    2    0  503  0.10957745205E+03 -0.14098548624E+02  0.15413847307E+02  0.20340737842E+03  0.17009111627E+03 0.  0.
        -24    2    3    3    0    0  0.73628048080E+02 -0.43081493328E+02 -0.46892213910E+02  0.12571242366E+03  0.79546396566E+02 0.  0.
          6    2    1    2  501    0 -0.10957745205E+03  0.14098548624E+02  0.12819580559E+03  0.24136581441E+03  0.17209678882E+03 0.  0.
         24    2    5    5    0    0 -0.12940227326E+03 -0.27120954717E+02  0.77388226423E+02  0.17284157714E+03  0.80029861237E+02 0.  0.
          5    1    5    5  501    0  0.19824821212E+02  0.41219503341E+02  0.50807579165E+02  0.68524237262E+02  0.47000000000E+01 0. -1.
        -13    1    6    6    0    0 -0.90340147867E+01 -0.26241277751E+02 -0.32702025614E+01  0.27944808212E+02  0.00000000000E+00 0.  1.
         14    1    6    6    0    0 -0.12036825848E+03 -0.87967696585E+00  0.80658428984E+02  0.14489676893E+03  0.00000000000E+00 0. -1.
         -5    1    3    3    0  503  0.35949403972E+02  0.28982944704E+02  0.62306061217E+02  0.77694954753E+02  0.47000000000E+01 0.  1.
         11    1    4    4    0    0  0.78467942278E+02 -0.58450668263E+01 -0.36579532474E+02  0.86772374449E+02  0.00000000000E+00 0. -1.
        -12    1    4    4    0    0 -0.48398941974E+01 -0.37236426502E+02 -0.10312681436E+02  0.38940049215E+02  0.00000000000E+00 0.  1.
</event>
<event>
12    1  0.1594900E-001  0.2021373E+03  0.7818608E-02  0.1148981E+00
         21   -1    0    0  501  502  0.00000000000E+00  0.00000000000E+00  0.14633645274E+03  0.14633645274E+03  0.00000000000E+00 0. -1.
         21   -1    0    0  502  503 -0.00000000000E+00 -0.00000000000E+00 -0.40500840359E+03  0.40500840359E+03  0.00000000000E+00 0. -1.
         -6    2    1    2    0  503  0.83460220708E+02 -0.48845559766E+02 -0.28808349641E+03  0.35192556866E+03  0.17750495153E+03 0.  0.
        -24    2    3    3    0    0  0.98167090374E+02  0.10579120003E+02 -0.24866451945E+03  0.27896304180E+03  0.78978731589E+02 0.  0.
          6    2    1    2  501    0 -0.83460220708E+02  0.48845559766E+02  0.29411545559E+02  0.19941928768E+03  0.17190554422E+03 0.  0.
         24    2    5    5    0    0 -0.69536753341E+02 -0.23243721214E+02  0.55413840198E+02  0.12138764857E+03  0.79300926209E+02 0.  0.
          5    1    5    5  501    0 -0.13923467367E+02  0.72089280980E+02 -0.26002294639E+02  0.78031639110E+02  0.47000000000E+01 0. -1.
        -11    1    6    6    0    0  0.76730763450E+01 -0.49629027229E+01 -0.13494618311E+02  0.16297583483E+02  0.00000000000E+00 0.  1.
         12    1    6    6    0    0 -0.77209829686E+02 -0.18280818491E+02  0.68908458509E+02  0.10509006508E+03  0.00000000000E+00 0. -1.
         -5    1    3    3    0  503 -0.14706869666E+02 -0.59424679769E+02 -0.39418976966E+02  0.72962526862E+02  0.47000000000E+01 0.  1.
         13    1    4    4    0    0  0.17495825258E+02  0.25248097354E+01 -0.15101082834E+03  0.15204193119E+03  0.00000000000E+00 0. -1.
        -14    1    4    4    0    0  0.80671265116E+02  0.80543102673E+01 -0.97653691111E+02  0.12692111060E+03  0.00000000000E+00 0.  1.
</event>
<event>
12    1  0.1594900E-001  0.2087970E+03  0.7818608E-02  0.1143753E+00
         21   -1    0    0  501  502  0.00000000000E+00  0.00000000000E+00  0.84708216479E+03  0.84708216479E+03  0.00000000000E+00 0. -1.
         21   -1    0    0  502  503 -0.00000000000E+00 -0.00000000000E+00 -0.50171688844E+02  0.50171688844E+02  0.00000000000E+00 0. -1.
         -6    2    1    2    0  503  0.10958366472E+03  0.70715884494E+01  0.37657294715E+03  0.43058492546E+03  0.17758830641E+03 0.  0.
        -24    2    3    3    0    0  0.26156181493E+02  0.53750239710E+02  0.13460403901E+03  0.17037331168E+03  0.85648023420E+02 0.  0.
          6    2    1    2  501    0 -0.10958366472E+03 -0.70715884494E+01  0.42033752880E+03  0.46666892817E+03  0.17040441153E+03 0.  0.
         24    2    5    5    0    0 -0.76069337325E+02  0.54372695161E+02  0.24260346775E+03  0.27559277428E+03  0.91389280619E+02 0.  0.
          5    1    5    5  501    0 -0.33514327391E+02 -0.61444283611E+02  0.17773406105E+03  0.19107615389E+03  0.47000000000E+01 0. -1.
        -11    1    6    6    0    0  0.16256832186E+02 -0.51425773302E+01  0.14360518185E+02  0.22292491490E+02  0.00000000000E+00 0.  1.
         12    1    6    6    0    0 -0.92326169510E+02  0.59515272492E+02  0.22824294956E+03  0.25330028279E+03  0.00000000000E+00 0. -1.
         -5    1    3    3    0  503  0.83427483223E+02 -0.46678651261E+02  0.24196890814E+03  0.26021161378E+03  0.47000000000E+01 0.  1.
         13    1    4    4    0    0  0.54723941414E+02  0.48269532520E+02  0.78502209769E+02  0.10717861014E+03  0.00000000000E+00 0. -1.
        -14    1    4    4    0    0 -0.28567759921E+02  0.54807071908E+01  0.56101829237E+02  0.63194701534E+02  0.00000000000E+00 0.  1.
</event>
<event>
12    1  0.1594900E-001  0.2006840E+03  0.7818608E-02  0.1150783E+00
         21   -1    0    0  501  502  0.00000000000E+00  0.00000000000E+00  0.14891310723E+03  0.14891310723E+03  0.00000000000E+00 0.  1.
         21   -1    0    0  502  503 -0.00000000000E+00 -0.00000000000E+00 -0.26382864108E+03  0.26382864108E+03  0.00000000000E+00 0.  1.
         -6    2    1    2    0  503 -0.51344575342E+02 -0.75988767179E+02 -0.34902705183E+02  0.20369650280E+03  0.17850352453E+03 0.  0.
        -24    2    3    3    0    0 -0.12579356518E+02 -0.10285761317E+03 -0.67152732208E+02  0.14636560957E+03  0.78584180494E+02 0.  0.
          6    2    1    2  501    0  0.51344575342E+02  0.75988767179E+02 -0.80012828667E+02  0.20904524551E+03  0.16996265403E+03 0.  0.
         24    2    5    5    0    0  0.12876016896E+02  0.37739755071E+02  0.23346866162E+02  0.92220019509E+02  0.79808363689E+02 0.  0.
          5    1    5    5  501    0  0.38468558446E+02  0.38249012108E+02 -0.10335969483E+03  0.11682522601E+03  0.47000000000E+01 0. -1.
        -13    1    6    6    0    0  0.29619797918E+02 -0.10932763278E+02 -0.71762367710E+01  0.32378327872E+02  0.00000000000E+00 0.  1.
         14    1    6    6    0    0 -0.16743781022E+02  0.48672518349E+02  0.30523102933E+02  0.59841691637E+02  0.00000000000E+00 0. -1.
         -5    1    3    3    0  503 -0.38765218824E+02  0.26868845990E+02  0.32250027025E+02  0.57330893229E+02  0.47000000000E+01 0.  1.
         13    1    4    4    0    0 -0.95989054331E+01 -0.15397350287E+02 -0.55121999126E+02  0.58031475676E+02  0.00000000000E+00 0. -1.
        -14    1    4    4    0    0 -0.29804510853E+01 -0.87460262882E+02 -0.12030733082E+02  0.88334133892E+02  0.00000000000E+00 0.  1.
</event>
<event>
12    1  0.1594900E-001  0.2201653E+03  0.7818608E-02  0.1133956E+00
         21   -1    0    0  501  502  0.00000000000E+00  0.00000000000E+00  0.52845420693E+02  0.52845420693E+02  0.00000000000E+00 0.  1.
         21   -1    0    0  502  503 -0.00000000000E+00 -0.00000000000E+00 -0.13118144006E+04  0.13118144006E+04  0.00000000000E+00 0.  1.
         -6    2    1    2    0  503 -0.11685399521E+03 -0.67396484026E+02 -0.25216328700E+03  0.33406268063E+03  0.17266849459E+03 0.  0.
        -24    2    3    3    0    0  0.19025411138E+02 -0.31991321943E+02 -0.82726750650E+02  0.11395459713E+03  0.68967557486E+02 0.  0.
          6    2    1    2  501    0  0.11685399521E+03  0.67396484026E+02 -0.10068056929E+04  0.10305971406E+04  0.17399891036E+03 0.  0.
         24    2    5    5    0    0  0.63256186195E+02  0.22350291936E+02 -0.87127227201E+03  0.87797577016E+03  0.85001178621E+02 0.  0.
          5    1    5    5  501    0  0.53597809020E+02  0.45046192090E+02 -0.13553342089E+03  0.15262137049E+03  0.47000000000E+01 0. -1.
        -11    1    6    6    0    0  0.81940380889E+02  0.49423126225E+01 -0.62046281499E+03  0.62586960084E+03  0.00000000000E+00 0.  1.
         12    1    6    6    0    0 -0.18684194694E+02  0.17407979314E+02 -0.25080945702E+03  0.25210616932E+03  0.00000000000E+00 0. -1.
         -5    1    3    3    0  503 -0.13587940635E+03 -0.35405162082E+02 -0.16943653634E+03  0.22010808350E+03  0.47000000000E+01 0.  1.
         11    1    4    4    0    0  0.37922744281E+02 -0.16539596736E+02 -0.79113293539E+02  0.89278250479E+02  0.00000000000E+00 0. -1.
        -12    1    4    4    0    0 -0.18897333143E+02 -0.15451725207E+02 -0.36134571108E+01  0.24676346652E+02  0.00000000000E+00 0.  1.
</event>
<event>
12    1  0.1594900E-001  0.2129346E+03  0.7818608E-02  0.1142445E+00
         21   -1    0    0  501  502  0.00000000000E+00  0.00000000000E+00  0.32030057356E+03  0.32030057356E+03  0.00000000000E+00 0.  1.
         21   -1    0    0  502  503 -0.00000000000E+00 -0.00000000000E+00 -0.18201405329E+03  0.18201405329E+03  0.00000000000E+00 0. -1.
         -6    2    1    2    0  503 -0.18885213167E+02 -0.97239039287E+02 -0.65260535312E+02  0.20774285754E+03  0.17054640234E+03 0.  0.
        -24    2    3    3    0    0 -0.19692307909E+02 -0.10416426808E+02 -0.85096652219E+02  0.11855553236E+03  0.79483866885E+02 0.  0.
          6    2    1    2  501    0  0.18885213167E+02  0.97239039287E+02  0.20354705559E+03  0.29457176932E+03  0.18849148894E+03 0.  0.
         24    2    5    5    0    0 -0.26535630041E+02  0.30898618854E+02  0.16412685093E+02  0.90842863658E+02  0.79524746695E+02 0.  0.
          5    1    5    5  501    0  0.45420843208E+02  0.66340420434E+02  0.18713437049E+03  0.20372890566E+03  0.47000000000E+01 0. -1.
        -13    1    6    6    0    0 -0.40568691443E+02  0.49183365911E+02  0.21416556068E+02  0.67256903597E+02  0.00000000000E+00 0.  1.
         14    1    6    6    0    0  0.14033061402E+02 -0.18284747057E+02 -0.50038709748E+01  0.23585960060E+02  0.00000000000E+00 0. -1.
         -5    1    3    3    0  503  0.80709474221E+00 -0.86822612479E+02  0.19836116906E+02  0.89187325185E+02  0.47000000000E+01 0.  1.
         11    1    4    4    0    0  0.13739467198E+02 -0.36963606186E+02 -0.46862486040E+02  0.61246826358E+02  0.00000000000E+00 0. -1.
        -12    1    4    4    0    0 -0.33431775107E+02  0.26547179378E+02 -0.38234166179E+02  0.57308705997E+02  0.00000000000E+00 0.  1.
</event>
<event>
12    1  0.1594900E-001  0.2094975E+03  0.7818608E-02  0.1142036E+00
         21   -1    0    0  503  502  0.00000000000E+00  0.00000000000E+00  0.21461091522E+03  0.21461091522E+03  0.00000000000E+00 0. -1.
         21   -1    0    0  501  503 -0.00000000000E+00 -0.00000000000E+00 -0.21634837365E+03  0.21634837365E+03  0.00000000000E+00 0.  1.
          6    2    1    2  501    0 -0.11870351844E+03 -0.80875898513E+01 -0.52026195755E+02  0.21586088334E+03  0.17243335382E+03 0.  0.
         24    2    3    3    0    0 -0.10399355882E+03  0.25352893907E+02  0.19722504737E+02  0.13520969061E+03  0.80220033261E+02 0.  0.
         -6    2    1    2    0  502  0.11870351844E+03  0.80875898513E+01  0.50288737320E+02  0.21509840553E+03  0.17199544344E+03 0.  0.
        -24    2    5    5    0    0  0.56836326038E+02 -0.10366728446E+01 -0.39268450925E+02  0.10576688386E+03  0.80082331607E+02 0.  0.
          5    1    3    3  501    0 -0.14709959617E+02 -0.33440483758E+02 -0.71748700491E+02  0.80651192726E+02  0.47000000000E+01 0. -1.
        -11    1    4    4    0    0 -0.92457070603E+02  0.24246019023E+02 -0.16661324417E+02  0.97024631276E+02  0.00000000000E+00 0.  1.
         12    1    4    4    0    0 -0.11536488216E+02  0.11068748838E+01  0.36383829154E+02  0.38185059333E+02  0.00000000000E+00 0. -1.
         -5    1    5    5    0  502  0.61867192397E+02  0.91242626959E+01  0.89557188245E+02  0.10933152167E+03  0.47000000000E+01 0.  1.
         11    1    6    6    0    0  0.69723205661E+02 -0.25499570735E+01 -0.59642145493E+01  0.70024278246E+02  0.00000000000E+00 0. -1.
        -12    1    6    6    0    0 -0.12886879623E+02  0.15132842289E+01 -0.33304236376E+02  0.35742605615E+02  0.00000000000E+00 0.  1.
</event>
<event>
12    1  0.1594900E-001  0.1775822E+03  0.7818608E-02  0.1171258E+00
         21   -1    0    0  501  502  0.00000000000E+00  0.00000000000E+00  0.67218347950E+02  0.67218347950E+02  0.00000000000E+00 0. -1.
         21   -1    0    0  502  503 -0.00000000000E+00 -0.00000000000E+00 -0.59949392772E+03  0.59949392772E+03  0.00000000000E+00 0. -1.
         -6    2    1    2    0  503 -0.16248183303E+02 -0.11410929561E+02 -0.42574761886E+03  0.45962858026E+03  0.17205575855E+03 0.  0.
        -24    2    3    3    0    0  0.54052840737E+01 -0.48450121843E+02 -0.21018226800E+03  0.23978480639E+03  0.10461135786E+03 0.  0.
          6    2    1    2  501    0  0.16248183303E+02  0.11410929561E+02 -0.10652796091E+03  0.20708369541E+03  0.17646880086E+03 0.  0.
         24    2    5    5    0    0  0.71654850561E+02  0.21920030028E+02 -0.32731409976E+02  0.11408713150E+03  0.79558928162E+02 0.  0.
          5    1    5    5  501    0 -0.55406667258E+02 -0.10509100467E+02 -0.73796550930E+02  0.92996563907E+02  0.47000000000E+01 0. -1.
        -11    1    6    6    0    0  0.66341401840E+02 -0.11436580501E+02 -0.41637050317E+02  0.79155675291E+02  0.00000000000E+00 0.  1.
         12    1    6    6    0    0  0.53134487213E+01  0.33356610528E+02  0.89056403409E+01  0.34931456212E+02  0.00000000000E+00 0. -1.
         -5    1    3    3    0  503 -0.21653467377E+02  0.37039192282E+02 -0.21556535086E+03  0.21984377387E+03  0.47000000000E+01 0.  1.
         13    1    4    4    0    0 -0.41779756392E+02  0.10896249952E+01 -0.11657983634E+03  0.12384503853E+03  0.00000000000E+00 0. -1.
        -14    1    4    4    0    0  0.47185040466E+02 -0.49539746838E+02 -0.93602431656E+02  0.11593976786E+03  0.00000000000E+00 0.  1.
</event>
<event>
12    1  0.1594900E-001  0.1858540E+03  0.7818608E-02  0.1162705E+00
         21   -1    0    0  501  502  0.00000000000E+00  0.00000000000E+00  0.17675719450E+03  0.17675719450E+03  0.00000000000E+00 0. -1.
         21   -1    0    0  502  503 -0.00000000000E+00 -0.00000000000E+00 -0.45240022119E+03  0.45240022119E+03  0.00000000000E+00 0.  1.
         -6    2    1    2    0  503 -0.24034490072E+01  0.67063340791E+02 -0.37553666594E+03  0.41815876580E+03  0.17124747503E+03 0.  0.
        -24    2    3    3    0    0 -0.11475867111E+01  0.58657409094E+02 -0.38892164207E+03  0.40162140010E+03  0.81226207292E+02 0.  0.
          6    2    1    2  501    0  0.24034490072E+01 -0.67063340791E+02  0.99893639251E+02  0.21099864989E+03  0.17331596247E+03 0.  0.
         24    2    5    5    0    0  0.24100556483E+01 -0.73954544980E+02  0.13589989392E+03  0.17403881880E+03  0.79659564330E+02 0.  0.
          5    1    5    5  501    0 -0.66066411012E-02  0.68912041895E+01 -0.36006254671E+02  0.36959831091E+02  0.47000000000E+01 0. -1.
        -11    1    6    6    0    0  0.10187789885E+02 -0.46972891966E+02  0.15642187257E+02  0.50546232942E+02  0.00000000000E+00 0.  1.
         12    1    6    6    0    0 -0.77777342368E+01 -0.26981653014E+02  0.12025770667E+03  0.12349258586E+03  0.00000000000E+00 0. -1.
         -5    1    3    3    0  503 -0.12558622961E+01  0.84059316970E+01  0.13384976138E+02  0.16537365692E+02  0.47000000000E+01 0.  1.
         13    1    4    4    0    0  0.30582579633E+02  0.48903382483E+01 -0.20656197490E+03  0.20887091482E+03  0.00000000000E+00 0. -1.
        -14    1    4    4    0    0 -0.31730166344E+02  0.53767070845E+02 -0.18235966718E+03  0.19275048528E+03  0.00000000000E+00 0.  1.
</event>
<event>
12    1  0.1594900E-001  0.2394568E+03  0.7818608E-02  0.1120282E+00
         21   -1    0    0  501  502  0.00000000000E+00  0.00000000000E+00  0.33241340381E+03  0.33241340381E+03  0.00000000000E+00 0. -1.
         21   -1    0    0  502  503 -0.00000000000E+00 -0.00000000000E+00 -0.18042427640E+03  0.18042427640E+03  0.00000000000E+00 0. -1.
         -6    2    1    2    0  503  0.16185367656E+03 -0.36970554054E+02  0.20533900652E+02  0.24033563816E+03  0.17255765243E+03 0.  0.
        -24    2    3    3    0    0  0.18590659514E+03 -0.12980442814E+02  0.52280778345E+01  0.20277999223E+03  0.79766148460E+02 0.  0.
          6    2    1    2  501    0 -0.16185367656E+03  0.36970554054E+02  0.13145522676E+03  0.27250204204E+03  0.17150350373E+03 0.  0.
         24    2    5    5    0    0 -0.32273968615E+02  0.53085258497E+02  0.92165670176E+02  0.13606031944E+03  0.78474492968E+02 0.  0.
          5    1    5    5  501    0 -0.12957970795E+03 -0.16114704443E+02  0.39289556580E+02  0.13644172261E+03  0.47000000000E+01 0. -1.
        -13    1    6    6    0    0  0.20922504816E+01  0.41794008165E+02  0.55731933469E+01  0.42215839619E+02  0.00000000000E+00 0.  1.
         14    1    6    6    0    0 -0.34366219097E+02  0.11291250331E+02  0.86592476829E+02  0.93844479819E+02  0.00000000000E+00 0. -1.
         -5    1    3    3    0  503 -0.24052918574E+02 -0.23990111240E+02  0.15305822817E+02  0.37555645932E+02  0.47000000000E+01 0.  1.
         11    1    4    4    0    0  0.53491121996E+02 -0.11171309615E+02 -0.34374016203E+02  0.64557503675E+02  0.00000000000E+00 0. -1.
        -12    1    4    4    0    0  0.13241547314E+03 -0.18091331987E+01  0.39602094038E+02  0.13822248856E+03  0.00000000000E+00 0.  1.
</event>
<event>
12    1  0.1594900E-001  0.2012068E+03  0.7818608E-02  0.1149522E+00
         21   -1    0    0  501  502  0.00000000000E+00  0.00000000000E+00  0.13219768911E+04  0.13219768911E+04  0.00000000000E+00 0. -1.
         21   -1    0    0  502  503 -0.00000000000E+00 -0.00000000000E+00 -0.35117580633E+02  0.35117580633E+02  0.00000000000E+00 0. -1.
         -6    2    1    2    0  503  0.84126124448E+02 -0.61092885884E+02  0.39095569967E+03  0.43969367444E+03  0.17226323669E+03 0.  0.
        -24    2    3    3    0    0  0.10335432134E+03 -0.46508093984E+02  0.39209706339E+03  0.41508001113E+03  0.75539327364E+02 0.  0.
          6    2    1    2  501    0 -0.84126124448E+02  0.61092885884E+02  0.89590361083E+03  0.91740079733E+03  0.16784337199E+03 0.  0.
         24    2    5    5    0    0 -0.11248391474E+03  0.23755346760E+02  0.76810853840E+03  0.78119533989E+03  0.84014788767E+02 0.  0.
          5    1    5    5  501    0  0.28357790291E+02  0.37337539123E+02  0.12779507244E+03  0.13620545744E+03  0.47000000000E+01 0. -1.
        -11    1    6    6    0    0  0.12976487143E+02 -0.45980235951E+01  0.73692644206E+02  0.74967571987E+02  0.00000000000E+00 0.  1.
         12    1    6    6    0    0 -0.12546040188E+03  0.28353370355E+02  0.69441589419E+03  0.70622776790E+03  0.00000000000E+00 0. -1.
         -5    1    3    3    0  503 -0.19228196887E+02 -0.14584791900E+02 -0.11413637168E+01  0.24613663308E+02  0.47000000000E+01 0.  1.
         13    1    4    4    0    0  0.43329274411E+02 -0.11679901137E+01  0.56807404345E+02  0.71455380555E+02  0.00000000000E+00 0. -1.
        -14    1    4    4    0    0  0.60025046924E+02 -0.45340103870E+02  0.33528965905E+03  0.34362463058E+03  0.00000000000E+00 0.  1.
</event>
<event>
12    1  0.1594900E-001  0.2017325E+03  0.7818608E-02  0.1148647E+00
         21   -1    0    0  503  502  0.00000000000E+00  0.00000000000E+00  0.51457536119E+03  0.51457536119E+03  0.00000000000E+00 0. -1.
         21   -1    0    0  501  503 -0.00000000000E+00 -0.00000000000E+00 -0.11604548852E+03  0.11604548852E+03  0.00000000000E+00 0. -1.
          6    2    1    2  501    0 -0.13390362358E+02 -0.10405620134E+03  0.19124136914E+02  0.20091780283E+03  0.17027987561E+03 0.  0.
         24    2    3    3    0    0 -0.65140040010E+02 -0.78626129453E+02 -0.19568997833E+02  0.13131919386E+03  0.80227750527E+02 0.  0.
         -6    2    1    2    0  502  0.13390362358E+02  0.10405620134E+03  0.37940573576E+03  0.42970304689E+03  0.17230496608E+03 0.  0.
        -24    2    5    5    0    0 -0.12858624749E+02  0.38249523864E+01  0.88370222233E+02  0.12073852995E+03  0.81169710770E+02 0.  0.
          5    1    3    3  501    0  0.51749677652E+02 -0.25430071890E+02  0.38693134747E+02  0.69598608966E+02  0.47000000000E+01 0. -1.
        -11    1    4    4    0    0 -0.39595773545E+02 -0.69458553450E+02  0.20857474823E+02  0.82627780958E+02  0.00000000000E+00 0.  1.
         12    1    4    4    0    0 -0.25544266465E+02 -0.91675760028E+01 -0.40426472656E+02  0.48691412902E+02  0.00000000000E+00 0. -1.
         -5    1    5    5    0  502  0.26248987107E+02  0.10023124896E+03  0.29103551353E+03  0.30896451694E+03  0.47000000000E+01 0.  1.
         13    1    6    6    0    0 -0.24487102732E+02  0.44036550846E+01  0.10073081877E+03  0.10375793091E+03  0.00000000000E+00 0. -1.
        -14    1    6    6    0    0  0.11628477983E+02 -0.57870269815E+00 -0.12360596534E+02  0.16980599038E+02  0.00000000000E+00 0.  1.
</event>
<event>
12    1  0.1594900E-001  0.1862184E+03  0.7818608E-02  0.1163878E+00
         21   -1    0    0  501  502  0.00000000000E+00  0.00000000000E+00  0.64154775862E+02  0.64154775862E+02  0.00000000000E+00 0. -1.
         21   -1    0    0  502  503 -0.00000000000E+00 -0.00000000000E+00 -0.52158851735E+03  0.52158851735E+03  0.00000000000E+00 0. -1.
         -6    2    1    2    0  503 -0.45328651011E+02  0.55236548223E+01 -0.26195278534E+03  0.32139784187E+03  0.18053286030E+03 0.  0.
        -24    2    3    3    0    0 -0.58098614812E+01 -0.65122003990E+02 -0.12299662895E+03  0.16051450764E+03  0.79762814239E+02 0.  0.
          6    2    1    2  501    0  0.45328651011E+02 -0.55236548223E+01 -0.19548095615E+03  0.26434545134E+03  0.17198987198E+03 0.  0.
         24    2    5    5    0    0  0.33958850424E+02 -0.57685684235E+02 -0.70219029421E+02  0.12810012127E+03  0.83654571242E+02 0.  0.
          5    1    5    5  501    0  0.11369800587E+02  0.52162029412E+02 -0.12526192672E+03  0.13624533007E+03  0.47000000000E+01 0. -1.
        -13    1    6    6    0    0 -0.25134070114E+02 -0.28222522834E+02 -0.10887051911E+02  0.39328872028E+02  0.00000000000E+00 0.  1.
         14    1    6    6    0    0  0.59092920538E+02 -0.29463161400E+02 -0.59331977510E+02  0.88771249245E+02  0.00000000000E+00 0. -1.
         -5    1    3    3    0  503 -0.39518789530E+02  0.70645658812E+02 -0.13895615639E+03  0.16088333424E+03  0.47000000000E+01 0.  1.
         11    1    4    4    0    0  0.12335881164E+02  0.63486047480E+01  0.33062736672E+01  0.14262194498E+02  0.00000000000E+00 0. -1.
        -12    1    4    4    0    0 -0.18145742645E+02 -0.71470608738E+02 -0.12630290261E+03  0.14625231314E+03  0.00000000000E+00 0.  1.
</event>
<event>
12    1  0.1594900E-001  0.2190763E+03  0.7818608E-02  0.1134585E+00
         21   -1    0    0  503  502  0.00000000000E+00  0.00000000000E+00  0.23479265402E+03  0.23479265402E+03  0.00000000000E+00 0. -1.
         21   -1    0    0  501  503 -0.00000000000E+00 -0.00000000000E+00 -0.21048018515E+03  0.21048018515E+03  0.00000000000E+00 0. -1.
          6    2    1    2  501    0  0.13279409105E+03  0.18863297945E+02  0.50129448259E+02  0.22468054727E+03  0.17314240413E+03 0.  0.
         24    2    3    3    0    0  0.12720454870E+03  0.45775631082E+02 -0.10589128434E+02  0.15786473915E+03  0.80825371112E+02 0.  0.
         -6    2    1    2    0  502 -0.13279409105E+03 -0.18863297945E+02 -0.25816979393E+02  0.22059229191E+03  0.17321763246E+03 0.  0.
        -24    2    5    5    0    0 -0.46895008867E+02 -0.72000976569E+02 -0.18923728453E+02  0.11924204712E+03  0.80481524706E+02 0.  0.
          5    1    3    3  501    0  0.55895423564E+01 -0.26912333137E+02  0.60718576693E+02  0.66815808117E+02  0.47000000000E+01 0. -1.
        -13    1    4    4    0    0 -0.65122518383E+01  0.16911534226E+01  0.13442370902E+02  0.15032190770E+02  0.00000000000E+00 0.  1.
         14    1    4    4    0    0  0.13371680054E+03  0.44084477660E+02 -0.24031499336E+02  0.14283254838E+03  0.00000000000E+00 0. -1.
         -5    1    5    5    0  502 -0.85899082187E+02  0.53137678624E+02 -0.68932509398E+01  0.10135024479E+03  0.47000000000E+01 0.  1.
         11    1    6    6    0    0 -0.69825420951E+02 -0.55996433858E+02 -0.17787595511E+02  0.91255622127E+02  0.00000000000E+00 0. -1.
        -12    1    6    6    0    0  0.22930412084E+02 -0.16004542711E+02 -0.11361329417E+01  0.27986424991E+02  0.00000000000E+00 0.  1.
</event>
<event>
12    1  0.1594900E-001  0.1884004E+03  0.7818608E-02  0.1160037E+00
         21   -1    0    0  503  502  0.00000000000E+00  0.00000000000E+00  0.60804955744E+03  0.60804955744E+03  0.00000000000E+00 0.  1.
         21   -1    0    0  501  503 -0.00000000000E+00 -0.00000000000E+00 -0.97127471464E+02  0.97127471464E+02  0.00000000000E+00 0.  1.
          6    2    1    2  501    0  0.71312288263E+02 -0.23484593462E+02  0.32482852697E+02  0.19118015396E+03  0.17279394365E+03 0.  0.
         24    2    3    3    0    0  0.61615701468E+02 -0.78959744741E+02  0.41248282910E+02  0.13399240202E+03  0.78875896190E+02 0.  0.
         -6    2    1    2    0  502 -0.71312288263E+02  0.23484593462E+02  0.47843923328E+03  0.51399687495E+03  0.17219674481E+03 0.  0.
        -24    2    5    5    0    0 -0.55751545440E+02  0.58374986168E+02  0.16891135636E+03  0.20208491170E+03  0.76101191860E+02 0.  0.
          5    1    3    3  501    0  0.96965867947E+01  0.55475151279E+02 -0.87654302136E+01  0.57187751938E+02  0.47000000000E+01 0. -1.
        -11    1    4    4    0    0  0.33557665794E+02 -0.47388145322E+02 -0.18392403295E+02  0.60910046377E+02  0.00000000000E+00 0.  1.
         12    1    4    4    0    0  0.28058035674E+02 -0.31571599419E+02  0.59640686206E+02  0.73082355646E+02  0.00000000000E+00 0. -1.
         -5    1    5    5    0  502 -0.15560742823E+02 -0.34890392706E+02  0.30952787693E+03  0.31191196325E+03  0.47000000000E+01 0.  1.
         11    1    6    6    0    0  0.15731940700E+02  0.29563895696E+02  0.43727681904E+02  0.55078380982E+02  0.00000000000E+00 0. -1.
        -12    1    6    6    0    0 -0.71483486140E+02  0.28811090472E+02  0.12518367445E+03  0.14700653072E+03  0.00000000000E+00 0.  1.
</event>
<event>
12    1  0.1594900E-001  0.1993178E+03  0.7818608E-02  0.1154627E+00
         21   -1    0    0  503  502  0.00000000000E+00  0.00000000000E+00  0.10412962953E+04  0.10412962953E+04  0.00000000000E+00 0. -1.
         21   -1    0    0  501  503 -0.00000000000E+00 -0.00000000000E+00 -0.44084869686E+02  0.44084869686E+02  0.00000000000E+00 0. -1.
          6    2    1    2  501    0  0.44745757440E+02 -0.27501246103E+02  0.22664694066E+03  0.28945578850E+03  0.17221299730E+03 0.  0.
         24    2    3    3    0    0  0.61339084024E+02  0.27575483807E+02  0.19966506079E+03  0.22574631899E+03  0.81070176386E+02 0.  0.
         -6    2    1    2    0  502 -0.44745757440E+02  0.27501246103E+02  0.77056448492E+03  0.79592537645E+03  0.19227344620E+03 0.  0.
        -24    2    5    5    0    0 -0.10331852423E+03  0.41267123031E+02  0.48495161408E+03  0.50400574648E+03  0.80411638383E+02 0.  0.
          5    1    3    3  501    0 -0.16593326584E+02 -0.55076729909E+02  0.26981879869E+02  0.63709469515E+02  0.47000000000E+01 0. -1.
        -13    1    4    4    0    0 -0.58874168855E+01 -0.73258872881E+01  0.10061502940E+03  0.10105302788E+03  0.00000000000E+00 0.  1.
         14    1    4    4    0    0  0.67226500909E+02  0.34901371095E+02  0.99050031388E+02  0.12469329111E+03  0.00000000000E+00 0. -1.
         -5    1    5    5    0  502  0.58572766788E+02 -0.13765876928E+02  0.28561287083E+03  0.29191962997E+03  0.47000000000E+01 0.  1.
         11    1    6    6    0    0 -0.72649182816E+02  0.36948610652E+02  0.44993309550E+03  0.45725582995E+03  0.00000000000E+00 0. -1.
        -12    1    6    6    0    0 -0.30669341412E+02  0.43185123788E+01  0.35018518579E+02  0.46749916527E+02  0.00000000000E+00 0.  1.
</event>
<event>
12    1  0.1594900E-001  0.5142173E+03  0.7818608E-02  0.1010248E+00
         21   -1    0    0  503  502  0.00000000000E+00  0.00000000000E+00  0.70806347407E+03  0.70806347407E+03  0.00000000000E+00 0. -1.
         21   -1    0    0  501  503 -0.00000000000E+00 -0.00000000000E+00 -0.43314054072E+03  0.43314054072E+03  0.00000000000E+00 0.  1.
          6    2    1    2  501    0 -0.36774915111E+03 -0.31577318605E+03 -0.76919495139E+02  0.51813695173E+03  0.16612389608E+03 0.  0.
         24    2    3    3    0    0 -0.16471151942E+03 -0.22291939173E+03 -0.49107286163E+02  0.29309980820E+03  0.81688629403E+02 0.  0.
         -6    2    1    2    0  502  0.36774915111E+03  0.31577318605E+03  0.35184242849E+03  0.62306706305E+03  0.17166050045E+03 0.  0.
        -24    2    5    5    0    0  0.24586798439E+03  0.13157219642E+03  0.16639215614E+03  0.33462483852E+03  0.80778241583E+02 0.  0.
          5    1    3    3  501    0 -0.20303763168E+03 -0.92853794318E+02 -0.27812208976E+02  0.22503714353E+03  0.47000000000E+01 0. -1.
        -11    1    4    4    0    0 -0.13274337131E+03 -0.11541048644E+03 -0.41205366595E+02  0.18066063556E+03  0.00000000000E+00 0.  1.
         12    1    4    4    0    0 -0.31968148116E+02 -0.10750890529E+03 -0.79019195673E+01  0.11243917264E+03  0.00000000000E+00 0. -1.
         -5    1    5    5    0  502  0.12188116672E+03  0.18420098962E+03  0.18545027234E+03  0.28844222453E+03  0.47000000000E+01 0.  1.
         11    1    6    6    0    0  0.12222330350E+03  0.93368962518E+02  0.12667330500E+03  0.19925467442E+03  0.00000000000E+00 0. -1.
        -12    1    6    6    0    0  0.12364468089E+03  0.38203233905E+02  0.39718851146E+02  0.13537016410E+03  0.00000000000E+00 0.  1.
</event>
<event>
12    1  0.1594900E-001  0.2469684E+03  0.7818608E-02  0.1115571E+00
         21   -1    0    0  501  502  0.00000000000E+00  0.00000000000E+00  0.10900669081E+04  0.10900669081E+04  0.00000000000E+00 0. -1.
         21   -1    0    0  502  503 -0.00000000000E+00 -0.00000000000E+00 -0.59620328027E+02  0.59620328027E+02  0.00000000000E+00 0. -1.
         -6    2    1    2    0  503 -0.13152002336E+03  0.11645900476E+03  0.36177783406E+03  0.43686799036E+03  0.17061718391E+03 0.  0.
        -24    2    3    3    0    0 -0.11243680198E+03  0.13051009954E+02  0.22126919443E+03  0.26130560674E+03  0.80673418252E+02 0.  0.
          6    2    1    2  501    0  0.13152002336E+03 -0.11645900476E+03  0.66866874599E+03  0.71281924575E+03  0.17358908063E+03 0.  0.
         24    2    5    5    0    0  0.55237869377E+02 -0.34210676740E+01  0.19696266885E+03  0.22177418117E+03  0.85595377189E+02 0.  0.
          5    1    5    5  501    0  0.76282153983E+02 -0.11303793709E+03  0.47170607713E+03  0.49104506457E+03  0.47000000000E+01 0. -1.
        -11    1    6    6    0    0 -0.37251550111E+01 -0.28491568532E+02  0.24384592549E+02  0.37686265549E+02  0.00000000000E+00 0.  1.
         12    1    6    6    0    0  0.58963024388E+02  0.25070500858E+02  0.17257807630E+03  0.18408791563E+03  0.00000000000E+00 0. -1.
         -5    1    3    3    0  503 -0.19083221385E+02  0.10340799481E+03  0.14050863964E+03  0.17556238362E+03  0.47000000000E+01 0.  1.
         11    1    4    4    0    0 -0.10532469150E+03  0.17868214643E+02  0.12405984714E+03  0.16371746824E+03  0.00000000000E+00 0. -1.
        -12    1    4    4    0    0 -0.71121104745E+01 -0.48172046885E+01  0.97209347282E+02  0.97588138497E+02  0.00000000000E+00 0.  1.
</event>
<event>
12    1  0.1594900E-001  0.2299193E+03  0.7818608E-02  0.1126778E+00
         21   -1    0    0  503  502  0.00000000000E+00  0.00000000000E+00  0.14252891167E+03  0.14252891167E+03  0.00000000000E+00 0. -1.
         21   -1    0    0  501  503 -0.00000000000E+00 -0.00000000000E+00 -0.64423782620E+03  0.64423782620E+03  0.00000000000E+00 0. -1.
          6    2    1    2  501    0 -0.15093719694E+03 -0.17678233132E+02 -0.50729998709E+03  0.55677950612E+03  0.17191737605E+03 0.  0.
         24    2    3    3    0    0 -0.24524680262E+02  0.28978534183E+02 -0.14701823392E+03  0.17209520702E+03  0.81001134488E+02 0.  0.
         -6    2    1    2    0  502  0.15093719694E+03  0.17678233132E+02  0.55910725683E+01  0.22998723175E+03  0.17253495104E+03 0.  0.
        -24    2    5    5    0    0  0.12783463068E+03 -0.48101430015E+02  0.23192967363E+02  0.15792746939E+03  0.75813794791E+02 0.  0.
          5    1    3    3  501    0 -0.12641251668E+03 -0.46656767315E+02 -0.36028175317E+03  0.38468429910E+03  0.47000000000E+01 0. -1.
        -13    1    4    4    0    0  0.17973432787E+02  0.19826783196E+02 -0.10372129040E+02  0.28700638998E+02  0.00000000000E+00 0.  1.
         14    1    4    4    0    0 -0.42498113049E+02  0.91517509871E+01 -0.13664610488E+03  0.14339456802E+03  0.00000000000E+00 0. -1.
         -5    1    5    5    0  502  0.23102566254E+02  0.65779663147E+02 -0.17601894795E+02  0.72059762362E+02  0.47000000000E+01 0.  1.
         11    1    6    6    0    0  0.11104333727E+03 -0.21978590371E+02  0.43005515816E+02  0.12109151736E+03  0.00000000000E+00 0. -1.
        -12    1    6    6    0    0  0.16791293419E+02 -0.26122839644E+02 -0.19812548452E+02  0.36835952030E+02  0.00000000000E+00 0.  1.
</event>
<event>
12    1  0.1594900E-001  0.1837976E+03  0.7818608E-02  0.1164263E+00
         21   -1    0    0  501  502  0.00000000000E+00  0.00000000000E+00  0.10820725563E+03  0.10820725563E+03  0.00000000000E+00 0.  1.
         21   -1    0    0  502  503 -0.00000000000E+00 -0.00000000000E+00 -0.31685338755E+03  0.31685338755E+03  0.00000000000E+00 0.  1.
         -6    2    1    2    0  503  0.54819289162E+01  0.63029839278E+02 -0.13165398836E+03  0.22578859455E+03  0.17217695721E+03 0.  0.
        -24    2    3    3    0    0 -0.31624832168E+02  0.82326255322E+02 -0.39627469438E+02  0.12459455532E+03  0.78585778332E+02 0.  0.
          6    2    1    2  501    0 -0.54819289162E+01 -0.63029839278E+02 -0.76992143555E+02  0.19927204864E+03  0.17256519642E+03 0.  0.
         24    2    5    5    0    0  0.14276416284E+02 -0.10794351870E+02  0.23127265499E+02  0.84533544119E+02  0.79314031404E+02 0.  0.
          5    1    5    5  501    0 -0.19758345200E+02 -0.52235487408E+02 -0.10011940905E+03  0.11473850452E+03  0.47000000000E+01 0. -1.
        -11    1    6    6    0    0 -0.48435780747E+01 -0.30151386927E+02 -0.17830519160E+02  0.35362321695E+02  0.00000000000E+00 0.  1.
         12    1    6    6    0    0  0.19119994359E+02  0.19357035057E+02  0.40957784659E+02  0.49171222423E+02  0.00000000000E+00 0. -1.
         -5    1    3    3    0  503  0.37106761084E+02 -0.19296416044E+02 -0.92026518924E+02  0.10119403923E+03  0.47000000000E+01 0.  1.
         11    1    4    4    0    0 -0.20838488865E+02 -0.11338912320E+02 -0.10212228600E+02  0.25828340322E+02  0.00000000000E+00 0. -1.
        -12    1    4    4    0    0 -0.10786343302E+02  0.93665167643E+02 -0.29415240838E+02  0.98766214997E+02  0.00000000000E+00 0.  1.
</event>
<event>
12    1  0.1594900E-001  0.2066806E+03  0.7818608E-02  0.1144527E+00
         21   -1    0    0  503  502  0.00000000000E+00  0.00000000000E+00  0.12037333332E+04  0.12037333332E+04  0.00000000000E+00 0.  1.
         21   -1    0    0  501  503 -0.00000000000E+00 -0.00000000000E+00 -0.40864131780E+02  0.40864131780E+02  0.00000000000E+00 0. -1.
          6    2    1    2  501    0  0.46463958777E+02  0.10560617059E+03  0.34852916657E+03  0.40443880664E+03  0.16966615937E+03 0.  0.
         24    2    3    3    0    0  0.67739695589E+02  0.87142893118E+01  0.17061452082E+03  0.20068305873E+03  0.80621151996E+02 0.  0.
         -6    2    1    2    0  502 -0.46463958777E+02 -0.10560617059E+03  0.81434003489E+03  0.84015865838E+03  0.17147978333E+03 0.  0.
        -24    2    5    5    0    0  0.31403763035E+02 -0.93555824356E+02  0.49454252780E+03  0.51076356357E+03  0.81044539990E+02 0.  0.
          5    1    3    3  501    0 -0.21275736812E+02  0.96891881282E+02  0.17791464575E+03  0.20375574791E+03  0.47000000000E+01 0. -1.
        -13    1    4    4    0    0  0.20504979607E+02 -0.23079685837E+02  0.12190163022E+03  0.12575028245E+03  0.00000000000E+00 0.  1.
         14    1    4    4    0    0  0.47234715982E+02  0.31793975149E+02  0.48712890604E+02  0.74932776278E+02  0.00000000000E+00 0. -1.
         -5    1    5    5    0  502 -0.77867721812E+02 -0.12050346237E+02  0.31979750709E+03  0.32939509481E+03  0.47000000000E+01 0.  1.
         13    1    6    6    0    0  0.16191831643E+02 -0.10649129581E+03  0.41423737631E+03  0.42801305521E+03  0.00000000000E+00 0. -1.
        -14    1    6    6    0    0  0.15211931393E+02  0.12935471451E+02  0.80305151484E+02  0.82750508356E+02  0.00000000000E+00 0.  1.
</event>
<event>
12    1  0.1594900E-001  0.2142289E+03  0.7818608E-02  0.1139310E+00
         21   -1    0    0  501  502  0.00000000000E+00  0.00000000000E+00  0.15313440891E+03  0.15313440891E+03  0.00000000000E+00 0. -1.
         21   -1    0    0  502  503 -0.00000000000E+00 -0.00000000000E+00 -0.39002842096E+03  0.39002842096E+03  0.00000000000E+00 0. -1.
         -6    2    1    2    0  503 -0.12748974427E+03 -0.18823453068E+02 -0.25555419650E+03  0.33346956087E+03  0.17113165515E+03 0.  0.
        -24    2    3    3    0    0 -0.11502612749E+03 -0.72074855677E+02 -0.20735207135E+03  0.26041760338E+03  0.79979071209E+02 0.  0.
          6    2    1    2  501    0  0.12748974427E+03  0.18823453068E+02  0.18660184451E+02  0.20969326901E+03  0.16436273089E+03 0.  0.
         24    2    5    5    0    0  0.10567611833E+03  0.71813994992E+02  0.20503484218E+02  0.15216658334E+03  0.80059879829E+02 0.  0.
          5    1    5    5  501    0  0.21813625941E+02 -0.52990541924E+02 -0.18432997673E+01  0.57526685670E+02  0.47000000000E+01 0. -1.
        -13    1    6    6    0    0  0.53618417360E+02  0.84574002927E+01 -0.23448901115E+02  0.59129631010E+02  0.00000000000E+00 0.  1.
         14    1    6    6    0    0  0.52057700967E+02  0.63356594700E+02  0.43952385333E+02  0.93036952328E+02  0.00000000000E+00 0. -1.
         -5    1    3    3    0  503 -0.12463616781E+02  0.53251402609E+02 -0.48202125154E+02  0.73051957486E+02  0.47000000000E+01 0.  1.
         11    1    4    4    0    0 -0.17173480420E+02 -0.60802904517E+01 -0.97471878160E+02  0.99159797265E+02  0.00000000000E+00 0. -1.
        -12    1    4    4    0    0 -0.97852647067E+02 -0.65994565226E+02 -0.10988019319E+03  0.16125780612E+03  0.00000000000E+00 0.  1.
</event>
<event>
12    1  0.1594900E-001  0.2224110E+03  0.7818608E-02  0.1132475E+00
         21   -1    0    0  501  502  0.00000000000E+00  0.00000000000E+00  0.14010007300E+03  0.14010007300E+03  0.00000000000E+00 0.  1.
         21   -1    0    0  502  503 -0.00000000000E+00 -0.00000000000E+00 -0.38686526537E+03  0.38686526537E+03  0.00000000000E+00 0. -1.
         -6    2    1    2    0  503  0.91885004782E+02  0.10367473396E+03 -0.20436965139E+03  0.30054967789E+03  0.17138217499E+03 0.  0.
        -24    2    3    3    0    0  0.76836805493E+02 -0.36087079380E+01 -0.80040293702E+02  0.13557675772E+03  0.77831170917E+02 0.  0.
          6    2    1    2  501    0 -0.91885004782E+02 -0.10367473396E+03 -0.42395540982E+02  0.22641566047E+03  0.17399817484E+03 0.  0.
         24    2    5    5    0    0 -0.25977690840E+02 -0.57582343109E+02 -0.86346966200E+02  0.13464365873E+03  0.81746862972E+02 0.  0.
          5    1    5    5  501    0 -0.65907313941E+02 -0.46092390848E+02  0.43951425218E+02  0.91772001742E+02  0.47000000000E+01 0. -1.
        -11    1    6    6    0    0 -0.20776010183E+02 -0.78360485540E+02 -0.74828297468E+02  0.11032353509E+03  0.00000000000E+00 0.  1.
         12    1    6    6    0    0 -0.52016806573E+01  0.20778142431E+02 -0.11518668732E+02  0.24320123641E+02  0.00000000000E+00 0. -1.
         -5    1    3    3    0  503  0.15048199289E+02  0.10728344190E+03 -0.12432935769E+03  0.16497292017E+03  0.47000000000E+01 0.  1.
         13    1    4    4    0    0  0.97567880020E+01 -0.33047869959E+02 -0.37230795154E+02  0.50729564642E+02  0.00000000000E+00 0. -1.
        -14    1    4    4    0    0  0.67080017491E+02  0.29439162021E+02 -0.42809498548E+02  0.84847193077E+02  0.00000000000E+00 0.  1.
</event>
<event>
12    1  0.1594900E-001  0.1823562E+03  0.7818608E-02  0.1165551E+00
         21   -1    0    0  501  502  0.00000000000E+00  0.00000000000E+00  0.10653640545E+03  0.10653640545E+03  0.00000000000E+00 0.  1.
         21   -1    0    0  502  503 -0.00000000000E+00 -0.00000000000E+00 -0.37629309604E+03  0.37629309604E+03  0.00000000000E+00 0.  1.
         -6    2    1    2    0  503  0.60262604065E+02 -0.44031636150E+01 -0.23460303588E+03  0.29711585154E+03  0.17201242831E+03 0.  0.
        -24    2    3    3    0    0  0.58852608027E+02  0.29795007984E+02 -0.24086371555E+03  0.26200475444E+03  0.79245125459E+02 0.  0.
          6    2    1    2  501    0 -0.60262604065E+02  0.44031636150E+01 -0.35153654717E+02  0.18571364995E+03  0.17205467456E+03 0.  0.
         24    2    5    5    0    0  0.22133787773E+02 -0.12483547120E+02  0.18395982250E+02  0.85893912389E+02  0.79960043225E+02 0.  0.
          5    1    5    5  501    0 -0.82396391839E+02  0.16886710735E+02 -0.53549636967E+02  0.99819737562E+02  0.47000000000E+01 0. -1.
        -11    1    6    6    0    0 -0.13123803162E+02  0.24849697979E+02  0.20042136364E+02  0.34517081700E+02  0.00000000000E+00 0.  1.
         12    1    6    6    0    0  0.35257590936E+02 -0.37333245099E+02 -0.16461541131E+01  0.51376830688E+02  0.00000000000E+00 0. -1.
         -5    1    3    3    0  503  0.14099960384E+01 -0.34198171599E+02  0.62606796715E+01  0.35111097098E+02  0.47000000000E+01 0.  1.
         13    1    4    4    0    0 -0.95318158902E+01  0.17643859291E+02 -0.12741396906E+03  0.12898248252E+03  0.00000000000E+00 0. -1.
        -14    1    4    4    0    0  0.68384423917E+02  0.12151148693E+02 -0.11344974649E+03  0.13302227192E+03  0.00000000000E+00 0.  1.
</event>
<event>
12    1  0.1594900E-001  0.1984532E+03  0.7818608E-02  0.1151088E+00
         21   -1    0    0  503  502  0.00000000000E+00  0.00000000000E+00  0.40688317212E+02  0.40688317212E+02  0.00000000000E+00 0. -1.
         21   -1    0    0  501  503 -0.00000000000E+00 -0.00000000000E+00 -0.14760273239E+04  0.14760273239E+04  0.00000000000E+00 0. -1.
          6    2    1    2  501    0 -0.95949259562E+02 -0.18791469467E+02 -0.11627730073E+04  0.11795571014E+04  0.17249495415E+03 0.  0.
         24    2    3    3    0    0 -0.99424032571E+02  0.15713644491E+02 -0.52638586008E+03  0.54220839928E+03  0.82315355085E+02 0.  0.
         -6    2    1    2    0  502  0.95949259562E+02  0.18791469467E+02 -0.27256599933E+03  0.33715853967E+03  0.17269706755E+03 0.  0.
        -24    2    5    5    0    0  0.10946699645E+03 -0.21899771811E+02 -0.22836738263E+03  0.27540002571E+03  0.10597589063E+03 0.  0.
          5    1    3    3  501    0  0.34747730088E+01 -0.34505113958E+02 -0.63638714724E+03  0.63734870213E+03  0.47000000000E+01 0. -1.
        -13    1    4    4    0    0 -0.15765120441E+02 -0.17437978578E+02 -0.32040673602E+02  0.39739487720E+02  0.00000000000E+00 0.  1.
         14    1    4    4    0    0 -0.83658912130E+02  0.33151623068E+02 -0.49434518648E+03  0.50246891156E+03  0.00000000000E+00 0. -1.
         -5    1    5    5    0  502 -0.13517736889E+02  0.40691241279E+02 -0.44198616704E+02  0.61758513955E+02  0.47000000000E+01 0.  1.
         11    1    6    6    0    0  0.24244132171E+02 -0.19708765187E+02  0.41823553270E+00  0.31247212530E+02  0.00000000000E+00 0. -1.
        -12    1    6    6    0    0  0.85222864280E+02 -0.21910066241E+01 -0.22878561816E+03  0.24415281318E+03  0.00000000000E+00 0.  1.
</event>
<event>
12    1  0.1594900E-001  0.2793528E+03  0.7818608E-02  0.1096065E+00
         21   -1    0    0  503  502  0.00000000000E+00  0.00000000000E+00  0.19555376163E+03  0.19555376163E+03  0.00000000000E+00 0. -1.
         21   -1    0    0  501  503 -0.00000000000E+00 -0.00000000000E+00 -0.47161483532E+03  0.47161483532E+03  0.00000000000E+00 0.  1.
          6    2    1    2  501    0 -0.20367094533E+03 -0.82528079224E+02 -0.26904242626E+03  0.38772768208E+03  0.17220972821E+03 0.  0.
         24    2    3    3    0    0 -0.14559067926E+03 -0.25197886448E+02 -0.85883018508E+02  0.18715468549E+03  0.76285018618E+02 0.  0.
         -6    2    1    2    0  502  0.20367094533E+03  0.82528079224E+02 -0.70186474246E+01  0.27944091487E+03  0.17246804243E+03 0.  0.
        -24    2    5    5    0    0  0.17736809500E+03  0.31307263129E+02  0.45566693004E+02  0.20132100726E+03  0.77551522260E+02 0.  0.
          5    1    3    3  501    0 -0.58080266069E+02 -0.57330192776E+02 -0.18315940775E+03  0.20057299658E+03  0.47000000000E+01 0. -1.
        -13    1    4    4    0    0 -0.59263351598E+02  0.22608634098E+02 -0.54432442901E+02  0.83583407555E+02  0.00000000000E+00 0.  1.
         14    1    4    4    0    0 -0.86327327662E+02 -0.47806520546E+02 -0.31450575608E+02  0.10357127794E+03  0.00000000000E+00 0. -1.
         -5    1    5    5    0  502  0.26302850331E+02  0.51220816095E+02 -0.52585340428E+02  0.78119907609E+02  0.47000000000E+01 0.  1.
         13    1    6    6    0    0  0.15875231475E+03  0.69997228708E+01  0.17643572994E+02  0.15988304859E+03  0.00000000000E+00 0. -1.
        -14    1    6    6    0    0  0.18615780251E+02  0.24307540258E+02  0.27923120010E+02  0.41437958671E+02  0.00000000000E+00 0.  1.
</event>
<event>
12    1  0.1594900E-001  0.1886006E+03  0.7818608E-02  0.1162812E+00
         21   -1    0    0  501  502  0.00000000000E+00  0.00000000000E+00  0.52735302802E+03  0.52735302802E+03  0.00000000000E+00 0.  1.
         21   -1    0    0  502  503 -0.00000000000E+00 -0.00000000000E+00 -0.10188532569E+03  0.10188532569E+03  0.00000000000E+00 0.  1.
         -6    2    1    2    0  503 -0.36892393740E+02 -0.55925284172E+02  0.13423199396E+02  0.17608179686E+03  0.16228348893E+03 0.  0.
        -24    2    3    3    0    0  0.38015393423E+02 -0.18719733100E+02  0.18351658498E+02  0.92166307725E+02  0.79763690772E+02 0.  0.
          6    2    1    2  501    0  0.36892393740E+02  0.55925284172E+02  0.41204450293E+03  0.45315655684E+03  0.17629947955E+03 0.  0.
         24    2    5    5    0    0  0.38961374885E+02  0.71536216076E+02  0.41970505103E+03  0.43502493047E+03  0.80367539011E+02 0.  0.
          5    1    5    5  501    0 -0.20689811447E+01 -0.15610931904E+02 -0.76605480960E+01  0.18131626376E+02  0.47000000000E+01 0. -1.
        -11    1    6    6    0    0  0.59087090064E+00 -0.13033320596E+02  0.13336854072E+03  0.13400516493E+03  0.00000000000E+00 0.  1.
         12    1    6    6    0    0  0.38370503984E+02  0.84569536673E+02  0.28633651031E+03  0.30101976554E+03  0.00000000000E+00 0. -1.
         -5    1    3    3    0  503 -0.74907787163E+02 -0.37205551072E+02 -0.49284591018E+01  0.83915489138E+02  0.47000000000E+01 0.  1.
         11    1    4    4    0    0  0.29332747076E+02 -0.37268999923E+02  0.40234063096E+02  0.62194599762E+02  0.00000000000E+00 0. -1.
        -12    1    4    4    0    0  0.86826463467E+01  0.18549266823E+02 -0.21882404598E+02  0.29971707963E+02  0.00000000000E+00 0.  1.
</event>
<event>
12    1  0.1594900E-001  0.1902223E+03  0.7818608E-02  0.1159254E+00
         21   -1    0    0  501  502  0.00000000000E+00  0.00000000000E+00  0.31277213880E+03  0.31277213880E+03  0.00000000000E+00 0.  1.
         21   -1    0    0  502  503 -0.00000000000E+00 -0.00000000000E+00 -0.13165130997E+03  0.13165130997E+03  0.00000000000E+00 0.  1.
         -6    2    1    2    0  503  0.71456715837E+02  0.30241118469E+01  0.79497429575E+01  0.19038834887E+03  0.17626490712E+03 0.  0.
        -24    2    3    3    0    0  0.77311463562E+02 -0.50266787040E+02 -0.29613512052E+02  0.12475843114E+03  0.78637737546E+02 0.  0.
          6    2    1    2  501    0 -0.71456715837E+02 -0.30241118469E+01  0.17317108587E+03  0.25403509990E+03  0.17155290586E+03 0.  0.
         24    2    5    5    0    0  0.58943775014E+01  0.89316340369E+01  0.15437791027E+03  0.17340380976E+03  0.78242087696E+02 0.  0.
          5    1    5    5  501    0 -0.77351093339E+02 -0.11955745884E+02  0.18793175603E+02  0.80631290139E+02  0.47000000000E+01 0. -1.
        -13    1    6    6    0    0 -0.23724519889E+02  0.31405596801E+02  0.10059241183E+03  0.10801850615E+03  0.00000000000E+00 0.  1.
         14    1    6    6    0    0  0.29618897390E+02 -0.22473962764E+02  0.53785498443E+02  0.65385303606E+02  0.00000000000E+00 0. -1.
         -5    1    3    3    0  503 -0.58547477251E+01  0.53290898887E+02  0.37563255009E+02  0.65629917736E+02  0.47000000000E+01 0.  1.
         13    1    4    4    0    0 -0.91758002774E+01  0.95593465876E+01 -0.12492696599E+02  0.18211092395E+02  0.00000000000E+00 0. -1.
        -14    1    4    4    0    0  0.86487263840E+02 -0.59826133628E+02 -0.17120815453E+02  0.10654733874E+03  0.00000000000E+00 0.  1.
</event>
<event>
12    1  0.1594900E-001  0.1800878E+03  0.7818608E-02  0.1167727E+00
         21   -1    0    0  501  502  0.00000000000E+00  0.00000000000E+00  0.37662777376E+02  0.37662777376E+02  0.00000000000E+00 0.  1.
         21   -1    0    0  502  503 -0.00000000000E+00 -0.00000000000E+00 -0.92467258925E+03  0.92467258925E+03  0.00000000000E+00 0.  1.
         -6    2    1    2    0  503 -0.46141178631E+01  0.53860233395E+02 -0.56979612010E+03  0.59756675632E+03  0.17174456307E+03 0.  0.
        -24    2    3    3    0    0  0.66078737411E+01  0.10327186215E+03 -0.27651579272E+03  0.29990439292E+03  0.52658520330E+02 0.  0.
          6    2    1    2  501    0  0.46141178631E+01 -0.53860233395E+02 -0.31721369178E+03  0.36476861032E+03  0.17178299682E+03 0.  0.
         24    2    5    5    0    0 -0.56443791697E+02 -0.94223925477E+01 -0.22407932085E+03  0.24477323096E+03  0.80172997064E+02 0.  0.
          5    1    5    5  501    0  0.61057909560E+02 -0.44437840848E+02 -0.93134370926E+02  0.11999537936E+03  0.47000000000E+01 0. -1.
        -13    1    6    6    0    0 -0.85610534958E+01 -0.38520402322E+02 -0.64172963040E+02  0.75334468985E+02  0.00000000000E+00 0.  1.
         14    1    6    6    0    0 -0.47882738201E+02  0.29098009774E+02 -0.15990635781E+03  0.16943876197E+03  0.00000000000E+00 0. -1.
         -5    1    3    3    0  503 -0.11221991604E+02 -0.49411628754E+02 -0.29328032738E+03  0.29766236339E+03  0.47000000000E+01 0.  1.
         13    1    4    4    0    0 -0.11069016010E+02  0.49713438404E+01 -0.11602037752E+02  0.16788229657E+02  0.00000000000E+00 0. -1.
        -14    1    4    4    0    0  0.17676889751E+02  0.98300518309E+02 -0.26491375497E+03  0.28311616327E+03  0.00000000000E+00 0.  1.
</event>
<event>
12    1  0.1594900E-001  0.2166880E+03  0.7818608E-02  0.1136639E+00
         21   -1    0    0  503  502  0.00000000000E+00  0.00000000000E+00  0.29130515881E+02  0.29130515881E+02  0.00000000000E+00 0.  1.
         21   -1    0    0  501  503 -0.00000000000E+00 -0.00000000000E+00 -0.18387782656E+04  0.18387782656E+04  0.00000000000E+00 0. -1.
          6    2    1    2  501    0 -0.11664334275E+03  0.55055793817E+02 -0.12377236464E+04  0.12563118104E+04  0.17240281397E+03 0.  0.
         24    2    3    3    0    0 -0.37181579783E+02 -0.14830283258E+02 -0.84077496808E+03  0.84547293839E+03  0.79495505630E+02 0.  0.
         -6    2    1    2    0  502  0.11664334275E+03 -0.55055793817E+02 -0.57192410325E+03  0.61159697101E+03  0.17411738921E+03 0.  0.
        -24    2    5    5    0    0  0.58530758720E+01  0.37866909914E+01 -0.32780581840E+03  0.33709242049E+03  0.78269073415E+02 0.  0.
          5    1    3    3  501    0 -0.79461762969E+02  0.69886077075E+02 -0.39694867835E+03  0.41083887205E+03  0.47000000000E+01 0. -1.
        -13    1    4    4    0    0  0.21130236983E+02 -0.19176693497E+02 -0.19829719799E+03  0.20033973949E+03  0.00000000000E+00 0.  1.
         14    1    4    4    0    0 -0.58311816766E+02  0.43464102391E+01 -0.64247777010E+03  0.64513319890E+03  0.00000000000E+00 0. -1.
         -5    1    5    5    0  502  0.11079026688E+03 -0.58842484809E+02 -0.24411828485E+03  0.27450455051E+03  0.47000000000E+01 0.  1.
         13    1    6    6    0    0  0.21555991079E+02  0.33109936678E+02 -0.11257837974E+03  0.11930976592E+03  0.00000000000E+00 0. -1.
        -14    1    6    6    0    0 -0.15702915207E+02 -0.29323245686E+02 -0.21522743866E+03  0.21778265458E+03  0.00000000000E+00 0.  1.
</event>
<event>
12    1  0.1594900E-001  0.2114282E+03  0.7818608E-02  0.1140652E+00
         21   -1    0    0  503  502  0.00000000000E+00  0.00000000000E+00  0.10663641564E+03  0.10663641564E+03  0.00000000000E+00 0. -1.
         21   -1    0    0  501  503 -0.00000000000E+00 -0.00000000000E+00 -0.66714805674E+03  0.66714805674E+03  0.00000000000E+00 0. -1.
          6    2    1    2  501    0 -0.18311972686E+02  0.12206926562E+03 -0.43827634094E+02  0.21592298113E+03  0.17165558050E+03 0.  0.
         24    2    3    3    0    0  0.73724775353E+01  0.15203472817E+03 -0.33504838879E+02  0.17485876276E+03  0.79272319820E+02 0.  0.
         -6    2    1    2    0  502  0.18311972686E+02 -0.12206926562E+03 -0.51668400700E+03  0.55786149125E+03  0.17032570674E+03 0.  0.
        -24    2    5    5    0    0  0.32657667852E+00 -0.13299180465E+03 -0.51351600290E+03  0.53606923165E+03  0.77360255469E+02 0.  0.
          5    1    3    3  501    0 -0.25684450221E+02 -0.29965462555E+02 -0.10322795215E+02  0.41064218371E+02  0.47000000000E+01 0. -1.
        -11    1    4    4    0    0 -0.16549521915E+02  0.59080078907E+02 -0.47852618205E+02  0.77808839268E+02  0.00000000000E+00 0.  1.
         12    1    4    4    0    0  0.23921999450E+02  0.92954649268E+02  0.14347779326E+02  0.97049923492E+02  0.00000000000E+00 0. -1.
         -5    1    5    5    0  502  0.17985396007E+02  0.10922539033E+02 -0.31680040961E+01  0.21792259599E+02  0.47000000000E+01 0.  1.
         11    1    6    6    0    0  0.37998427448E+02 -0.72981021047E+02 -0.24991292448E+03  0.26310944442E+03  0.00000000000E+00 0. -1.
        -12    1    6    6    0    0 -0.37671850769E+02 -0.60010783605E+02 -0.26360307842E+03  0.27295978723E+03  0.00000000000E+00 0.  1.
</event>
<event>
12    1  0.1594900E-001  0.1751316E+03  0.7818608E-02  0.1172691E+00
         21   -1    0    0  501  502  0.00000000000E+00  0.00000000000E+00  0.29343436582E+03  0.29343436582E+03  0.00000000000E+00 0.  1.
         21   -1    0    0  502  503 -0.00000000000E+00 -0.00000000000E+00 -0.12196250110E+03  0.12196250110E+03  0.00000000000E+00 0.  1.
         -6    2    1    2    0  503  0.21376522801E+02 -0.29661442575E+02  0.66371879915E+01  0.17489414102E+03  0.17090099882E+03 0.  0.
        -24    2    3    3    0    0  0.43165719572E+01  0.14421749097E+02 -0.54074975894E+02  0.97807004908E+02  0.80096738702E+02 0.  0.
          6    2    1    2  501    0 -0.21376522801E+02  0.29661442575E+02  0.16483467673E+03  0.24050272590E+03  0.17127268786E+03 0.  0.
         24    2    5    5    0    0 -0.51880770097E+02 -0.51836872819E+01  0.16895018881E+03  0.19377244003E+03  0.79278668601E+02 0.  0.
          5    1    5    5  501    0  0.30504247296E+02  0.34845129857E+02 -0.41155120783E+01  0.46730285870E+02  0.47000000000E+01 0. -1.
        -11    1    6    6    0    0  0.21706860142E+01  0.23305565164E+02  0.14151746683E+02  0.27352023317E+02  0.00000000000E+00 0.  1.
         12    1    6    6    0    0 -0.54051456111E+02 -0.28489252446E+02  0.15479844213E+03  0.16642041671E+03  0.00000000000E+00 0. -1.
         -5    1    3    3    0  503  0.17059950844E+02 -0.44083191672E+02  0.60712163886E+02  0.77087136116E+02  0.47000000000E+01 0.  1.
         13    1    4    4    0    0 -0.95443872835E+01  0.17556025097E+02  0.16438771584E+02  0.25875520421E+02  0.00000000000E+00 0. -1.
        -14    1    4    4    0    0  0.13860959241E+02 -0.31342759998E+01 -0.70513747478E+02  0.71931484487E+02  0.00000000000E+00 0.  1.
</event>
<event>
12    1  0.1594900E-001  0.3631202E+03  0.7818608E-02  0.1057400E+00
         21   -1    0    0  503  502  0.00000000000E+00  0.00000000000E+00  0.73583292437E+03  0.73583292437E+03  0.00000000000E+00 0.  1.
         21   -1    0    0  501  503 -0.00000000000E+00 -0.00000000000E+00 -0.18652610257E+03  0.18652610257E+03  0.00000000000E+00 0. -1.
          6    2    1    2  501    0  0.18070254937E+03  0.26323939846E+03  0.18197214586E+03  0.40616518171E+03  0.17293900865E+03 0.  0.
         24    2    3    3    0    0  0.13212982346E+03  0.13993028883E+03  0.17706894849E+03  0.27346033038E+03  0.79927240644E+02 0.  0.
         -6    2    1    2    0  502 -0.18070254937E+03 -0.26323939846E+03  0.36733467595E+03  0.51619384523E+03  0.17196781517E+03 0.  0.
        -24    2    5    5    0    0 -0.14720446220E+03 -0.25545522848E+03  0.37211712911E+03  0.48115562318E+03  0.78185986522E+02 0.  0.
          5    1    3    3  501    0  0.48572725915E+02  0.12330910963E+03  0.49031973719E+01  0.13270485132E+03  0.47000000000E+01 0. -1.
        -11    1    4    4    0    0  0.49993747124E+02  0.10882402883E+02  0.70159915557E+02  0.86834412505E+02  0.00000000000E+00 0.  1.
         12    1    4    4    0    0  0.82136076333E+02  0.12904788594E+03  0.10690903293E+03  0.18662591788E+03  0.00000000000E+00 0. -1.
         -5    1    5    5    0  502 -0.33498087175E+02 -0.77841699786E+01 -0.47824531668E+01  0.35038222057E+02  0.47000000000E+01 0.  1.
         11    1    6    6    0    0 -0.73765174600E+01 -0.59328331014E+02  0.44529908839E+02  0.74546473102E+02  0.00000000000E+00 0. -1.
        -12    1    6    6    0    0 -0.13982794474E+03 -0.19612689746E+03  0.32758722027E+03  0.40660915007E+03  0.00000000000E+00 0.  1.
</event>
<event>
12    1  0.1594900E-001  0.2736576E+03  0.7818608E-02  0.1099532E+00
         21   -1    0    0  503  502  0.00000000000E+00  0.00000000000E+00  0.56299291061E+03  0.56299291061E+03  0.00000000000E+00 0. -1.
         21   -1    0    0  501  503 -0.00000000000E+00 -0.00000000000E+00 -0.13612128468E+03  0.13612128468E+03  0.00000000000E+00 0. -1.
          6    2    1    2  501    0 -0.77401406557E+02 -0.19859929021E+03  0.15271434494E+03  0.31338496914E+03  0.17162695570E+03 0.  0.
         24    2    3    3    0    0 -0.93743984810E+02 -0.79098220983E+02  0.52006257787E+02  0.15618511472E+03  0.81514881838E+02 0.  0.
         -6    2    1    2    0  502  0.77401406557E+02  0.19859929021E+03  0.27415728100E+03  0.38572922615E+03  0.16790522736E+03 0.  0.
        -24    2    5    5    0    0  0.68177380924E+02  0.22460744888E+03  0.26055213816E+03  0.35460533054E+03  0.52543909136E+02 0.  0.
          5    1    3    3  501    0  0.16342578253E+02 -0.11950106923E+03  0.10070808716E+03  0.15719985442E+03  0.47000000000E+01 0. -1.
        -13    1    4    4    0    0 -0.44319309956E+02 -0.65219702555E+01  0.51659494399E+02  0.68377194243E+02  0.00000000000E+00 0.  1.
         14    1    4    4    0    0 -0.49424674854E+02 -0.72576250728E+02  0.34676338833E+00  0.87807920480E+02  0.00000000000E+00 0. -1.
         -5    1    5    5    0  502  0.92240256337E+01 -0.26008158669E+02  0.13605142834E+02  0.31123895607E+02  0.47000000000E+01 0.  1.
         13    1    6    6    0    0  0.19566151534E+02  0.74357308937E+02  0.12365349846E+03  0.14560917333E+03  0.00000000000E+00 0. -1.
        -14    1    6    6    0    0  0.48611229389E+02  0.15025013994E+03  0.13689863970E+03  0.20899615721E+03  0.00000000000E+00 0.  1.
</event>
<event>
12    1  0.1594900E-001  0.2695674E+03  0.7818608E-02  0.1101613E+00
         21   -1    0    0  501  502  0.00000000000E+00  0.00000000000E+00  0.21835778067E+03  0.21835778067E+03  0.00000000000E+00 0. -1.
         21   -1    0    0  502  503 -0.00000000000E+00 -0.00000000000E+00 -0.43284073010E+03  0.43284073010E+03  0.00000000000E+00 0. -1.
         -6    2    1    2    0  503  0.10116066180E+03  0.18091291944E+03 -0.26444683642E+03  0.37762242699E+03  0.17234733580E+03 0.  0.
        -24    2    3    3    0    0  0.13251837137E+03  0.18018795533E+03 -0.23304695793E+03  0.33299201256E+03  0.80894856672E+02 0.  0.
          6    2    1    2  501    0 -0.10116066180E+03 -0.18091291944E+03  0.49963886997E+02  0.27357608379E+03  0.17141913458E+03 0.  0.
         24    2    5    5    0    0 -0.12880090422E+03 -0.97642023901E+02  0.26353299423E+02  0.18259490501E+03  0.80763637778E+02 0.  0.
          5    1    5    5  501    0  0.27640242422E+02 -0.83270895542E+02  0.23610587573E+02  0.90981178773E+02  0.47000000000E+01 0. -1.
        -11    1    6    6    0    0 -0.49758098165E+02 -0.56320252036E+02  0.50068951368E+02  0.90303593580E+02  0.00000000000E+00 0.  1.
         12    1    6    6    0    0 -0.79042806052E+02 -0.41321771865E+02 -0.23715651945E+02  0.92291311432E+02  0.00000000000E+00 0. -1.
         -5    1    3    3    0  503 -0.31357709573E+02  0.72496411628E+00 -0.31399878499E+02  0.44630414432E+02  0.47000000000E+01 0.  1.
         13    1    4    4    0    0  0.48607196437E+01  0.66646567440E+02 -0.71449458313E+02  0.97828506276E+02  0.00000000000E+00 0. -1.
        -14    1    4    4    0    0  0.12765765172E+03  0.11354138789E+03 -0.16159749961E+03  0.23516350629E+03  0.00000000000E+00 0.  1.
</event>
<event>
12    1  0.1594900E-001  0.2240159E+03  0.7818608E-02  0.1131169E+00
         21   -1    0    0  501  502  0.00000000000E+00  0.00000000000E+00  0.11260561917E+03  0.11260561917E+03  0.00000000000E+00 0. -1.
         21   -1    0    0  502  503 -0.00000000000E+00 -0.00000000000E+00 -0.58910460742E+03  0.58910460742E+03  0.00000000000E+00 0.  1.
         -6    2    1    2    0  503  0.95255286644E+02  0.10393141525E+03 -0.41244658063E+03  0.46871702913E+03  0.17236056049E+03 0.  0.
        -24    2    3    3    0    0  0.88104682484E+02  0.39653326612E+02 -0.37123886009E+03  0.39188624070E+03  0.80135591467E+02 0.  0.
          6    2    1    2  501    0 -0.95255286644E+02 -0.10393141525E+03 -0.64052407623E+02  0.23299319747E+03  0.17409138530E+03 0.  0.
         24    2    5    5    0    0  0.13415794602E+02 -0.74656912427E+02 -0.15184456141E+02  0.11020652435E+03  0.78493771614E+02 0.  0.
          5    1    5    5  501    0 -0.10867108125E+03 -0.29274502819E+02 -0.48867951483E+02  0.12278667312E+03  0.47000000000E+01 0. -1.
        -13    1    6    6    0    0  0.77724695403E-01 -0.43721748130E+02 -0.46772457320E+02  0.64025464187E+02  0.00000000000E+00 0.  1.
         14    1    6    6    0    0  0.13338069906E+02 -0.30935164298E+02  0.31588001179E+02  0.46181060159E+02  0.00000000000E+00 0. -1.
         -5    1    3    3    0  503  0.71506041599E+01  0.64278088635E+02 -0.41207720535E+02  0.76830788425E+02  0.47000000000E+01 0.  1.
         13    1    4    4    0    0 -0.94138312341E+01  0.68188599947E+00 -0.10890013807E+03  0.10930839519E+03  0.00000000000E+00 0. -1.
        -14    1    4    4    0    0  0.97518513718E+02  0.38971440612E+02 -0.26233872202E+03  0.28257784551E+03  0.00000000000E+00 0.  1.
</event>
<event>
12    1  0.1594900E-001  0.1935404E+03  0.7818608E-02  0.1156853E+00
         21   -1    0    0  501  502  0.00000000000E+00  0.00000000000E+00  0.33671764293E+02  0.33671764293E+02  0.00000000000E+00 0.  1.
         21   -1    0    0  502  503 -0.00000000000E+00 -0.00000000000E+00 -0.11143311624E+04  0.11143311624E+04  0.00000000000E+00 0.  1.
         -6    2    1    2    0  503 -0.22206033922E+02 -0.78009460020E+02 -0.64117523247E+03  0.66779026223E+03  0.16810583514E+03 0.  0.
        -24    2    3    3    0    0 -0.13855265194E+02 -0.73607925190E+01 -0.52782453163E+03  0.53388193188E+03  0.78644970310E+02 0.  0.
          6    2    1    2  501    0  0.22206033922E+02  0.78009460020E+02 -0.43948416566E+03  0.48021266448E+03  0.17572503369E+03 0.  0.
         24    2    5    5    0    0  0.65432606512E+02  0.84236667074E+02 -0.39897784431E+03  0.42046179206E+03  0.78914867153E+02 0.  0.
          5    1    5    5  501    0 -0.43226572589E+02 -0.62272070543E+01 -0.40506321347E+02  0.59750872417E+02  0.47000000000E+01 0. -1.
        -13    1    6    6    0    0 -0.10271190893E+02  0.21433180171E+02 -0.16420106900E+03  0.16591223474E+03  0.00000000000E+00 0.  1.
         14    1    6    6    0    0  0.75703797404E+02  0.62803486904E+02 -0.23477677531E+03  0.25454955732E+03  0.00000000000E+00 0. -1.
         -5    1    3    3    0  503 -0.83507687288E+01 -0.70648667501E+02 -0.11335070084E+03  0.13390833036E+03  0.47000000000E+01 0.  1.
         11    1    4    4    0    0  0.31464206397E+02 -0.79349627195E+01 -0.15855865096E+03  0.16184500522E+03  0.00000000000E+00 0. -1.
        -12    1    4    4    0    0 -0.45319471591E+02  0.57417020047E+00 -0.36926588067E+03  0.37203692666E+03  0.00000000000E+00 0.  1.
</event>
<event>
12    1  0.1594900E-001  0.1861732E+03  0.7818608E-02  0.1162251E+00
         21   -1    0    0  501  502  0.00000000000E+00  0.00000000000E+00  0.51997870909E+03  0.51997870909E+03  0.00000000000E+00 0. -1.
         21   -1    0    0  502  503 -0.00000000000E+00 -0.00000000000E+00 -0.90467056933E+02  0.90467056933E+02  0.00000000000E+00 0.  1.
         -6    2    1    2    0  503 -0.57770796687E+02  0.42462855368E+02  0.37334554580E+03  0.41718981200E+03  0.17181351411E+03 0.  0.
        -24    2    3    3    0    0 -0.83533464432E+02 -0.97138117446E+01  0.16635544857E+03  0.20212444986E+03  0.78153439745E+02 0.  0.
          6    2    1    2  501    0  0.57770796687E+02 -0.42462855368E+02  0.56166106356E+02  0.19325595402E+03  0.17044844742E+03 0.  0.
         24    2    5    5    0    0  0.72798792004E+02 -0.10200293922E+02 -0.20242111588E+02  0.10883427859E+03  0.77662391157E+02 0.  0.
          5    1    5    5  501    0 -0.15027995317E+02 -0.32262561445E+02  0.76408217944E+02  0.84421675438E+02  0.47000000000E+01 0. -1.
        -13    1    6    6    0    0  0.71407460510E+02  0.20893081732E+02 -0.22216004564E+02  0.77647260991E+02  0.00000000000E+00 0.  1.
         14    1    6    6    0    0  0.13913314948E+01 -0.31093375654E+02  0.19738929759E+01  0.31187017594E+02  0.00000000000E+00 0. -1.
         -5    1    3    3    0  503  0.25762667745E+02  0.52176667113E+02  0.20699009723E+03  0.21506536214E+03  0.47000000000E+01 0.  1.
         13    1    4    4    0    0 -0.75774564432E+02  0.23800034611E+02  0.12764248861E+03  0.15033572815E+03  0.00000000000E+00 0. -1.
        -14    1    4    4    0    0 -0.77589000000E+01 -0.33513846356E+02  0.38712959964E+02  0.51788721706E+02  0.00000000000E+00 0.  1.
</event>
<event>
12    1  0.1594900E-001  0.2129179E+03  0.7818608E-02  0.1139418E+00
         21   -1    0    0  501  502  0.00000000000E+00  0.00000000000E+00  0.12760128202E+03  0.12760128202E+03  0.00000000000E+00 0. -1.
         21   -1    0    0  502  503 -0.00000000000E+00 -0.00000000000E+00 -0.52036586658E+03  0.52036586658E+03  0.00000000000E+00 0. -1.
         -6    2    1    2    0  503  0.42260073150E+02 -0.11761152449E+03 -0.37930755130E+03  0.43462439123E+03  0.17148107332E+03 0.  0.
        -24    2    3    3    0    0 -0.35431478270E+02 -0.27298345177E+02 -0.18571384530E+03  0.20726331162E+03  0.80422998618E+02 0.  0.
          6    2    1    2  501    0 -0.42260073150E+02  0.11761152449E+03 -0.13457033253E+02  0.21334275736E+03  0.17238229578E+03 0.  0.
         24    2    5    5    0    0 -0.85328352482E+02  0.41688321888E+02  0.79679506388E+01  0.12334092787E+03  0.78298482300E+02 0.  0.
          5    1    5    5  501    0  0.43068279332E+02  0.75923202599E+02 -0.21424983892E+02  0.90001829494E+02  0.47000000000E+01 0. -1.
        -11    1    6    6    0    0 -0.37115924440E+02 -0.21979834770E+02  0.61446318985E+00  0.43140265976E+02  0.00000000000E+00 0.  1.
         12    1    6    6    0    0 -0.48212428042E+02  0.63668156658E+02  0.73534874490E+01  0.80200661890E+02  0.00000000000E+00 0. -1.
         -5    1    3    3    0  503  0.77691551420E+02 -0.90313179310E+02 -0.19359370600E+03  0.22736107961E+03  0.47000000000E+01 0.  1.
         13    1    4    4    0    0  0.11665045691E+02 -0.40266309024E+02 -0.68967557362E+02  0.80709187221E+02  0.00000000000E+00 0. -1.
        -14    1    4    4    0    0 -0.47096523962E+02  0.12967963847E+02 -0.11674628794E+03  0.12655412440E+03  0.00000000000E+00 0.  1.
</event>
<event>
12    1  0.1594900E-001  0.1866262E+03  0.7818608E-02  0.1162136E+00
         21   -1    0    0  503  502  0.00000000000E+00  0.00000000000E+00  0.16974660464E+04  0.16974660464E+04  0.00000000000E+00 0. -1.
         21   -1    0    0  501  503 -0.00000000000E+00 -0.00000000000E+00 -0.24228422165E+02  0.24228422165E+02  0.00000000000E+00 0. -1.
          6    2    1    2  501    0  0.68933294548E+02  0.20605570448E+01  0.49207653466E+03  0.52627811042E+03  0.17341651753E+03 0.  0.
         24    2    3    3    0    0  0.15598591674E+02  0.62981075849E+02  0.24018460555E+03  0.26165094988E+03  0.81010140449E+02 0.  0.
         -6    2    1    2    0  502 -0.68933294548E+02 -0.20605570448E+01  0.11811610896E+04  0.11954163581E+04  0.17065375707E+03 0.  0.
        -24    2    5    5    0    0 -0.10668970767E+03  0.67199723413E+01  0.10625995332E+04  0.10705901707E+04  0.74951276383E+02 0.  0.
          5    1    3    3  501    0  0.53334702875E+02 -0.60920518804E+02  0.25189192911E+03  0.26462716054E+03  0.47000000000E+01 0. -1.
        -11    1    4    4    0    0  0.36854748225E+02  0.13984731908E+02  0.16360379554E+03  0.16828561171E+03  0.00000000000E+00 0.  1.
         12    1    4    4    0    0 -0.21256156551E+02  0.48996343941E+02  0.76580810003E+02  0.93365338170E+02  0.00000000000E+00 0. -1.
         -5    1    5    5    0  502  0.37756413125E+02 -0.87805293861E+01  0.11856155632E+03  0.12482618742E+03  0.47000000000E+01 0.  1.
         13    1    6    6    0    0 -0.92249026759E+02  0.24920414951E+02  0.98399828811E+03  0.98862709908E+03  0.00000000000E+00 0. -1.
        -14    1    6    6    0    0 -0.14440680914E+02 -0.18200442609E+02  0.78601245136E+02  0.81963071644E+02  0.00000000000E+00 0.  1.
</event>
<event>
12    1  0.1594900E-001  0.2490324E+03  0.7818608E-02  0.1114066E+00
         21   -1    0    0  501  502  0.00000000000E+00  0.00000000000E+00  0.88533054314E+03  0.88533054314E+03  0.00000000000E+00 0.  1.
         21   -1    0    0  502  503 -0.00000000000E+00 -0.00000000000E+00 -0.11284934355E+03  0.11284934355E+03  0.00000000000E+00 0.  1.
         -6    2    1    2    0  503 -0.86006617878E+01 -0.17977083491E+03  0.78388896009E+02  0.26107840984E+03  0.17212086625E+03 0.  0.
        -24    2    3    3    0    0  0.48349389684E+02 -0.90521831197E+02  0.62925972885E+00  0.12963509863E+03  0.79202256433E+02 0.  0.
          6    2    1    2  501    0  0.86006617878E+01  0.17977083491E+03  0.69409230358E+03  0.73710147685E+03  0.17077159254E+03 0.  0.
         24    2    5    5    0    0  0.54564268952E+02  0.14119084870E+03  0.61039981303E+03  0.63401126639E+03  0.80437795555E+02 0.  0.
          5    1    5    5  501    0 -0.45963607164E+02  0.38579986205E+02  0.83692490552E+02  0.10309021047E+03  0.47000000000E+01 0. -1.
        -11    1    6    6    0    0 -0.37813667129E+00  0.42572144157E+02  0.31342533916E+03  0.31630360996E+03  0.00000000000E+00 0.  1.
         12    1    6    6    0    0  0.54942405623E+02  0.98618704547E+02  0.29697447387E+03  0.31770765643E+03  0.00000000000E+00 0. -1.
         -5    1    3    3    0  503 -0.56950051472E+02 -0.89249003711E+02  0.77759636280E+02  0.13144331120E+03  0.47000000000E+01 0.  1.
         11    1    4    4    0    0  0.32434405758E+02 -0.69338923468E+02  0.36689022041E+02  0.84887933907E+02  0.00000000000E+00 0. -1.
        -12    1    4    4    0    0  0.15914983926E+02 -0.21182907729E+02 -0.36059762312E+02  0.44747164728E+02  0.00000000000E+00 0.  1.
</event>
<event>
12    1  0.1594900E-001  0.2330702E+03  0.7818608E-02  0.1124628E+00
         21   -1    0    0  503  502  0.00000000000E+00  0.00000000000E+00  0.23134999296E+04  0.23134999296E+04  0.00000000000E+00 0.  1.
         21   -1    0    0  501  503 -0.00000000000E+00 -0.00000000000E+00 -0.26883747444E+02  0.26883747444E+02  0.00000000000E+00 0. -1.
          6    2    1    2  501    0  0.12601334164E+03  0.91882580666E+02  0.72072364950E+03  0.75724087000E+03  0.17218996878E+03 0.  0.
         24    2    3    3    0    0  0.47776597396E+02  0.74474894769E+02  0.60499265092E+03  0.61638715258E+03  0.78025002340E+02 0.  0.
         -6    2    1    2    0  502 -0.12601334164E+03 -0.91882580666E+02  0.15658925327E+04  0.15831428070E+04  0.17320494442E+03 0.  0.
        -24    2    5    5    0    0 -0.15669720219E+03 -0.71838674796E+02  0.11421594334E+04  0.11578016653E+04  0.79131008368E+02 0.  0.
          5    1    3    3  501    0  0.78236744242E+02  0.17407685897E+02  0.11573099858E+03  0.14085371741E+03  0.47000000000E+01 0. -1.
        -13    1    4    4    0    0  0.53896032563E+02  0.78136499461E+02  0.39395749907E+03  0.40523154609E+03  0.00000000000E+00 0.  1.
         14    1    4    4    0    0 -0.61194351668E+01 -0.36616046917E+01  0.21103515186E+03  0.21115560650E+03  0.00000000000E+00 0. -1.
         -5    1    5    5    0  502  0.30683860551E+02 -0.20043905870E+02  0.42373309922E+03  0.42534114171E+03  0.47000000000E+01 0.  1.
         13    1    6    6    0    0 -0.73176658841E+02 -0.57538615448E+02  0.39344132830E+03  0.40430383931E+03  0.00000000000E+00 0. -1.
        -14    1    6    6    0    0 -0.83520543347E+02 -0.14300059348E+02  0.74871810514E+03  0.75349782602E+03  0.00000000000E+00 0.  1.
</event>
<event>
12    1  0.1594900E-001  0.1832113E+03  0.7818608E-02  0.1164833E+00
         21   -1    0    0  501  502  0.00000000000E+00  0.00000000000E+00  0.71939127491E+03  0.71939127491E+03  0.00000000000E+00 0. -1.
         21   -1    0    0  502  503 -0.00000000000E+00 -0.00000000000E+00 -0.83117322069E+02  0.83117322069E+02  0.00000000000E+00 0. -1.
         -6    2    1    2    0  503  0.62693679985E+02  0.35542428176E+02  0.52199556684E+02  0.19050242589E+03  0.16844173723E+03 0.  0.
        -24    2    3    3    0    0 -0.11107721761E+02  0.61002300415E+02  0.10751836367E+02  0.10198770670E+03  0.80257262559E+02 0.  0.
          6    2    1    2  501    0 -0.62693679985E+02 -0.35542428176E+02  0.58407439615E+03  0.61200617109E+03  0.16797288916E+03 0.  0.
         24    2    5    5    0    0 -0.10214593705E+03 -0.45260413345E+02  0.50279184575E+03  0.52101241952E+03  0.78562100743E+02 0.  0.
          5    1    5    5  501    0  0.39452257064E+02  0.97179851692E+01  0.81282550408E+02  0.90993751566E+02  0.47000000000E+01 0. -1.
        -13    1    6    6    0    0 -0.95197232554E+02 -0.15417836199E+02  0.44773900141E+03  0.45800702631E+03  0.00000000000E+00 0.  1.
         14    1    6    6    0    0 -0.69487044951E+01 -0.29842577146E+02  0.55052844333E+02  0.63005393214E+02  0.00000000000E+00 0. -1.
         -5    1    3    3    0  503  0.73801401746E+02 -0.25459872240E+02  0.41447720317E+02  0.88514719192E+02  0.47000000000E+01 0.  1.
         13    1    4    4    0    0 -0.39570006585E+02  0.19624134931E+02 -0.13542237355E+02  0.46198314747E+02  0.00000000000E+00 0. -1.
        -14    1    4    4    0    0  0.28462284823E+02  0.41378165484E+02  0.24294073721E+02  0.55789391950E+02  0.00000000000E+00 0.  1.
</event>
<event>
12    1  0.1594900E-001  0.1856242E+03  0.7818608E-02  0.1162746E+00
         21   -1    0    0  503  502  0.00000000000E+00  0.00000000000E+00  0.10511100570E+03  0.10511100570E+03  0.00000000000E+00 0.  1.
         21   -1    0    0  501  503 -0.00000000000E+00 -0.00000000000E+00 -0.67543560766E+03  0.67543560766E+03  0.00000000000E+00 0.  1.
          6    2    1    2  501    0  0.61706585570E+02  0.35612546870E+02 -0.56554751648E+03  0.59486094669E+03  0.17011641984E+03 0.  0.
         24    2    3    3    0    0  0.89708013759E+02  0.70754272811E+02 -0.43047371269E+03  0.45243186485E+03  0.79581908508E+02 0.  0.
         -6    2    1    2    0  502 -0.61706585570E+02 -0.35612546870E+02 -0.47770854797E+01  0.18568566667E+03  0.17140708872E+03 0.  0.
        -24    2    5    5    0    0 -0.44194223459E+02  0.70250691783E+01  0.58436456317E+02  0.10731034533E+03  0.78091035360E+02 0.  0.
          5    1    3    3  501    0 -0.28001428189E+02 -0.35141725941E+02 -0.13507380378E+03  0.14242908183E+03  0.47000000000E+01 0. -1.
        -11    1    4    4    0    0  0.10363021913E+02  0.11725065625E+02 -0.21247372560E+03  0.21304918085E+03  0.00000000000E+00 0.  1.
         12    1    4    4    0    0  0.79344991846E+02  0.59029207186E+02 -0.21799998709E+03  0.23938268401E+03  0.00000000000E+00 0. -1.
         -5    1    5    5    0  502 -0.17512362110E+02 -0.42637616048E+02 -0.63213541797E+02  0.78375321342E+02  0.47000000000E+01 0.  1.
         11    1    6    6    0    0 -0.49551742392E+02  0.25282688117E+02  0.11695878169E+02  0.56845255375E+02  0.00000000000E+00 0. -1.
        -12    1    6    6    0    0  0.53575189327E+01 -0.18257618939E+02  0.46740578148E+02  0.50465089954E+02  0.00000000000E+00 0.  1.
</event>
<event>
12    1  0.1594900E-001  0.1962792E+03  0.7818608E-02  0.1153105E+00
         21   -1    0    0  501  502  0.00000000000E+00  0.00000000000E+00  0.11680197316E+03  0.11680197316E+03  0.00000000000E+00 0. -1.
         21   -1    0    0  502  503 -0.00000000000E+00 -0.00000000000E+00 -0.44715273152E+03  0.44715273152E+03  0.00000000000E+00 0.  1.
         -6    2    1    2    0  503  0.91059381854E+02  0.12581707236E+02 -0.31023395174E+03  0.36664725475E+03  0.17243837803E+03 0.  0.
        -24    2    3    3    0    0  0.54353830964E+02 -0.28954506180E+02 -0.88620453322E+02  0.13815833341E+03  0.86263769769E+02 0.  0.
          6    2    1    2  501    0 -0.91059381854E+02 -0.12581707236E+02 -0.20116806617E+02  0.19730744993E+03  0.17342270183E+03 0.  0.
         24    2    5    5    0    0 -0.81721902386E+02  0.41498271729E+02  0.26221619831E+02  0.12532708863E+03  0.81355577014E+02 0.  0.
          5    1    5    5  501    0 -0.93374794680E+01 -0.54079978965E+02 -0.46338426447E+02  0.71980361303E+02  0.47000000000E+01 0. -1.
        -13    1    6    6    0    0 -0.53010004062E+02 -0.14927641066E+02 -0.39126400918E+01  0.55210540216E+02  0.00000000000E+00 0.  1.
         14    1    6    6    0    0 -0.28711898323E+02  0.56425912795E+02  0.30134259922E+02  0.70116548411E+02  0.00000000000E+00 0. -1.
         -5    1    3    3    0  503  0.36705550889E+02  0.41536213416E+02 -0.22161349842E+03  0.22848892134E+03  0.47000000000E+01 0.  1.
         11    1    4    4    0    0  0.43081433089E+02 -0.47767566121E+02 -0.95526205643E+02  0.11516512586E+03  0.00000000000E+00 0. -1.
        -12    1    4    4    0    0  0.11272397875E+02  0.18813059941E+02  0.69057523212E+01  0.22993207548E+02  0.00000000000E+00 0.  1.
</event>
<event>
12    1  0.1594900E-001  0.2090875E+03  0.7818608E-02  0.1142897E+00
         21   -1    0    0  503  502  0.00000000000E+00  0.00000000000E+00  0.75893381953E+03  0.75893381953E+03  0.00000000000E+00 0.  1.
         21   -1    0    0  501  503 -0.00000000000E+00 -0.00000000000E+00 -0.91191976352E+02  0.91191976352E+02  0.00000000000E+00 0.  1.
          6    2    1    2  501    0  0.74409715867E+02 -0.91468090721E+02  0.74252016400E+02  0.22188044263E+03  0.17266832786E+03 0.  0.
         24    2    3    3    0    0  0.68226385591E+02 -0.67704947206E+02 -0.17462904575E+02  0.12681921345E+03  0.80866311267E+02 0.  0.
         -6    2    1    2    0  502 -0.74409715867E+02  0.91468090721E+02  0.59348982678E+03  0.62824535326E+03  0.16899358555E+03 0.  0.
        -24    2    5    5    0    0 -0.41109835559E+02 -0.16346549437E+02  0.25290073806E+03  0.26941963509E+03  0.81675750395E+02 0.  0.
          5    1    3    3  501    0  0.61833302759E+01 -0.23763143515E+02  0.91714920975E+02  0.95061229176E+02  0.47000000000E+01 0. -1.
        -11    1    4    4    0    0 -0.74751637438E+01  0.11036987106E+02 -0.11199826571E+02  0.17410608048E+02  0.00000000000E+00 0.  1.
         12    1    4    4    0    0  0.75701549335E+02 -0.78741934312E+02 -0.62630780040E+01  0.10940860541E+03  0.00000000000E+00 0. -1.
         -5    1    5    5    0  502 -0.33299880308E+02  0.10781464016E+03  0.34058908872E+03  0.35882571816E+03  0.47000000000E+01 0.  1.
         13    1    6    6    0    0 -0.56601173316E+02 -0.13803461079E+02  0.24502515174E+03  0.25185621561E+03  0.00000000000E+00 0. -1.
        -14    1    6    6    0    0  0.15491337757E+02 -0.25430883572E+01  0.78755863250E+01  0.17563419480E+02  0.00000000000E+00 0.  1.
</event>
<event>
12    1  0.1594900E-001  0.3118893E+03  0.7818608E-02  0.1079584E+00
         21   -1    0    0  503  502  0.00000000000E+00  0.00000000000E+00  0.71218854560E+03  0.71218854560E+03  0.00000000000E+00 0. -1.
         21   -1    0    0  501  503 -0.00000000000E+00 -0.00000000000E+00 -0.13816732565E+03  0.13816732565E+03  0.00000000000E+00 0.  1.
          6    2    1    2  501    0  0.16943942230E+03  0.19731125355E+03  0.33992253318E+03  0.46132665536E+03  0.17214385196E+03 0.  0.
         24    2    3    3    0    0  0.55152342275E+02  0.10405437126E+03  0.60216457094E+02  0.14507365259E+03  0.59592364730E+02 0.  0.
         -6    2    1    2    0  502 -0.16943942230E+03 -0.19731125355E+03  0.23409868677E+03  0.38902921590E+03  0.17000025607E+03 0.  0.
        -24    2    5    5    0    0 -0.14718396690E+02 -0.90050859069E+02  0.73284556855E+02  0.14138700953E+03  0.79333925726E+02 0.  0.
          5    1    3    3  501    0  0.11428708003E+03  0.93256882289E+02  0.27970607609E+03  0.31625300276E+03  0.47000000000E+01 0. -1.
        -11    1    4    4    0    0 -0.91212744117E+01  0.39955702112E+02  0.14809959051E+02  0.43577410034E+02  0.00000000000E+00 0.  1.
         12    1    4    4    0    0  0.64273616687E+02  0.64098669150E+02  0.45406498044E+02  0.10149624256E+03  0.00000000000E+00 0. -1.
         -5    1    5    5    0  502 -0.15472102561E+03 -0.10726039448E+03  0.16081412992E+03  0.24764220636E+03  0.47000000000E+01 0.  1.
         11    1    6    6    0    0 -0.34397703339E+02 -0.15891722447E+02  0.46805716334E+02  0.60220627022E+02  0.00000000000E+00 0. -1.
        -12    1    6    6    0    0  0.19679306648E+02 -0.74159136622E+02  0.26478840520E+02  0.81166382511E+02  0.00000000000E+00 0.  1.
</event>
<event>
12    1  0.1594900E-001  0.2002646E+03  0.7818608E-02  0.1150254E+00
         21   -1    0    0  503  502  0.00000000000E+00  0.00000000000E+00  0.76759099024E+03  0.76759099024E+03  0.00000000000E+00 0.  1.
         21   -1    0    0  501  503 -0.00000000000E+00 -0.00000000000E+00 -0.51658036987E+02  0.51658036987E+02  0.00000000000E+00 0.  1.
          6    2    1    2  501    0  0.90836365484E+02 -0.40052117191E+02  0.32926781280E+03  0.38538710612E+03  0.17392674215E+03 0.  0.
         24    2    3    3    0    0  0.85506700789E+02 -0.26858154352E+02  0.34428317002E+03  0.36417303217E+03  0.77835338158E+02 0.  0.
         -6    2    1    2    0  502 -0.90836365484E+02  0.40052117191E+02  0.38666514046E+03  0.43386192110E+03  0.16991414995E+03 0.  0.
        -24    2    5    5    0    0 -0.37653114234E+02  0.68380978654E+01  0.35057282295E+03  0.36136106127E+03  0.78841586848E+02 0.  0.
          5    1    3    3  501    0  0.53296646949E+01 -0.13193962838E+02 -0.15015357223E+02  0.21214073953E+02  0.47000000000E+01 0. -1.
        -13    1    4    4    0    0  0.10019515708E+03 -0.18927654106E+02  0.29928187362E+03  0.31617552953E+03  0.00000000000E+00 0.  1.
         14    1    4    4    0    0 -0.14688456295E+02 -0.79305002460E+01  0.45001296397E+02  0.47997502643E+02  0.00000000000E+00 0. -1.
         -5    1    5    5    0  502 -0.53183251250E+02  0.33214019326E+02  0.36092317501E+02  0.72500859829E+02  0.47000000000E+01 0.  1.
         11    1    6    6    0    0 -0.14550538842E+02  0.42298802581E+02  0.15924642590E+03  0.16540958570E+03  0.00000000000E+00 0. -1.
        -12    1    6    6    0    0 -0.23102575392E+02 -0.35460704715E+02  0.19132639706E+03  0.19595147557E+03  0.00000000000E+00 0.  1.
</event>
<event>
12    1  0.1594900E-001  0.1990543E+03  0.7818608E-02  0.1150548E+00
         21   -1    0    0  503  502  0.00000000000E+00  0.00000000000E+00  0.31885214399E+03  0.31885214399E+03  0.00000000000E+00 0. -1.
         21   -1    0    0  501  503 -0.00000000000E+00 -0.00000000000E+00 -0.12624338110E+03  0.12624338110E+03  0.00000000000E+00 0.  1.
          6    2    1    2  501    0  0.42155609694E+02  0.90508701041E+02  0.12431787397E+03  0.23465253569E+03  0.17215678414E+03 0.  0.
         24    2    3    3    0    0 -0.14195029704E+02  0.95214302384E+02  0.36298235659E+02  0.12992868944E+03  0.79351371642E+02 0.  0.
         -6    2    1    2    0  502 -0.42155609694E+02 -0.90508701041E+02  0.68290888920E+02  0.21044298940E+03  0.17220245610E+03 0.  0.
        -24    2    5    5    0    0 -0.32298714259E+01 -0.79827674734E+02 -0.18890798258E+02  0.11425549540E+03  0.79464245092E+02 0.  0.
          5    1    3    3  501    0  0.56350639398E+02 -0.47056013430E+01  0.88019638313E+02  0.10472384625E+03  0.47000000000E+01 0. -1.
        -11    1    4    4    0    0 -0.39510886118E+00  0.95527168690E+02  0.49270271334E+01  0.95654961530E+02  0.00000000000E+00 0.  1.
         12    1    4    4    0    0 -0.13799920842E+02 -0.31286630651E+00  0.31371208526E+02  0.34273727912E+02  0.00000000000E+00 0. -1.
         -5    1    5    5    0  502 -0.38925738268E+02 -0.10681026307E+02  0.87181687178E+02  0.96187494000E+02  0.47000000000E+01 0.  1.
         13    1    6    6    0    0  0.94701764329E+01  0.77960329557E+01  0.15065937669E+02  0.19427939916E+02  0.00000000000E+00 0. -1.
        -14    1    6    6    0    0 -0.12700047859E+02 -0.87623707689E+02 -0.33956735927E+02  0.94827555487E+02  0.00000000000E+00 0.  1.
</event>
<event>
12    1  0.1594900E-001  0.1764894E+03  0.7818608E-02  0.1171494E+00
         21   -1    0    0  501  502  0.00000000000E+00  0.00000000000E+00  0.64348192962E+03  0.64348192962E+03  0.00000000000E+00 0. -1.
         21   -1    0    0  502  503 -0.00000000000E+00 -0.00000000000E+00 -0.56316459687E+02  0.56316459687E+02  0.00000000000E+00 0. -1.
         -6    2    1    2    0  503 -0.20579874235E+02 -0.28689996706E+02  0.16090610791E+03  0.23882897359E+03  0.17292153114E+03 0.  0.
        -24    2    3    3    0    0  0.28625674949E+02 -0.53965138843E+02  0.45232484238E+02  0.11052271461E+03  0.80234826217E+02 0.  0.
          6    2    1    2  501    0  0.20579874235E+02  0.28689996706E+02  0.42625936202E+03  0.46096941572E+03  0.17189854966E+03 0.  0.
         24    2    5    5    0    0  0.33973396771E+02  0.52468930057E+02  0.13596675938E+03  0.16935887189E+03  0.79298723340E+02 0.  0.
          5    1    5    5  501    0 -0.13393522536E+02 -0.23778933352E+02  0.29029260265E+03  0.29161054382E+03  0.47000000000E+01 0. -1.
        -13    1    6    6    0    0 -0.13961669703E+02 -0.85926126276E+01  0.50453147341E+01  0.17152737783E+02  0.00000000000E+00 0.  1.
         14    1    6    6    0    0  0.47935066474E+02  0.61061542685E+02  0.13092144464E+03  0.15220613411E+03  0.00000000000E+00 0. -1.
         -5    1    3    3    0  503 -0.49205549184E+02  0.25275142137E+02  0.11567362367E+03  0.12830625898E+03  0.47000000000E+01 0.  1.
         13    1    4    4    0    0 -0.28041608365E+02 -0.22444791095E+02  0.18258017030E+02  0.40292128671E+02  0.00000000000E+00 0. -1.
        -14    1    4    4    0    0  0.56667283314E+02 -0.31520347748E+02  0.26974467209E+02  0.70230585940E+02  0.00000000000E+00 0.  1.
</event>
<event>
12    1  0.1594900E-001  0.1835055E+03  0.7818608E-02  0.1164624E+00
         21   -1    0    0  501  502  0.00000000000E+00  0.00000000000E+00  0.94098531642E+03  0.94098531642E+03  0.00000000000E+00 0.  1.
         21   -1    0    0  502  503 -0.00000000000E+00 -0.00000000000E+00 -0.36796994053E+02  0.36796994053E+02  0.00000000000E+00 0.  1.
         -6    2    1    2    0  503  0.55405823429E+02 -0.28567035500E+02  0.36473619971E+03  0.40797282734E+03  0.17182389731E+03 0.  0.
        -24    2    3    3    0    0 -0.22438494529E+02  0.10304637140E+02  0.25017646574E+03  0.26403962263E+03  0.80740242302E+02 0.  0.
          6    2    1    2  501    0 -0.55405823429E+02  0.28567035500E+02  0.53945212266E+03  0.56980948313E+03  0.17259308686E+03 0.  0.
         24    2    5    5    0    0 -0.74781385219E+02  0.59560796107E+02  0.50299992481E+03  0.51797437611E+03  0.78414194768E+02 0.  0.
          5    1    5    5  501    0  0.19375561790E+02 -0.30993760608E+02  0.36452197851E+02  0.51835107017E+02  0.47000000000E+01 0. -1.
        -13    1    6    6    0    0  0.16692498549E+02  0.11822260821E+02  0.85725038940E+02  0.88131649594E+02  0.00000000000E+00 0.  1.
         14    1    6    6    0    0 -0.91473883768E+02  0.47738535286E+02  0.41727488587E+03  0.42984272652E+03  0.00000000000E+00 0. -1.
         -5    1    3    3    0  503  0.77844317957E+02 -0.38871672640E+02  0.11455973397E+03  0.14393320471E+03  0.47000000000E+01 0.  1.
         11    1    4    4    0    0  0.11621109614E+02  0.21028778533E+02  0.20524797359E+03  0.20664943837E+03  0.00000000000E+00 0. -1.
        -12    1    4    4    0    0 -0.34059604143E+02 -0.10724141394E+02  0.44928492147E+02  0.57390184262E+02  0.00000000000E+00 0.  1.
</event>
<event>
12    1  0.1594900E-001  0.1924593E+03  0.7818608E-02  0.1156723E+00
         21   -1    0    0  503  502  0.00000000000E+00  0.00000000000E+00  0.12417253042E+03  0.12417253042E+03  0.00000000000E+00 0. -1.
         21   -1    0    0  501  503 -0.00000000000E+00 -0.00000000000E+00 -0.30225945617E+03  0.30225945617E+03  0.00000000000E+00 0. -1.
          6    2    1    2  501    0  0.51633130087E+02  0.69930522842E+02 -0.12138216783E+03  0.22579294773E+03  0.16938880255E+03 0.  0.
         24    2    3    3    0    0  0.17694747173E+01 -0.22000077173E+02 -0.31598677592E+02  0.87877087639E+02  0.78973233883E+02 0.  0.
         -6    2    1    2    0  502 -0.51633130087E+02 -0.69930522842E+02 -0.56704757920E+02  0.20063903886E+03  0.17171003522E+03 0.  0.
        -24    2    5    5    0    0 -0.95089965988E+02 -0.26539415995E+02 -0.18278906201E+02  0.12804481856E+03  0.79466438929E+02 0.  0.
          5    1    3    3  501    0  0.49863655370E+02  0.91930600015E+02 -0.89783490240E+02  0.13791586009E+03  0.47000000000E+01 0. -1.
        -11    1    4    4    0    0 -0.37771717173E+01 -0.34679326044E+02 -0.52365625201E+02  0.62921231581E+02  0.00000000000E+00 0.  1.
         12    1    4    4    0    0  0.55466464347E+01  0.12679248871E+02  0.20766947609E+02  0.24955856058E+02  0.00000000000E+00 0. -1.
         -5    1    5    5    0  502  0.43456835901E+02 -0.43391106847E+02 -0.38425851718E+02  0.72594220294E+02  0.47000000000E+01 0.  1.
         13    1    6    6    0    0 -0.14311666192E+02 -0.29007145235E+02  0.20615263528E+02  0.38356581629E+02  0.00000000000E+00 0. -1.
        -14    1    6    6    0    0 -0.80778299795E+02  0.24677292403E+01 -0.38894169729E+02  0.89688236934E+02  0.00000000000E+00 0.  1.
</event>
<event>
12    1  0.1594900E-001  0.1937276E+03  0.7818608E-02  0.1155314E+00
         21   -1    0    0  503  502  0.00000000000E+00  0.00000000000E+00  0.46963061705E+02  0.46963061705E+02  0.00000000000E+00 0.  1.
         21   -1    0    0  501  503 -0.00000000000E+00 -0.00000000000E+00 -0.10239087720E+04  0.10239087720E+04  0.00000000000E+00 0.  1.
          6    2    1    2  501    0 -0.86817412445E+02  0.10211591089E+02 -0.74036026793E+03  0.76508915932E+03  0.17200742912E+03 0.  0.
         24    2    3    3    0    0 -0.20457451063E+02  0.44603587242E+02 -0.58611036892E+03  0.59362028395E+03  0.80322410703E+02 0.  0.
         -6    2    1    2    0  502  0.86817412445E+02 -0.10211591089E+02 -0.23658544233E+03  0.30578267435E+03  0.17288387061E+03 0.  0.
        -24    2    5    5    0    0  0.66937724056E+02  0.32109633741E+02 -0.23629942246E+03  0.25878842057E+03  0.74982278454E+02 0.  0.
          5    1    3    3  501    0 -0.66359961383E+02 -0.34391996154E+02 -0.15424989901E+03  0.17146887537E+03  0.47000000000E+01 0. -1.
        -13    1    4    4    0    0 -0.35527389215E+02  0.59860630242E+01 -0.44739528851E+03  0.44884359471E+03  0.00000000000E+00 0.  1.
         14    1    4    4    0    0  0.15069938152E+02  0.38617524218E+02 -0.13871508041E+03  0.14477668924E+03  0.00000000000E+00 0. -1.
         -5    1    5    5    0  502  0.19879688389E+02 -0.42321224830E+02 -0.28601986282E+00  0.46994253786E+02  0.47000000000E+01 0.  1.
         11    1    6    6    0    0  0.27199397420E+02  0.53706484964E+02 -0.12964836711E+03  0.14294367017E+03  0.00000000000E+00 0. -1.
        -12    1    6    6    0    0  0.39738326637E+02 -0.21596851223E+02 -0.10665105535E+03  0.11584475040E+03  0.00000000000E+00 0.  1.
</event>
<event>
12    1  0.1594900E-001  0.2145707E+03  0.7818608E-02  0.1138565E+00
         21   -1    0    0  503  502  0.00000000000E+00  0.00000000000E+00  0.14894816820E+04  0.14894816820E+04  0.00000000000E+00 0.  1.
         21   -1    0    0  501  503 -0.00000000000E+00 -0.00000000000E+00 -0.50281326504E+02  0.50281326504E+02  0.00000000000E+00 0. -1.
          6    2    1    2  501    0 -0.12233110137E+03 -0.33248362342E+02  0.11996084923E+04  0.12181346080E+04  0.16947281876E+03 0.  0.
         24    2    3    3    0    0 -0.15139459900E+02 -0.18128844886E+02  0.27197211333E+03  0.28419136052E+03  0.78981268044E+02 0.  0.
         -6    2    1    2    0  502  0.12233110137E+03  0.33248362342E+02  0.23959186320E+03  0.32162840057E+03  0.17311907804E+03 0.  0.
        -24    2    5    5    0    0  0.10251282752E+03  0.79315666431E+02  0.22035771172E+03  0.26771176986E+03  0.79449454746E+02 0.  0.
          5    1    3    3  501    0 -0.10719164147E+03 -0.15119517457E+02  0.92763637900E+03  0.93394324745E+03  0.47000000000E+01 0. -1.
        -11    1    4    4    0    0 -0.22461855628E+02 -0.17087701524E+02  0.27482043533E+03  0.27626580711E+03  0.00000000000E+00 0.  1.
         12    1    4    4    0    0  0.73223957279E+01 -0.10411433617E+01 -0.28483219993E+01  0.79255534133E+01  0.00000000000E+00 0. -1.
         -5    1    5    5    0  502  0.19818273845E+02 -0.46067304089E+02  0.19234151483E+02  0.53916630714E+02  0.47000000000E+01 0.  1.
         13    1    6    6    0    0  0.72492332823E+02  0.19594530743E+02  0.67878885366E+02  0.10122562438E+03  0.00000000000E+00 0. -1.
        -14    1    6    6    0    0  0.30020494700E+02  0.59721135688E+02  0.15247882635E+03  0.16648614548E+03  0.00000000000E+00 0.  1.
</event>
<event>
12    1  0.1594900E-001  0.2078386E+03  0.7818608E-02  0.1143358E+00
         21   -1    0    0  503  502  0.00000000000E+00  0.00000000000E+00  0.38828694034E+03  0.38828694034E+03  0.00000000000E+00 0.  1.
         21   -1    0    0  501  503 -0.00000000000E+00 -0.00000000000E+00 -0.11110449156E+03  0.11110449156E+03  0.00000000000E+00 0. -1.
          6    2    1    2  501    0  0.35375546270E+02 -0.11121825067E+03  0.13381398599E+03  0.24690100191E+03  0.17156046556E+03 0.  0.
         24    2    3    3    0    0  0.69264317447E+02 -0.76344108353E+02  0.32555189288E+02  0.13447285364E+03  0.79982119663E+02 0.  0.
         -6    2    1    2    0  502 -0.35375546270E+02  0.11121825067E+03  0.14336846278E+03  0.25249042998E+03  0.17197666282E+03 0.  0.
        -24    2    5    5    0    0 -0.79931244768E+02  0.10884235170E+03  0.80050973600E+02  0.17488856402E+03  0.77085602005E+02 0.  0.
          5    1    3    3  501    0 -0.33888771177E+02 -0.34874142315E+02  0.10125879670E+03  0.11242814827E+03  0.47000000000E+01 0. -1.
        -13    1    4    4    0    0  0.15823374049E+02 -0.56154155697E+02  0.47714550798E+02  0.75368074980E+02  0.00000000000E+00 0.  1.
         14    1    4    4    0    0  0.53440943397E+02 -0.20189952656E+02 -0.15159361510E+02  0.59104778663E+02  0.00000000000E+00 0. -1.
         -5    1    5    5    0  502  0.44555698498E+02  0.23758989727E+01  0.63317489184E+02  0.77601865964E+02  0.47000000000E+01 0.  1.
         11    1    6    6    0    0  0.10272449693E+02  0.14140509389E+01 -0.42760087610E+01  0.11216372572E+02  0.00000000000E+00 0. -1.
        -12    1    6    6    0    0 -0.90203694461E+02  0.10742830076E+03  0.84326982361E+02  0.16367219144E+03  0.00000000000E+00 0.  1.
</event>
<event>
12    1  0.1594900E-001  0.6103078E+03  0.7818608E-02  0.9884441E-01
         21   -1    0    0  503  502  0.00000000000E+00  0.00000000000E+00  0.32951166471E+03  0.32951166471E+03  0.00000000000E+00 0. -1.
         21   -1    0    0  501  503 -0.00000000000E+00 -0.00000000000E+00 -0.11424627456E+04  0.11424627456E+04  0.00000000000E+00 0.  1.
          6    2    1    2  501    0  0.56729191458E+03 -0.14561176445E+03 -0.32851967307E+03  0.69277647548E+03  0.17026792735E+03 0.  0.
         24    2    3    3    0    0  0.42135833292E+03 -0.92258389444E+02 -0.16940916796E+03  0.47033224490E+03  0.80364788680E+02 0.  0.
         -6    2    1    2    0  502 -0.56729191458E+03  0.14561176445E+03 -0.48443140778E+03  0.77919793479E+03  0.17161797818E+03 0.  0.
        -24    2    5    5    0    0 -0.54233677238E+03  0.14398056336E+03 -0.40751043931E+03  0.69817728723E+03  0.80791020303E+02 0.  0.
          5    1    3    3  501    0  0.14593358166E+03 -0.53353375009E+02 -0.15911050511E+03  0.22244423058E+03  0.47000000000E+01 0. -1.
        -13    1    4    4    0    0  0.53558167127E+02  0.12165675469E+02 -0.34662974222E+02  0.64946152369E+02  0.00000000000E+00 0.  1.
         14    1    4    4    0    0  0.36780016579E+03 -0.10442406491E+03 -0.13474619374E+03  0.40538609253E+03  0.00000000000E+00 0. -1.
         -5    1    5    5    0  502 -0.24955142201E+02  0.16312010972E+01 -0.76920968472E+02  0.81020647553E+02  0.47000000000E+01 0.  1.
         11    1    6    6    0    0 -0.58946095439E+02  0.17396287348E+02 -0.16360186105E+02  0.63599753698E+02  0.00000000000E+00 0. -1.
        -12    1    6    6    0    0 -0.48339067694E+03  0.12658427601E+03 -0.39115025320E+03  0.63457753354E+03  0.00000000000E+00 0.  1.
</event>
<event>
12    1  0.1594900E-001  0.1970902E+03  0.7818608E-02  0.1152924E+00
         21   -1    0    0  503  502  0.00000000000E+00  0.00000000000E+00  0.71335048983E+02  0.71335048983E+02  0.00000000000E+00 0. -1.
         21   -1    0    0  501  503 -0.00000000000E+00 -0.00000000000E+00 -0.74800212245E+03  0.74800212245E+03  0.00000000000E+00 0. -1.
          6    2    1    2  501    0 -0.62081831570E+02  0.75338501041E+02 -0.12204250325E+03  0.23181652283E+03  0.17121473100E+03 0.  0.
         24    2    3    3    0    0  0.87434743496E+01 -0.16029012468E+02 -0.50759033997E+02  0.95920719105E+02  0.79315365705E+02 0.  0.
         -6    2    1    2    0  502  0.62081831570E+02 -0.75338501041E+02 -0.55462457022E+03  0.58752064860E+03  0.16745762176E+03 0.  0.
        -24    2    5    5    0    0  0.98118337296E+02 -0.57996011555E+02 -0.31581606822E+03  0.34534099976E+03  0.80807621515E+02 0.  0.
          5    1    3    3  501    0 -0.70825305920E+02  0.91367513509E+02 -0.71283469248E+02  0.13589580373E+03  0.47000000000E+01 0. -1.
        -11    1    4    4    0    0 -0.18766181014E+02 -0.39600658310E+02 -0.36339838487E+02  0.56929478741E+02  0.00000000000E+00 0.  1.
         12    1    4    4    0    0  0.27509655364E+02  0.23571645842E+02 -0.14419195510E+02  0.38991240364E+02  0.00000000000E+00 0. -1.
         -5    1    5    5    0  502 -0.36036505726E+02 -0.17342489486E+02 -0.23880850200E+03  0.24217964884E+03  0.47000000000E+01 0.  1.
         11    1    6    6    0    0  0.27147160593E+02 -0.45483020124E+02 -0.21492031745E+03  0.22135134131E+03  0.00000000000E+00 0. -1.
        -12    1    6    6    0    0  0.70971176703E+02 -0.12512991430E+02 -0.10089575078E+03  0.12398965845E+03  0.00000000000E+00 0.  1.
</event>
<event>
12    1  0.1594900E-001  0.2178153E+03  0.7818608E-02  0.1136473E+00
         21   -1    0    0  503  502  0.00000000000E+00  0.00000000000E+00  0.23887167122E+03  0.23887167122E+03  0.00000000000E+00 0. -1.
         21   -1    0    0  501  503 -0.00000000000E+00 -0.00000000000E+00 -0.19683590108E+03  0.19683590108E+03  0.00000000000E+00 0.  1.
          6    2    1    2  501    0  0.12911091136E+03 -0.28953078831E+02 -0.44028322633E+01  0.21785981739E+03  0.17301909402E+03 0.  0.
         24    2    3    3    0    0  0.10779859890E+03 -0.64099691862E+02 -0.50343771452E+02  0.15603620570E+03  0.77996754688E+02 0.  0.
         -6    2    1    2    0  502 -0.12911091136E+03  0.28953078831E+02  0.46438602404E+02  0.21784775492E+03  0.16671290389E+03 0.  0.
        -24    2    5    5    0    0 -0.10966839517E+03  0.79296204725E+02  0.51761394061E+02  0.16341555974E+03  0.75566912525E+02 0.  0.
          5    1    3    3  501    0  0.21312312453E+02  0.35146613031E+02  0.45940939188E+02  0.61823611696E+02  0.47000000000E+01 0. -1.
        -11    1    4    4    0    0  0.24598890409E+02 -0.59454403792E+02 -0.23209210281E+02  0.68400284952E+02  0.00000000000E+00 0.  1.
         12    1    4    4    0    0  0.83199708495E+02 -0.46452880698E+01 -0.27134561170E+02  0.87635920745E+02  0.00000000000E+00 0. -1.
         -5    1    5    5    0  502 -0.19442516191E+02 -0.50343125894E+02 -0.53227916566E+01  0.54432195175E+02  0.47000000000E+01 0.  1.
         13    1    6    6    0    0 -0.78621644426E+02  0.14232695197E+02  0.43164106452E+02  0.90813394775E+02  0.00000000000E+00 0. -1.
        -14    1    6    6    0    0 -0.31046750740E+02  0.65063509528E+02  0.85972876089E+01  0.72602164966E+02  0.00000000000E+00 0.  1.
</event>
<event>
12    1  0.1594900E-001  0.1795887E+03  0.7818608E-02  0.1168436E+00
         21   -1    0    0  503  502  0.00000000000E+00  0.00000000000E+00  0.24207102463E+03  0.24207102463E+03  0.00000000000E+00 0. -1.
         21   -1    0    0  501  503 -0.00000000000E+00 -0.00000000000E+00 -0.15162046707E+03  0.15162046707E+03  0.00000000000E+00 0. -1.
          6    2    1    2  501    0  0.26485627701E+02  0.46652413284E+02  0.11519442733E+03  0.21335850668E+03  0.17138891488E+03 0.  0.
         24    2    3    3    0    0 -0.30269408300E+02  0.45021216410E+02  0.12288240490E+03  0.15586946499E+03  0.79069954330E+02 0.  0.
         -6    2    1    2    0  502 -0.26485627701E+02 -0.46652413284E+02 -0.24743869772E+02  0.18033298502E+03  0.17038130841E+03 0.  0.
        -24    2    5    5    0    0 -0.56957356180E+02 -0.84245690872E+02 -0.20700850138E+02  0.13154551979E+03  0.80834533005E+02 0.  0.
          5    1    3    3  501    0  0.56755036001E+02  0.16311968735E+01 -0.76879775713E+01  0.57489041685E+02  0.47000000000E+01 0. -1.
        -13    1    4    4    0    0 -0.29560697879E+02 -0.16641510020E+02  0.37807008941E+02  0.50795124174E+02  0.00000000000E+00 0.  1.
         14    1    4    4    0    0 -0.70871042156E+00  0.61662726430E+02  0.85075395956E+02  0.10507434082E+03  0.00000000000E+00 0. -1.
         -5    1    5    5    0  502  0.30471728479E+02  0.37593277588E+02 -0.40430196339E+01  0.48787465236E+02  0.47000000000E+01 0.  1.
         13    1    6    6    0    0 -0.68383791074E+02 -0.31342872329E+02 -0.18040282025E+02  0.77357419185E+02  0.00000000000E+00 0. -1.
        -14    1    6    6    0    0  0.11426434893E+02 -0.52902818543E+02 -0.26605681132E+01  0.54188100602E+02  0.00000000000E+00 0.  1.
</event>
<event>
12    1  0.1594900E-001  0.2053826E+03  0.7818608E-02  0.1145628E+00
         21   -1    0    0  503  502  0.00000000000E+00  0.00000000000E+00  0.10819011044E+04  0.10819011044E+04  0.00000000000E+00 0.  1.
         21   -1    0    0  501  503 -0.00000000000E+00 -0.00000000000E+00 -0.39099747894E+02  0.39099747894E+02  0.00000000000E+00 0.  1.
          6    2    1    2  501    0 -0.10937029304E+03  0.17390788674E+02  0.57851166291E+03  0.61331302800E+03  0.17091759903E+03 0.  0.
         24    2    3    3    0    0 -0.11050983258E+03  0.20337245378E+02  0.25560522652E+03  0.29035693684E+03  0.79668640620E+02 0.  0.
         -6    2    1    2    0  502  0.10937029304E+03 -0.17390788674E+02  0.46428969358E+03  0.50768782428E+03  0.17296735769E+03 0.  0.
        -24    2    5    5    0    0  0.40432962349E+02  0.17892522436E+02  0.36760566129E+03  0.38372347575E+03  0.10077111109E+03 0.  0.
          5    1    3    3  501    0  0.11395395383E+01 -0.29464567047E+01  0.32290643639E+03  0.32295609116E+03  0.47000000000E+01 0. -1.
        -11    1    4    4    0    0 -0.76385360521E+02  0.45969459941E+02  0.12945760634E+03  0.15718519774E+03  0.00000000000E+00 0.  1.
         12    1    4    4    0    0 -0.34124472057E+02 -0.25632214563E+02  0.12614762018E+03  0.13317173910E+03  0.00000000000E+00 0. -1.
         -5    1    5    5    0  502  0.68937330690E+02 -0.35283311109E+02  0.96684032293E+02  0.12396434853E+03  0.47000000000E+01 0.  1.
         11    1    6    6    0    0 -0.76823850217E+01 -0.28108210764E+02  0.40381627983E+02  0.49797253243E+02  0.00000000000E+00 0. -1.
        -12    1    6    6    0    0  0.48115347371E+02  0.46000733199E+02  0.32722403330E+03  0.33392622251E+03  0.00000000000E+00 0.  1.
</event>
<event>
12    1  0.1594900E-001  0.1830308E+03  0.7818608E-02  0.1165391E+00
         21   -1    0    0  503  502  0.00000000000E+00  0.00000000000E+00  0.39089131513E+03  0.39089131513E+03  0.00000000000E+00 0.  1.
         21   -1    0    0  501  503 -0.00000000000E+00 -0.00000000000E+00 -0.22782251702E+03  0.22782251702E+03  0.00000000000E+00 0.  1.
          6    2    1    2  501    0  0.57337107128E+02 -0.11883151791E+02 -0.16379659715E+03  0.24409231954E+03  0.17123954587E+03 0.  0.
         24    2    3    3    0    0  0.53648045814E+02 -0.26657617155E+02 -0.18937061795E+03  0.21395903993E+03  0.79551860164E+02 0.  0.
         -6    2    1    2    0  502 -0.57337107128E+02  0.11883151791E+02  0.32686539526E+03  0.37462151261E+03  0.17341147003E+03 0.  0.
        -24    2    5    5    0    0  0.21824817581E+02  0.37206308608E+02  0.23190278539E+03  0.24833667635E+03  0.77663188747E+02 0.  0.
          5    1    3    3  501    0  0.36890613135E+01  0.14774465364E+02  0.25574020797E+02  0.30133279608E+02  0.47000000000E+01 0. -1.
        -13    1    4    4    0    0 -0.14586682231E+02 -0.16021810316E+02 -0.92429716281E+02  0.94935357776E+02  0.00000000000E+00 0.  1.
         14    1    4    4    0    0  0.68234728045E+02 -0.10635806840E+02 -0.96940901665E+02  0.11902368216E+03  0.00000000000E+00 0. -1.
         -5    1    5    5    0  502 -0.79161924709E+02 -0.25323156817E+02  0.94962609868E+02  0.12628483625E+03  0.47000000000E+01 0.  1.
         11    1    6    6    0    0  0.46664658734E+01 -0.19770520334E+02  0.21069861043E+02  0.29267531881E+02  0.00000000000E+00 0. -1.
        -12    1    6    6    0    0  0.17158351708E+02  0.56976828942E+02  0.21083292435E+03  0.21906914447E+03  0.00000000000E+00 0.  1.
</event>
<event>
12    1  0.1594900E-001  0.1886246E+03  0.7818608E-02  0.1159761E+00
         21   -1    0    0  501  502  0.00000000000E+00  0.00000000000E+00  0.15836505324E+03  0.15836505324E+03  0.00000000000E+00 0. -1.
         21   -1    0    0  502  503 -0.00000000000E+00 -0.00000000000E+00 -0.29919347932E+03  0.29919347932E+03  0.00000000000E+00 0. -1.
         -6    2    1    2    0  503 -0.44976077992E+02 -0.61475848394E+02 -0.18477522020E+03  0.26388209675E+03  0.17230714279E+03 0.  0.
        -24    2    3    3    0    0 -0.20162193175E+02 -0.78464811388E+02 -0.48964471121E+02  0.12470234495E+03  0.81178289864E+02 0.  0.
          6    2    1    2  501    0  0.44976077992E+02  0.61475848394E+02  0.43946794119E+02  0.19367643582E+03  0.17256046347E+03 0.  0.
         24    2    5    5    0    0  0.72541476375E+02  0.37032827260E+02 -0.23783395859E+02  0.11643149356E+03  0.79730462719E+02 0.  0.
          5    1    5    5  501    0 -0.27565398383E+02  0.24443021134E+02  0.67730189978E+02  0.77244942259E+02  0.47000000000E+01 0. -1.
        -13    1    6    6    0    0  0.50029114741E+02  0.19669480276E+02  0.25528764144E+02  0.59510659338E+02  0.00000000000E+00 0.  1.
         14    1    6    6    0    0  0.22512361634E+02  0.17363346984E+02 -0.49312160003E+02  0.56920834226E+02  0.00000000000E+00 0. -1.
         -5    1    3    3    0  503 -0.24813884817E+02  0.16988962994E+02 -0.13581074908E+03  0.13917975179E+03  0.47000000000E+01 0.  1.
         11    1    4    4    0    0 -0.14842205121E+02 -0.37479288339E+02 -0.68116754115E+02  0.79150996825E+02  0.00000000000E+00 0. -1.
        -12    1    4    4    0    0 -0.53199880547E+01 -0.40985523049E+02  0.19152282995E+02  0.45551348129E+02  0.00000000000E+00 0.  1.
</event>
<event>
12    1  0.1594900E-001  0.1972221E+03  0.7818608E-02  0.1152830E+00
         21   -1    0    0  503  502  0.00000000000E+00  0.00000000000E+00  0.11551659301E+04  0.11551659301E+04  0.00000000000E+00 0.  1.
         21   -1    0    0  501  503 -0.00000000000E+00 -0.00000000000E+00 -0.52607236533E+02  0.52607236533E+02  0.00000000000E+00 0.  1.
          6    2    1    2  501    0 -0.18323959282E+02 -0.88162080046E+02  0.18654968482E+03  0.27147253850E+03  0.17546576420E+03 0.  0.
         24    2    3    3    0    0 -0.63109063293E+02 -0.72558182977E+02  0.18585271622E+03  0.22380952442E+03  0.79385309166E+02 0.  0.
         -6    2    1    2    0  502  0.18323959282E+02  0.88162080046E+02  0.91600900879E+03  0.93630062818E+03  0.17169170718E+03 0.  0.
        -24    2    5    5    0    0 -0.12953416939E+02 -0.10572037393E+02  0.30302623786E+03  0.31461206655E+03  0.82923414083E+02 0.  0.
          5    1    3    3  501    0  0.44785104012E+02 -0.15603897069E+02  0.69696860854E+00  0.47663014071E+02  0.47000000000E+01 0. -1.
        -13    1    4    4    0    0 -0.30731761158E+02 -0.65862753088E+02  0.17420005013E+03  0.18875381017E+03  0.00000000000E+00 0.  1.
         14    1    4    4    0    0 -0.32377302135E+02 -0.66954298887E+01  0.11652666085E+02  0.35055714253E+02  0.00000000000E+00 0. -1.
         -5    1    5    5    0  502  0.31277376220E+02  0.98734117439E+02  0.61298277093E+03  0.62168856163E+03  0.47000000000E+01 0.  1.
         13    1    6    6    0    0 -0.34465968062E+02  0.34782229993E+01  0.27258154524E+03  0.27477390668E+03  0.00000000000E+00 0. -1.
        -14    1    6    6    0    0  0.21512551123E+02 -0.14050260392E+02  0.30444692625E+02  0.39838159871E+02  0.00000000000E+00 0.  1.
</event>
<event>
12    1  0.1594900E-001  0.3082508E+03  0.7818608E-02  0.1081978E+00
         21   -1    0    0  501  502  0.00000000000E+00  0.00000000000E+00  0.18681174448E+03  0.18681174448E+03  0.00000000000E+00 0. -1.
         21   -1    0    0  502  503 -0.00000000000E+00 -0.00000000000E+00 -0.98402217627E+03  0.98402217627E+03  0.00000000000E+00 0.  1.
         -6    2    1    2    0  503  0.24701563671E+03  0.66889814958E+02 -0.80787597363E+03  0.86239865238E+03  0.15992771721E+03 0.  0.
        -24    2    3    3    0    0  0.15958302592E+03  0.34075352541E+02 -0.34389099196E+03  0.38908543305E+03  0.80613820471E+02 0.  0.
          6    2    1    2  501    0 -0.24701563671E+03 -0.66889814958E+02  0.10665541850E+02  0.30843526837E+03  0.17183593590E+03 0.  0.
         24    2    5    5    0    0 -0.74546325001E+02  0.22542083873E+02 -0.12873856746E+02  0.11268052054E+03  0.80410592622E+02 0.  0.
          5    1    5    5  501    0 -0.17246931171E+03 -0.89431898831E+02  0.23539398596E+02  0.19575474783E+03  0.47000000000E+01 0. -1.
        -13    1    6    6    0    0 -0.78189264553E+02  0.84937300201E+01 -0.35107649104E+02  0.86129272414E+02  0.00000000000E+00 0.  1.
         14    1    6    6    0    0  0.36429395520E+01  0.14048353852E+02  0.22233792358E+02  0.26551248128E+02  0.00000000000E+00 0. -1.
         -5    1    3    3    0  503  0.87432610794E+02  0.32814462418E+02 -0.46398498167E+03  0.47331321933E+03  0.47000000000E+01 0.  1.
         11    1    4    4    0    0  0.16329482253E+02  0.17982595019E+02 -0.11693077600E+02  0.26958371205E+02  0.00000000000E+00 0. -1.
        -12    1    4    4    0    0  0.14325354366E+03  0.16092757521E+02 -0.33219791436E+03  0.36212706185E+03  0.00000000000E+00 0.  1.
</event>
<event>
12    1  0.1594900E-001  0.2071837E+03  0.7818608E-02  0.1144572E+00
         21   -1    0    0  503  502  0.00000000000E+00  0.00000000000E+00  0.15498348169E+03  0.15498348169E+03  0.00000000000E+00 0.  1.
         21   -1    0    0  501  503 -0.00000000000E+00 -0.00000000000E+00 -0.29613212083E+03  0.29613212083E+03  0.00000000000E+00 0.  1.
          6    2    1    2  501    0 -0.11038401902E+03 -0.33626596137E+02 -0.13552353125E+03  0.24757159447E+03  0.17207465601E+03 0.  0.
         24    2    3    3    0    0 -0.87759011409E+02 -0.10373796258E+02 -0.12356747929E+02  0.12011677822E+03  0.80412010656E+02 0.  0.
         -6    2    1    2    0  502  0.11038401902E+03  0.33626596137E+02 -0.56251078878E+01  0.20354400805E+03  0.16758025466E+03 0.  0.
        -24    2    5    5    0    0  0.12160325095E+03 -0.19831272919E+02  0.70478240415E+01  0.14727405041E+03  0.80370044626E+02 0.  0.
          5    1    3    3  501    0 -0.22625007611E+02 -0.23252799879E+02 -0.12316678332E+03  0.12745481625E+03  0.47000000000E+01 0. -1.
        -11    1    4    4    0    0 -0.95009674733E+02 -0.98056204642E+01 -0.30746492717E+02  0.10034109477E+03  0.00000000000E+00 0.  1.
         12    1    4    4    0    0  0.72506633244E+01 -0.56817579342E+00  0.18389744788E+02  0.19775683446E+02  0.00000000000E+00 0. -1.
         -5    1    5    5    0  502 -0.11219231927E+02  0.53457869056E+02 -0.12672931929E+02  0.56269957639E+02  0.47000000000E+01 0.  1.
         13    1    6    6    0    0 -0.33737850473E+01  0.15989961920E+02 -0.39116204656E+01  0.16803633012E+02  0.00000000000E+00 0. -1.
        -14    1    6    6    0    0  0.12497703599E+03 -0.35821234839E+02  0.10959444507E+02  0.13047041740E+03  0.00000000000E+00 0.  1.
</event>
<event>
12    1  0.1594900E-001  0.2916558E+03  0.7818608E-02  0.1089570E+00
         21   -1    0    0  503  502  0.00000000000E+00  0.00000000000E+00  0.13078861785E+03  0.13078861785E+03  0.00000000000E+00 0.  1.
         21   -1    0    0  501  503 -0.00000000000E+00 -0.00000000000E+00 -0.64930341866E+03  0.64930341866E+03  0.00000000000E+00 0.  1.
          6    2    1    2  501    0 -0.17588660538E+03  0.15585894152E+03 -0.25080538482E+03  0.38466407839E+03  0.17272812320E+03 0.  0.
         24    2    3    3    0    0 -0.13786041106E+03  0.17747096309E+03 -0.17205563583E+03  0.29446050919E+03  0.81255239687E+02 0.  0.
         -6    2    1    2    0  502  0.17588660538E+03 -0.15585894152E+03 -0.26770941599E+03  0.39542795811E+03  0.17165905465E+03 0.  0.
        -24    2    5    5    0    0  0.12896444677E+03 -0.14285677368E+03 -0.12395307712E+03  0.24357697754E+03  0.83219543014E+02 0.  0.
          5    1    3    3  501    0 -0.38026194319E+02 -0.21612021563E+02 -0.78749748988E+02  0.90203569198E+02  0.47000000000E+01 0. -1.
        -13    1    4    4    0    0 -0.12854430092E+03  0.11790997295E+03 -0.15066917855E+03  0.23049425239E+03  0.00000000000E+00 0.  1.
         14    1    4    4    0    0 -0.93161101346E+01  0.59560990133E+02 -0.21386457280E+02  0.63966256797E+02  0.00000000000E+00 0. -1.
         -5    1    5    5    0  502  0.46922158606E+02 -0.13002167840E+02 -0.14375633887E+03  0.15185098058E+03  0.47000000000E+01 0.  1.
         13    1    6    6    0    0  0.17836544322E+02  0.17416746216E+01 -0.37904377318E+02  0.41927527518E+02  0.00000000000E+00 0. -1.
        -14    1    6    6    0    0  0.11112790245E+03 -0.14459844830E+03 -0.86048699802E+02  0.20164945002E+03  0.00000000000E+00 0.  1.
</event>
<event>
12    1  0.1594900E-001  0.2310326E+03  0.7818608E-02  0.1126099E+00
         21   -1    0    0  501  502  0.00000000000E+00  0.00000000000E+00  0.30606874522E+03  0.30606874522E+03  0.00000000000E+00 0. -1.
         21   -1    0    0  502  503 -0.00000000000E+00 -0.00000000000E+00 -0.37996633248E+03  0.37996633248E+03  0.00000000000E+00 0. -1.
         -6    2    1    2    0  503  0.22583502681E+02  0.15232846210E+03 -0.28969982721E+03  0.36989166871E+03  0.17082119816E+03 0.  0.
        -24    2    3    3    0    0  0.55302933966E+02  0.16687551288E+03 -0.23883904893E+03  0.30751309357E+03  0.81328716455E+02 0.  0.
          6    2    1    2  501    0 -0.22583502681E+02 -0.15232846210E+03  0.21580223995E+03  0.31614340898E+03  0.17222680777E+03 0.  0.
         24    2    5    5    0    0  0.34109670768E+02 -0.10561766911E+03  0.70526855215E+02  0.15328444697E+03  0.78762444788E+02 0.  0.
          5    1    5    5  501    0 -0.56693173449E+02 -0.46710792995E+02  0.14527538473E+03  0.16285896201E+03  0.47000000000E+01 0. -1.
        -11    1    6    6    0    0  0.13459495279E+02  0.49886526442E+01 -0.76583325038E+01  0.16269441450E+02  0.00000000000E+00 0.  1.
         12    1    6    6    0    0  0.20650175489E+02 -0.11060632175E+03  0.78185187719E+02  0.13701500552E+03  0.00000000000E+00 0. -1.
         -5    1    3    3    0  503 -0.32719431285E+02 -0.14547050777E+02 -0.50860778278E+02  0.62378575144E+02  0.47000000000E+01 0.  1.
         11    1    4    4    0    0  0.18273750080E+02  0.90916338200E+02 -0.18603636841E+03  0.20786832579E+03  0.00000000000E+00 0. -1.
        -12    1    4    4    0    0  0.37029183886E+02  0.75959174676E+02 -0.52802680521E+02  0.99644767786E+02  0.00000000000E+00 0.  1.
</event>
<event>
12    1  0.1594900E-001  0.1969356E+03  0.7818608E-02  0.1152438E+00
         21   -1    0    0  503  502  0.00000000000E+00  0.00000000000E+00  0.32055893734E+02  0.32055893734E+02  0.00000000000E+00 0. -1.
         21   -1    0    0  501  503 -0.00000000000E+00 -0.00000000000E+00 -0.15306349110E+04  0.15306349110E+04  0.00000000000E+00 0.  1.
          6    2    1    2  501    0 -0.64766796848E+02  0.70759115801E+02 -0.11077450614E+04  0.11250438962E+04  0.17153150409E+03 0.  0.
         24    2    3    3    0    0 -0.99277048443E+02  0.16386915921E+02 -0.83181571772E+03  0.84166008177E+03  0.79685893535E+02 0.  0.
         -6    2    1    2    0  502  0.64766796848E+02 -0.70759115801E+02 -0.39083395589E+03  0.43764690855E+03  0.17199431689E+03 0.  0.
        -24    2    5    5    0    0  0.22209364283E+02 -0.10533997519E+03 -0.32574995734E+03  0.35241201094E+03  0.80569377030E+02 0.  0.
          5    1    3    3  501    0  0.34510251594E+02  0.54372199880E+02 -0.27592934367E+03  0.28338381443E+03  0.47000000000E+01 0. -1.
        -11    1    4    4    0    0 -0.57390110315E+02 -0.29704149113E+02 -0.36034562054E+03  0.36609415111E+03  0.00000000000E+00 0.  1.
         12    1    4    4    0    0 -0.41886938128E+02  0.46091065034E+02 -0.47147009718E+03  0.47556593065E+03  0.00000000000E+00 0. -1.
         -5    1    5    5    0  502  0.42557432565E+02  0.34580859389E+02 -0.65083998547E+02  0.85234897603E+02  0.47000000000E+01 0.  1.
         13    1    6    6    0    0  0.51866027047E+02 -0.72460653570E+02 -0.23773453437E+03  0.25388647051E+03  0.00000000000E+00 0. -1.
        -14    1    6    6    0    0 -0.29656662763E+02 -0.32879321620E+02 -0.88015422968E+02  0.98525540428E+02  0.00000000000E+00 0.  1.
</event>
<event>
12    1  0.1594900E-001  0.3408121E+03  0.7818608E-02  0.1066472E+00
         21   -1    0    0  501  502  0.00000000000E+00  0.00000000000E+00  0.48863073376E+03  0.48863073376E+03  0.00000000000E+00 0. -1.
         21   -1    0    0  502  503 -0.00000000000E+00 -0.00000000000E+00 -0.39896746126E+03  0.39896746126E+03  0.00000000000E+00 0.  1.
         -6    2    1    2    0  503 -0.24365874891E+03  0.16461283797E+03 -0.23743356883E+03  0.41536439235E+03  0.17229598510E+03 0.  0.
        -24    2    3    3    0    0 -0.20483006556E+03  0.13946067410E+03 -0.11569639198E+03  0.28504813003E+03  0.80387473761E+02 0.  0.
          6    2    1    2  501    0  0.24365874891E+03 -0.16461283797E+03  0.32709684133E+03  0.47223380268E+03  0.17188789496E+03 0.  0.
         24    2    5    5    0    0  0.78475837651E+02 -0.72226232404E+02  0.68139860093E+02  0.15145118595E+03  0.83182542942E+02 0.  0.
          5    1    5    5  501    0  0.16518291126E+03 -0.92386605561E+02  0.25895698124E+03  0.32078261672E+03  0.47000000000E+01 0. -1.
        -13    1    6    6    0    0 -0.41909258767E+01 -0.47215925941E+02  0.35089630749E+02  0.58976179159E+02  0.00000000000E+00 0.  1.
         14    1    6    6    0    0  0.82666763527E+02 -0.25010306463E+02  0.33050229345E+02  0.92475006792E+02  0.00000000000E+00 0. -1.
         -5    1    3    3    0  503 -0.38828683354E+02  0.25152163866E+02 -0.12173717685E+03  0.13031626232E+03  0.47000000000E+01 0.  1.
         11    1    4    4    0    0 -0.54608642019E+02  0.12372340820E+02  0.15173807775E+01  0.56013222055E+02  0.00000000000E+00 0. -1.
        -12    1    4    4    0    0 -0.15022142354E+03  0.12708833328E+03 -0.11721377276E+03  0.22903490797E+03  0.00000000000E+00 0.  1.
</event>
<event>
12    1  0.1594900E-001  0.2020870E+03  0.7818608E-02  0.1148536E+00
         21   -1    0    0  503  502  0.00000000000E+00  0.00000000000E+00  0.25475266371E+03  0.25475266371E+03  0.00000000000E+00 0. -1.
         21   -1    0    0  501  503 -0.00000000000E+00 -0.00000000000E+00 -0.29005990176E+03  0.29005990176E+03  0.00000000000E+00 0. -1.
          6    2    1    2  501    0  0.83990596724E+02  0.61973777856E+02 -0.20122222007E+03  0.28334186813E+03  0.16999136127E+03 0.  0.
         24    2    3    3    0    0  0.17857897870E+02  0.24390054224E+02 -0.21940872541E+02  0.88534369018E+02  0.80269255311E+02 0.  0.
         -6    2    1    2    0  502 -0.83990596724E+02 -0.61973777856E+02  0.16591498202E+03  0.26147069734E+03  0.17304327444E+03 0.  0.
        -24    2    5    5    0    0 -0.14648339617E+02 -0.82541358338E+02  0.14607623067E+03  0.18632390737E+03  0.79691176423E+02 0.  0.
          5    1    3    3  501    0  0.66132698854E+02  0.37583723632E+02 -0.17928134752E+03  0.19480749911E+03  0.47000000000E+01 0. -1.
        -11    1    4    4    0    0 -0.20793589554E+02 -0.18512071651E+02 -0.44149872072E+01  0.28187981045E+02  0.00000000000E+00 0.  1.
         12    1    4    4    0    0  0.38651487424E+02  0.42902125875E+02 -0.17525885333E+02  0.60346387973E+02  0.00000000000E+00 0. -1.
         -5    1    5    5    0  502 -0.69342257107E+02  0.20567580482E+02  0.19838751344E+02  0.75146789968E+02  0.47000000000E+01 0.  1.
         11    1    6    6    0    0  0.26313870093E+02 -0.66195272675E+02  0.83307728838E+02  0.10961027127E+03  0.00000000000E+00 0. -1.
        -12    1    6    6    0    0 -0.40962209710E+02 -0.16346085663E+02  0.62768501836E+02  0.76713636099E+02  0.00000000000E+00 0.  1.
</event>
<event>
12    1  0.1594900E-001  0.1741627E+03  0.7818608E-02  0.1173635E+00
         21   -1    0    0  503  502  0.00000000000E+00  0.00000000000E+00  0.58181283185E+02  0.58181283185E+02  0.00000000000E+00 0.  1.
         21   -1    0    0  501  503 -0.00000000000E+00 -0.00000000000E+00 -0.58306785997E+03  0.58306785997E+03  0.00000000000E+00 0.  1.
          6    2    1    2  501    0  0.14508733999E+02  0.26600266865E+01 -0.36751651375E+03  0.40669526627E+03  0.17353694886E+03 0.  0.
         24    2    3    3    0    0 -0.35351006400E+02 -0.36244027740E+02 -0.13289655112E+03  0.16365589491E+03  0.80984167827E+02 0.  0.
         -6    2    1    2    0  502 -0.14508733999E+02 -0.26600266865E+01 -0.15737006303E+03  0.23455387688E+03  0.17329917865E+03 0.  0.
        -24    2    5    5    0    0 -0.71439610805E+02 -0.25938034337E+02 -0.95341573783E+02  0.14707465734E+03  0.82246820747E+02 0.  0.
          5    1    3    3  501    0  0.49859740399E+02  0.38904054427E+02 -0.23461996264E+03  0.24303937136E+03  0.47000000000E+01 0. -1.
        -11    1    4    4    0    0 -0.20735115604E+02 -0.23410299995E+02 -0.20157658846E+01  0.31337684616E+02  0.00000000000E+00 0.  1.
         12    1    4    4    0    0 -0.14615890796E+02 -0.12833727745E+02 -0.13088078523E+03  0.13231821029E+03  0.00000000000E+00 0. -1.
         -5    1    5    5    0  502  0.56930876805E+02  0.23278007651E+02 -0.62028489244E+02  0.87479219543E+02  0.47000000000E+01 0.  1.
         13    1    6    6    0    0 -0.36588485586E+02 -0.48155489911E+02 -0.24901644360E+02  0.65404589883E+02  0.00000000000E+00 0. -1.
        -14    1    6    6    0    0 -0.34851125219E+02  0.22217455574E+02 -0.70439929423E+02  0.81670067456E+02  0.00000000000E+00 0.  1.
</event>
<event>
12    1  0.1594900E-001  0.1753599E+03  0.7818608E-02  0.1172381E+00
         21   -1    0    0  503  502  0.00000000000E+00  0.00000000000E+00  0.14257961469E+03  0.14257961469E+03  0.00000000000E+00 0.  1.
         21   -1    0    0  501  503 -0.00000000000E+00 -0.00000000000E+00 -0.34208570700E+03  0.34208570700E+03  0.00000000000E+00 0.  1.
          6    2    1    2  501    0 -0.14167205668E+02 -0.31065843903E+02 -0.24709821800E+03  0.30299935079E+03  0.17200372342E+03 0.  0.
         24    2    3    3    0    0 -0.10267942432E+02  0.34128364805E+02 -0.21023880201E+03  0.22785817932E+03  0.80304545876E+02 0.  0.
         -6    2    1    2    0  502  0.14167205668E+02  0.31065843903E+02  0.47592125690E+02  0.18166597090E+03  0.17196429333E+03 0.  0.
        -24    2    5    5    0    0  0.48066508344E+01  0.15897992622E+02 -0.41147721738E+02  0.91031903236E+02  0.79484730237E+02 0.  0.
          5    1    3    3  501    0 -0.38992632368E+01 -0.65194208708E+02 -0.36859415991E+02  0.75141171471E+02  0.47000000000E+01 0. -1.
        -11    1    4    4    0    0 -0.44402249606E+02  0.11755613865E+02 -0.93121426463E+02  0.10383330051E+03  0.00000000000E+00 0.  1.
         12    1    4    4    0    0  0.34134307175E+02  0.22372750940E+02 -0.11711737555E+03  0.12402487882E+03  0.00000000000E+00 0. -1.
         -5    1    5    5    0  502  0.93605548341E+01  0.15167851281E+02  0.88739847428E+02  0.90634067661E+02  0.47000000000E+01 0.  1.
         13    1    6    6    0    0  0.21928429448E+02  0.41211107908E+02 -0.38219646773E+02  0.60332021618E+02  0.00000000000E+00 0. -1.
        -14    1    6    6    0    0 -0.17121778614E+02 -0.25313115286E+02 -0.29280749650E+01  0.30699881618E+02  0.00000000000E+00 0.  1.
</event>
<event>
12    1  0.1594900E-001  0.1943113E+03  0.7818608E-02  0.1154683E+00
         21   -1    0    0  503  502  0.00000000000E+00  0.00000000000E+00  0.14644102093E+03  0.14644102093E+03  0.00000000000E+00 0.  1.
         21   -1    0    0  501  503 -0.00000000000E+00 -0.00000000000E+00 -0.26950352728E+03  0.26950352728E+03  0.00000000000E+00 0.  1.
          6    2    1    2  501    0 -0.61836485448E+02  0.65107345872E+02 -0.10538142614E+03  0.22083047872E+03  0.17204109375E+03 0.  0.
         24    2    3    3    0    0 -0.97475090733E+02  0.78068803823E+02 -0.10624270480E+03  0.18260821584E+03  0.80387292067E+02 0.  0.
         -6    2    1    2    0  502  0.61836485448E+02 -0.65107345872E+02 -0.17681080210E+02  0.19511406948E+03  0.17231994108E+03 0.  0.
        -24    2    5    5    0    0 -0.26162285404E+02 -0.47030915367E+02 -0.36436547210E+02  0.10322066083E+03  0.80190464969E+02 0.  0.
          5    1    3    3  501    0  0.35638605285E+02 -0.12961457951E+02  0.86127865654E+00  0.38222262882E+02  0.47000000000E+01 0. -1.
        -11    1    4    4    0    0 -0.54850049528E+02 -0.42410683187E+01 -0.48955047484E+02  0.73641776648E+02  0.00000000000E+00 0.  1.
         12    1    4    4    0    0 -0.42625041205E+02  0.82309872142E+02 -0.57287657313E+02  0.10896643919E+03  0.00000000000E+00 0. -1.
         -5    1    5    5    0  502  0.87998770851E+02 -0.18076430505E+02  0.18755466999E+02  0.91893408651E+02  0.47000000000E+01 0.  1.
         11    1    6    6    0    0  0.17990977323E+02 -0.23296811452E+02 -0.43576831137E+02  0.52586660864E+02  0.00000000000E+00 0. -1.
        -12    1    6    6    0    0 -0.44153262727E+02 -0.23734103915E+02  0.71402839276E+01  0.50633999967E+02  0.00000000000E+00 0.  1.
</event>
<event>
12    1  0.1594900E-001  0.1792868E+03  0.7818608E-02  0.1168690E+00
         21   -1    0    0  501  502  0.00000000000E+00  0.00000000000E+00  0.16946520257E+03  0.16946520257E+03  0.00000000000E+00 0.  1.
         21   -1    0    0  502  503 -0.00000000000E+00 -0.00000000000E+00 -0.30208311960E+03  0.30208311960E+03  0.00000000000E+00 0.  1.
         -6    2    1    2    0  503  0.49129601697E+02  0.11094191791E+02 -0.21057705339E+03  0.27604544655E+03  0.17123549366E+03 0.  0.
        -24    2    3    3    0    0 -0.13115074112E+02 -0.39535379918E+02 -0.55039470121E+02  0.10096894039E+03  0.73690787875E+02 0.  0.
          6    2    1    2  501    0 -0.49129601697E+02 -0.11094191791E+02  0.77959136357E+02  0.19550287562E+03  0.17206669806E+03 0.  0.
         24    2    5    5    0    0 -0.93143656849E+02 -0.19414682787E+02  0.85991149949E+02  0.14975278422E+03  0.77322362819E+02 0.  0.
          5    1    5    5  501    0  0.44014055152E+02  0.83204909952E+01 -0.80320135919E+01  0.45750091406E+02  0.47000000000E+01 0. -1.
        -13    1    6    6    0    0 -0.82322066006E+01 -0.29257778544E+02  0.46593601834E+02  0.55630482316E+02  0.00000000000E+00 0.  1.
         14    1    6    6    0    0 -0.84911450249E+02  0.98430957578E+01  0.39397548115E+02  0.94122301900E+02  0.00000000000E+00 0. -1.
         -5    1    3    3    0  503  0.62244675809E+02  0.50629571710E+02 -0.15553758327E+03  0.17507650616E+03  0.47000000000E+01 0.  1.
         11    1    4    4    0    0  0.73987864399E+01 -0.53392290655E+02 -0.53838458815E+02  0.76184371034E+02  0.00000000000E+00 0. -1.
        -12    1    4    4    0    0 -0.20513860552E+02  0.13856910737E+02 -0.12010113053E+01  0.24784569354E+02  0.00000000000E+00 0.  1.
</event>
<event>
12    1  0.1594900E-001  0.1948863E+03  0.7818608E-02  0.1154400E+00
         21   -1    0    0  501  502  0.00000000000E+00  0.00000000000E+00  0.37438147065E+03  0.37438147065E+03  0.00000000000E+00 0. -1.
         21   -1    0    0  502  503 -0.00000000000E+00 -0.00000000000E+00 -0.10655557905E+04  0.10655557905E+04  0.00000000000E+00 0. -1.
         -6    2    1    2    0  503 -0.80333991784E+02  0.36577279894E+02 -0.10305507062E+04  0.10485844774E+04  0.17234616488E+03 0.  0.
        -24    2    3    3    0    0 -0.57193344327E+02  0.85116479192E+02 -0.55745855555E+03  0.57242293292E+03  0.79950480366E+02 0.  0.
          6    2    1    2  501    0  0.80333991784E+02 -0.36577279894E+02  0.33937638633E+03  0.39135278376E+03  0.17375045933E+03 0.  0.
         24    2    5    5    0    0  0.84249323185E+02 -0.39037771914E+02  0.35420056091E+03  0.37512841959E+03  0.81494771230E+02 0.  0.
          5    1    5    5  501    0 -0.39153314011E+01  0.24604920202E+01 -0.14824174579E+02  0.16224364176E+02  0.47000000000E+01 0. -1.
        -13    1    6    6    0    0  0.56849938097E+02 -0.53476949596E+02  0.15507442970E+03  0.17360811716E+03  0.00000000000E+00 0.  1.
         14    1    6    6    0    0  0.27399385088E+02  0.14439177681E+02  0.19912613121E+03  0.20152030242E+03  0.00000000000E+00 0. -1.
         -5    1    3    3    0  503 -0.23140647457E+02 -0.48539199298E+02 -0.47309215068E+03  0.47616154450E+03  0.47000000000E+01 0.  1.
         13    1    4    4    0    0  0.24333459574E+01  0.42541480042E+02 -0.93976140025E+02  0.10318533612E+03  0.00000000000E+00 0. -1.
        -14    1    4    4    0    0 -0.59626690284E+02  0.42574999150E+02 -0.46348241552E+03  0.46923759680E+03  0.00000000000E+00 0.  1.
</event>
<event>
12    1  0.1594900E-001  0.2064708E+03  0.7818608E-02  0.1144562E+00
         21   -1    0    0  501  502  0.00000000000E+00  0.00000000000E+00  0.41638134273E+03  0.41638134273E+03  0.00000000000E+00 0. -1.
         21   -1    0    0  502  503 -0.00000000000E+00 -0.00000000000E+00 -0.11626251088E+03  0.11626251088E+03  0.00000000000E+00 0. -1.
         -6    2    1    2    0  503 -0.10793914907E+03 -0.31391947762E+02  0.56399753979E+02  0.21322377620E+03  0.17218342604E+03 0.  0.
        -24    2    3    3    0    0 -0.13781400150E+03 -0.51009621720E+02  0.63137777969E+02  0.17655156729E+03  0.74762265801E+02 0.  0.
          6    2    1    2  501    0  0.10793914907E+03  0.31391947762E+02  0.24371907787E+03  0.31942007740E+03  0.17318742056E+03 0.  0.
         24    2    5    5    0    0  0.26568618239E+01 -0.13067499841E+02  0.15390052492E+03  0.17398808318E+03  0.80054125755E+02 0.  0.
          5    1    5    5  501    0  0.10528228724E+03  0.44459447603E+02  0.89818552952E+02  0.14543199422E+03  0.47000000000E+01 0. -1.
        -13    1    6    6    0    0 -0.22115495942E+02 -0.13917715662E+02  0.10016161906E+02  0.27984307555E+02  0.00000000000E+00 0.  1.
         14    1    6    6    0    0  0.24772357766E+02  0.85021582146E+00  0.14388436301E+03  0.14600377562E+03  0.00000000000E+00 0. -1.
         -5    1    3    3    0  503  0.29874852433E+02  0.19617673958E+02 -0.67380239901E+01  0.36672208915E+02  0.47000000000E+01 0.  1.
         11    1    4    4    0    0 -0.10000842610E+03 -0.59272210482E+02  0.72143589505E+02  0.13681950787E+03  0.00000000000E+00 0. -1.
        -12    1    4    4    0    0 -0.37805575401E+02  0.82625887619E+01 -0.90058115363E+01  0.39732059421E+02  0.00000000000E+00 0.  1.
</event>
<event>
12    1  0.1594900E-001  0.4231636E+03  0.7818608E-02  0.1036174E+00
         21   -1    0    0  503  502  0.00000000000E+00  0.00000000000E+00  0.88204141772E+03  0.88204141772E+03  0.00000000000E+00 0.  1.
         21   -1    0    0  501  503 -0.00000000000E+00 -0.00000000000E+00 -0.20952064897E+03  0.20952064897E+03  0.00000000000E+00 0. -1.
          6    2    1    2  501    0 -0.96104596387E+02  0.37444058747E+03  0.23507271509E+03  0.48407294529E+03  0.17212085285E+03 0.  0.
         24    2    3    3    0    0  0.10262695278E+02  0.20476048614E+03  0.96151458815E+02  0.24029734567E+03  0.80408530047E+02 0.  0.
         -6    2    1    2    0  502  0.96104596387E+02 -0.37444058747E+03  0.43744805366E+03  0.60748912141E+03  0.16804876074E+03 0.  0.
        -24    2    5    5    0    0  0.85153175259E+02 -0.26464005313E+03  0.39331213578E+03  0.48855148979E+03  0.81870025347E+02 0.  0.
          5    1    3    3  501    0 -0.10636729167E+03  0.16968010133E+03  0.13892125628E+03  0.24377559962E+03  0.47000000000E+01 0. -1.
        -11    1    4    4    0    0 -0.17026713970E+02  0.16378306745E+03  0.96895514490E+02  0.19105900371E+03  0.00000000000E+00 0.  1.
         12    1    4    4    0    0  0.27289409248E+02  0.40977418693E+02 -0.74405567480E+00  0.49238341957E+02  0.00000000000E+00 0. -1.
         -5    1    5    5    0  502  0.10951421128E+02 -0.10980053434E+03  0.44135917877E+02  0.11893763161E+03  0.47000000000E+01 0.  1.
         11    1    6    6    0    0  0.96366263839E+02 -0.20071073201E+03  0.32838005409E+03  0.39674263027E+03  0.00000000000E+00 0. -1.
        -12    1    6    6    0    0 -0.11213088580E+02 -0.63929321115E+02  0.64932081689E+02  0.91808859520E+02  0.00000000000E+00 0.  1.
</event>
<event>
12    1  0.1594900E-001  0.1739427E+03  0.7818608E-02  0.1173936E+00
         21   -1    0    0  503  502  0.00000000000E+00  0.00000000000E+00  0.43360562947E+03  0.43360562947E+03  0.00000000000E+00 0. -1.
         21   -1    0    0  501  503 -0.00000000000E+00 -0.00000000000E+00 -0.97870704042E+02  0.97870704042E+02  0.00000000000E+00 0. -1.
          6    2    1    2  501    0  0.52338491801E+01  0.27243713654E+02  0.31060652381E+03  0.35572791435E+03  0.17116168760E+03 0.  0.
         24    2    3    3    0    0 -0.48288768141E+02 -0.25584085227E+02  0.19120253108E+03  0.21453708469E+03  0.80507156644E+02 0.  0.
         -6    2    1    2    0  502 -0.52338491801E+01 -0.27243713654E+02  0.25128401619E+02  0.17574841917E+03  0.17171621112E+03 0.  0.
        -24    2    5    5    0    0  0.39999989904E+02 -0.14156471151E+02 -0.36894007562E+02  0.97734027191E+02  0.79939773637E+02 0.  0.
          5    1    3    3  501    0  0.53522617321E+02  0.52827798881E+02  0.11940399273E+03  0.14119082966E+03  0.47000000000E+01 0. -1.
        -13    1    4    4    0    0 -0.60264253956E+02 -0.23664818433E+02  0.81124886298E+02  0.10379330958E+03  0.00000000000E+00 0.  1.
         14    1    4    4    0    0  0.11975485815E+02 -0.19192667937E+01  0.11007764478E+03  0.11074377511E+03  0.00000000000E+00 0. -1.
         -5    1    5    5    0  502 -0.45233839084E+02 -0.13087242502E+02  0.62022409181E+02  0.78014391975E+02  0.47000000000E+01 0.  1.
         13    1    6    6    0    0  0.55546610960E+02 -0.17014352509E+00 -0.48566783887E+02  0.73784737142E+02  0.00000000000E+00 0. -1.
        -14    1    6    6    0    0 -0.15546621056E+02 -0.13986327626E+02  0.11672776325E+02  0.23949290049E+02  0.00000000000E+00 0.  1.
</event>
<event>
12    1  0.1594900E-001  0.2042590E+03  0.7818608E-02  0.1146265E+00
         21   -1    0    0  501  502  0.00000000000E+00  0.00000000000E+00  0.62754677392E+02  0.62754677392E+02  0.00000000000E+00 0. -1.
         21   -1    0    0  502  503 -0.00000000000E+00 -0.00000000000E+00 -0.10956338327E+04  0.10956338327E+04  0.00000000000E+00 0.  1.
         -6    2    1    2    0  503  0.96837634998E+02 -0.50088917804E+02 -0.87982942778E+03  0.90315140985E+03  0.17232591183E+03 0.  0.
        -24    2    3    3    0    0  0.90613341137E+02  0.74627312083E+01 -0.76172355865E+03  0.77153826286E+03  0.82353149936E+02 0.  0.
          6    2    1    2  501    0 -0.96837634998E+02  0.50088917804E+02 -0.15304972756E+03  0.25523710027E+03  0.17272906823E+03 0.  0.
         24    2    5    5    0    0 -0.12421475095E+03  0.70803173938E+02 -0.14732706232E+03  0.22011693823E+03  0.79396532722E+02 0.  0.
          5    1    5    5  501    0  0.27377115949E+02 -0.20714256134E+02 -0.57226652369E+01  0.35120162048E+02  0.47000000000E+01 0. -1.
        -13    1    6    6    0    0 -0.10451408966E+03  0.25886126157E+02 -0.12833539542E+03  0.16752092461E+03  0.00000000000E+00 0.  1.
         14    1    6    6    0    0 -0.19700661291E+02  0.44917047781E+02 -0.18991666904E+02  0.52596013617E+02  0.00000000000E+00 0. -1.
         -5    1    3    3    0  503  0.62242938616E+01 -0.57551649012E+02 -0.11810586913E+03  0.13161314699E+03  0.47000000000E+01 0.  1.
         11    1    4    4    0    0 -0.11231791928E+02  0.10064159874E+02 -0.20615427811E+03  0.20670516890E+03  0.00000000000E+00 0. -1.
        -12    1    4    4    0    0  0.10184513306E+03 -0.26014286652E+01 -0.55556928054E+03  0.56483309396E+03  0.00000000000E+00 0.  1.
</event>
<event>
12    1  0.1594900E-001  0.2297699E+03  0.7818608E-02  0.1126850E+00
         21   -1    0    0  501  502  0.00000000000E+00  0.00000000000E+00  0.32944007060E+02  0.32944007060E+02  0.00000000000E+00 0.  1.
         21   -1    0    0  502  503 -0.00000000000E+00 -0.00000000000E+00 -0.24585716195E+04  0.24585716195E+04  0.00000000000E+00 0.  1.
         -6    2    1    2    0  503 -0.12165689739E+03 -0.90917543634E+02 -0.19482455358E+04  0.19617158019E+04  0.17205179223E+03 0.  0.
        -24    2    3    3    0    0 -0.10778727292E+03 -0.31874902380E+02 -0.83774804747E+03  0.84955342096E+03  0.85352905189E+02 0.  0.
          6    2    1    2  501    0  0.12165689739E+03  0.90917543634E+02 -0.47738207659E+03  0.52979982462E+03  0.17241753592E+03 0.  0.
         24    2    5    5    0    0  0.47893893092E+02 -0.12438730040E+02 -0.28052504617E+03  0.29549600362E+03  0.78581420337E+02 0.  0.
          5    1    5    5  501    0  0.73763004302E+02  0.10335627367E+03 -0.19685703042E+03  0.23430382100E+03  0.47000000000E+01 0. -1.
        -13    1    6    6    0    0  0.66498518115E+02  0.34116943625E+01 -0.17660876950E+03  0.18874413907E+03  0.00000000000E+00 0.  1.
         14    1    6    6    0    0 -0.18604625023E+02 -0.15850424402E+02 -0.10391627667E+03  0.10675186455E+03  0.00000000000E+00 0. -1.
         -5    1    3    3    0  503 -0.13869624472E+02 -0.59042641254E+02 -0.11104974883E+04  0.11121623809E+04  0.47000000000E+01 0.  1.
         13    1    4    4    0    0  0.67338197869E+01 -0.25567053948E+02 -0.15863790587E+03  0.16082600459E+03  0.00000000000E+00 0. -1.
        -14    1    4    4    0    0 -0.11452109271E+03 -0.63078484326E+01 -0.67911014160E+03  0.68872741636E+03  0.00000000000E+00 0.  1.
</event>
<event>
12    1  0.1594900E-001  0.1936189E+03  0.7818608E-02  0.1157071E+00
         21   -1    0    0  501  502  0.00000000000E+00  0.00000000000E+00  0.74726821935E+02  0.74726821935E+02  0.00000000000E+00 0. -1.
         21   -1    0    0  502  503 -0.00000000000E+00 -0.00000000000E+00 -0.60319147397E+03  0.60319147397E+03  0.00000000000E+00 0.  1.
         -6    2    1    2    0  503 -0.20664810250E+02  0.70489768264E+02 -0.42141819038E+03  0.46376889485E+03  0.17914367094E+03 0.  0.
        -24    2    3    3    0    0 -0.45005916049E+02  0.12784565780E+02 -0.37186409247E+03  0.38376840458E+03  0.82500348353E+02 0.  0.
          6    2    1    2  501    0  0.20664810250E+02 -0.70489768264E+02 -0.10704646166E+03  0.21414940105E+03  0.17030906965E+03 0.  0.
         24    2    5    5    0    0  0.41798346556E+02 -0.89277168129E+02 -0.12679701283E+03  0.17933895690E+03  0.79796393889E+02 0.  0.
          5    1    5    5  501    0 -0.21133536306E+02  0.18787399865E+02  0.19750551169E+02  0.34810444151E+02  0.47000000000E+01 0. -1.
        -13    1    6    6    0    0 -0.21554769283E+02 -0.43795272272E+02 -0.47058331442E+02  0.67802068628E+02  0.00000000000E+00 0.  1.
         14    1    6    6    0    0  0.63353115839E+02 -0.45481895857E+02 -0.79738681385E+02  0.11153688828E+03  0.00000000000E+00 0. -1.
         -5    1    3    3    0  503  0.24341105799E+02  0.57705202484E+02 -0.49554097905E+02  0.80000490276E+02  0.47000000000E+01 0.  1.
         11    1    4    4    0    0  0.34474861871E+01 -0.26981278826E+02 -0.63214695214E+02  0.68818400585E+02  0.00000000000E+00 0. -1.
        -12    1    4    4    0    0 -0.48453402236E+02  0.39765844606E+02 -0.30864939726E+03  0.31495000399E+03  0.00000000000E+00 0.  1.
</event>
<event>
12    1  0.1594900E-001  0.3842198E+03  0.7818608E-02  0.1049616E+00
         21   -1    0    0  501  502  0.00000000000E+00  0.00000000000E+00  0.11043311123E+03  0.11043311123E+03  0.00000000000E+00 0.  1.
         21   -1    0    0  502  503 -0.00000000000E+00 -0.00000000000E+00 -0.14693887060E+04  0.14693887060E+04  0.00000000000E+00 0.  1.
         -6    2    1    2    0  503 -0.20659741266E+03  0.27384527813E+03 -0.92248504458E+03  0.99833117316E+03  0.16737008861E+03 0.  0.
        -24    2    3    3    0    0 -0.30405913339E+02  0.12133911236E+03 -0.37342192086E+03  0.40184648865E+03  0.79931030931E+02 0.  0.
          6    2    1    2  501    0  0.20659741266E+03 -0.27384527813E+03 -0.43647055019E+03  0.58149064407E+03  0.17306386302E+03 0.  0.
         24    2    5    5    0    0  0.69498707654E+02 -0.66849643878E+02 -0.20553921653E+03  0.24238207977E+03  0.84874953961E+02 0.  0.
          5    1    5    5  501    0  0.13709870501E+03 -0.20699563425E+03 -0.23093133367E+03  0.33910856430E+03  0.47000000000E+01 0. -1.
        -11    1    6    6    0    0  0.79265510382E+02 -0.25140089171E+02 -0.11195667400E+03  0.13946089801E+03  0.00000000000E+00 0.  1.
         12    1    6    6    0    0 -0.97668027283E+01 -0.41709554707E+02 -0.93582542523E+02  0.10292118176E+03  0.00000000000E+00 0. -1.
         -5    1    3    3    0  503 -0.17619149932E+03  0.15250616577E+03 -0.54906312372E+03  0.59648468451E+03  0.47000000000E+01 0.  1.
         11    1    4    4    0    0 -0.39729648846E+02  0.11187742187E+03 -0.23994225067E+03  0.26770746381E+03  0.00000000000E+00 0. -1.
        -12    1    4    4    0    0  0.93237355074E+01  0.94616904855E+01 -0.13347967019E+03  0.13413902484E+03  0.00000000000E+00 0.  1.
</event>
<event>
12    1  0.1594900E-001  0.1854502E+03  0.7818608E-02  0.1162734E+00
         21   -1    0    0  503  502  0.00000000000E+00  0.00000000000E+00  0.58576139013E+03  0.58576139013E+03  0.00000000000E+00 0.  1.
         21   -1    0    0  501  503 -0.00000000000E+00 -0.00000000000E+00 -0.86706727986E+02  0.86706727986E+02  0.00000000000E+00 0.  1.
          6    2    1    2  501    0  0.54267092054E+02  0.39958532923E+02  0.57792279629E+02  0.19381972747E+03  0.17229201240E+03 0.  0.
         24    2    3    3    0    0  0.78681592607E+02 -0.26313920313E+02  0.39768531593E+02  0.12077829136E+03  0.78247326737E+02 0.  0.
         -6    2    1    2    0  502 -0.54267092054E+02 -0.39958532923E+02  0.44126238251E+03  0.47864839065E+03  0.17277207533E+03 0.  0.
        -24    2    5    5    0    0 -0.21413971166E+01  0.35015780243E+02  0.28409303024E+03  0.29681733994E+03  0.78491993287E+02 0.  0.
          5    1    3    3  501    0 -0.24414500553E+02  0.66272453236E+02  0.18023748035E+02  0.73041436106E+02  0.47000000000E+01 0. -1.
        -11    1    4    4    0    0  0.49625387383E+02 -0.18838116399E+02 -0.17696238025E+02  0.55952752771E+02  0.00000000000E+00 0.  1.
         12    1    4    4    0    0  0.29056205224E+02 -0.74758039132E+01  0.57464769618E+02  0.64825538589E+02  0.00000000000E+00 0. -1.
         -5    1    5    5    0  502 -0.52125694938E+02 -0.74974313166E+02  0.15716935228E+03  0.18183105071E+03  0.47000000000E+01 0.  1.
         11    1    6    6    0    0  0.21548359543E+02  0.37858521655E+02  0.77933784810E+02  0.89281993009E+02  0.00000000000E+00 0. -1.
        -12    1    6    6    0    0 -0.23689756659E+02 -0.28427414118E+01  0.20615924543E+03  0.20753534693E+03  0.00000000000E+00 0.  1.
</event>
<event>
12    1  0.1594900E-001  0.1807310E+03  0.7818608E-02  0.1167484E+00
         21   -1    0    0  501  502  0.00000000000E+00  0.00000000000E+00  0.26622457799E+03  0.26622457799E+03  0.00000000000E+00 0. -1.
         21   -1    0    0  502  503 -0.00000000000E+00 -0.00000000000E+00 -0.12965392404E+03  0.12965392404E+03  0.00000000000E+00 0. -1.
         -6    2    1    2    0  503  0.48868694246E+02  0.14118853621E+02  0.19267556809E+02  0.18175517668E+03  0.17342495265E+03 0.  0.
        -24    2    3    3    0    0  0.29741362266E+02 -0.36284724591E+02 -0.41232471450E+02  0.10058425243E+03  0.78841266265E+02 0.  0.
          6    2    1    2  501    0 -0.48868694246E+02 -0.14118853621E+02  0.11730309714E+03  0.21412332535E+03  0.17175939728E+03 0.  0.
         24    2    5    5    0    0  0.12716653256E+02 -0.57352405293E+02  0.88944396060E+02  0.13357395574E+03  0.80497729155E+02 0.  0.
          5    1    5    5  501    0 -0.61585347502E+02  0.43233551672E+02  0.28358701076E+02  0.80549369605E+02  0.47000000000E+01 0. -1.
        -13    1    6    6    0    0 -0.32252631367E+02 -0.30194304105E+02  0.24809557104E+02  0.50669935408E+02  0.00000000000E+00 0.  1.
         14    1    6    6    0    0  0.44969284624E+02 -0.27158101188E+02  0.64134838956E+02  0.82904020334E+02  0.00000000000E+00 0. -1.
         -5    1    3    3    0  503  0.19127331980E+02  0.50403578212E+02  0.60500028259E+02  0.81170924256E+02  0.47000000000E+01 0.  1.
         13    1    4    4    0    0 -0.23078567984E+02 -0.30928144027E+02 -0.19214530996E+02  0.43108799503E+02  0.00000000000E+00 0. -1.
        -14    1    4    4    0    0  0.52819930251E+02 -0.53565805638E+01 -0.22017940453E+02  0.57475452924E+02  0.00000000000E+00 0.  1.
</event>
<event>
12    1  0.1594900E-001  0.2031872E+03  0.7818608E-02  0.1147134E+00
         21   -1    0    0  503  502  0.00000000000E+00  0.00000000000E+00  0.18276601357E+03  0.18276601357E+03  0.00000000000E+00 0.  1.
         21   -1    0    0  501  503 -0.00000000000E+00 -0.00000000000E+00 -0.39780065680E+03  0.39780065680E+03  0.00000000000E+00 0.  1.
          6    2    1    2  501    0  0.88677577037E+01 -0.10703108977E+03 -0.29855417525E+03  0.36113657307E+03  0.17248402114E+03 0.  0.
         24    2    3    3    0    0  0.26317864405E+02 -0.72199274004E+02 -0.30063011398E+03  0.32184075733E+03  0.85426240081E+02 0.  0.
         -6    2    1    2    0  502 -0.88677577037E+01  0.10703108977E+03  0.83519532022E+02  0.21943009731E+03  0.17216202854E+03 0.  0.
        -24    2    5    5    0    0 -0.59076323317E+02  0.91730211051E+02  0.94911827738E+02  0.16551450260E+03  0.80513054419E+02 0.  0.
          5    1    3    3  501    0 -0.17450106701E+02 -0.34831815762E+02  0.20759387281E+01  0.39295815741E+02  0.47000000000E+01 0. -1.
        -13    1    4    4    0    0  0.28356179148E+02 -0.76014884398E+01 -0.20067567787E+03  0.20281169397E+03  0.00000000000E+00 0.  1.
         14    1    4    4    0    0 -0.20383147430E+01 -0.64597785564E+02 -0.99954436114E+02  0.11902906337E+03  0.00000000000E+00 0. -1.
         -5    1    5    5    0  502  0.50208565613E+02  0.15300878715E+02 -0.11392295716E+02  0.53915594702E+02  0.47000000000E+01 0.  1.
         11    1    6    6    0    0 -0.48074560470E+02  0.54180829283E+01  0.38354425281E+02  0.61738002281E+02  0.00000000000E+00 0. -1.
        -12    1    6    6    0    0 -0.11001762847E+02  0.86312128122E+02  0.56557402458E+02  0.10377650032E+03  0.00000000000E+00 0.  1.
</event>
<event>
12    1  0.1594900E-001  0.1969929E+03  0.7818608E-02  0.1152460E+00
         21   -1    0    0  501  502  0.00000000000E+00  0.00000000000E+00  0.25094801469E+03  0.25094801469E+03  0.00000000000E+00 0.  1.
         21   -1    0    0  502  503 -0.00000000000E+00 -0.00000000000E+00 -0.30002609683E+03  0.30002609683E+03  0.00000000000E+00 0.  1.
         -6    2    1    2    0  503 -0.92689646047E+02  0.24099969227E+02 -0.21671462581E+03  0.29286759061E+03  0.17214533856E+03 0.  0.
        -24    2    3    3    0    0  0.11784095074E+02  0.40009219330E+02 -0.82639433442E+02  0.12208669580E+03  0.79600771379E+02 0.  0.
          6    2    1    2  501    0  0.92689646047E+02 -0.24099969227E+02  0.16763654366E+03  0.25810652091E+03  0.17130320011E+03 0.  0.
         24    2    5    5    0    0  0.15057358288E+02  0.41861336000E+02  0.10145351908E+03  0.13653370885E+03  0.79809408148E+02 0.  0.
          5    1    5    5  501    0  0.77632287759E+02 -0.65961305226E+02  0.66183024584E+02  0.12157281206E+03  0.47000000000E+01 0. -1.
        -13    1    6    6    0    0  0.43542755418E+02  0.41760488144E+01  0.42509244808E+02  0.60995465628E+02  0.00000000000E+00 0.  1.
         14    1    6    6    0    0 -0.28485397130E+02  0.37685287185E+02  0.58944274271E+02  0.75538243223E+02  0.00000000000E+00 0. -1.
         -5    1    3    3    0  503 -0.10447374112E+03 -0.15909250103E+02 -0.13407519236E+03  0.17078089480E+03  0.47000000000E+01 0.  1.
         13    1    4    4    0    0  0.31369326073E+02  0.68211799193E+01 -0.76632973713E+02  0.83085352342E+02  0.00000000000E+00 0. -1.
        -14    1    4    4    0    0 -0.19585230999E+02  0.33188039410E+02 -0.60064597290E+01  0.39001343460E+02  0.00000000000E+00 0.  1.
</event>
<event>
12    1  0.1594900E-001  0.2516348E+03  0.7818608E-02  0.1113129E+00
         21   -1    0    0  501  502  0.00000000000E+00  0.00000000000E+00  0.14900711352E+03  0.14900711352E+03  0.00000000000E+00 0. -1.
         21   -1    0    0  502  503 -0.00000000000E+00 -0.00000000000E+00 -0.94708997687E+03  0.94708997687E+03  0.00000000000E+00 0.  1.
         -6    2    1    2    0  503  0.17813091735E+03  0.28434506700E+02 -0.81136003033E+03  0.84948524538E+03  0.17544497258E+03 0.  0.
        -24    2    3    3    0    0  0.78227077011E+02 -0.35224868630E+02 -0.26289696468E+03  0.28835503075E+03  0.81691754622E+02 0.  0.
          6    2    1    2  501    0 -0.17813091735E+03 -0.28434506700E+02  0.13277166986E+02  0.24661184501E+03  0.16763643413E+03 0.  0.
         24    2    5    5    0    0 -0.14642216282E+03 -0.22277825467E+02 -0.48121077845E+02  0.17707635547E+03  0.84289063703E+02 0.  0.
          5    1    5    5  501    0 -0.31708754532E+02 -0.61566812328E+01  0.61398244831E+02  0.69535489544E+02  0.47000000000E+01 0. -1.
        -13    1    6    6    0    0 -0.44417898597E+02 -0.47242675116E+02 -0.25333587814E+02  0.69617603661E+02  0.00000000000E+00 0.  1.
         14    1    6    6    0    0 -0.10200426423E+03  0.24964849649E+02 -0.22787490031E+02  0.10745875181E+03  0.00000000000E+00 0. -1.
         -5    1    3    3    0  503  0.99903840344E+02  0.63659375330E+02 -0.54846306566E+03  0.56113021463E+03  0.47000000000E+01 0.  1.
         13    1    4    4    0    0  0.66463437461E+02 -0.12435215560E+02 -0.84976910176E+02  0.10859603293E+03  0.00000000000E+00 0. -1.
        -14    1    4    4    0    0  0.11763639550E+02 -0.22789653070E+02 -0.17792005450E+03  0.17975899782E+03  0.00000000000E+00 0.  1.
</event>
<event>
12    1  0.1594900E-001  0.1994984E+03  0.7818608E-02  0.1152338E+00
         21   -1    0    0  503  502  0.00000000000E+00  0.00000000000E+00  0.10579193947E+03  0.10579193947E+03  0.00000000000E+00 0. -1.
         21   -1    0    0  501  503 -0.00000000000E+00 -0.00000000000E+00 -0.53010744596E+03  0.53010744596E+03  0.00000000000E+00 0. -1.
          6    2    1    2  501    0 -0.59264228893E+02  0.32815542772E+02 -0.39717835383E+03  0.44446624739E+03  0.18764458863E+03 0.  0.
         24    2    3    3    0    0 -0.10061992392E+03 -0.19971508159E+02 -0.22783069553E+03  0.26226447564E+03  0.79703193978E+02 0.  0.
         -6    2    1    2    0  502  0.59264228893E+02 -0.32815542772E+02 -0.27137152664E+02  0.19143313805E+03  0.17697771785E+03 0.  0.
        -24    2    5    5    0    0  0.78983061812E+02  0.26955781337E+02 -0.48239066742E+02  0.12488372532E+03  0.79397727223E+02 0.  0.
          5    1    3    3  501    0  0.41355695023E+02  0.52787050930E+02 -0.16934765830E+03  0.18220177175E+03  0.47000000000E+01 0. -1.
        -11    1    4    4    0    0 -0.44149358329E+02 -0.24486395933E+02 -0.35377848057E+02  0.61646910383E+02  0.00000000000E+00 0.  1.
         12    1    4    4    0    0 -0.56470565586E+02  0.45148877744E+01 -0.19245284747E+03  0.20061756526E+03  0.00000000000E+00 0. -1.
         -5    1    5    5    0  502 -0.19718832919E+02 -0.59771324109E+02  0.21101914078E+02  0.66549412734E+02  0.47000000000E+01 0.  1.
         13    1    6    6    0    0  0.25854236560E+02 -0.28440091391E+02 -0.15992658170E+02  0.41629862621E+02  0.00000000000E+00 0. -1.
        -14    1    6    6    0    0  0.53128825251E+02  0.55395872729E+02 -0.32246408573E+02  0.83253862696E+02  0.00000000000E+00 0.  1.
</event>
<event>
12    1  0.1594900E-001  0.1823339E+03  0.7818608E-02  0.1166889E+00
         21   -1    0    0  501  502  0.00000000000E+00  0.00000000000E+00  0.37477203355E+03  0.37477203355E+03  0.00000000000E+00 0.  1.
         21   -1    0    0  502  503 -0.00000000000E+00 -0.00000000000E+00 -0.28589239935E+03  0.28589239935E+03  0.00000000000E+00 0.  1.
         -6    2    1    2    0  503 -0.50074097498E+02  0.32387186946E+02 -0.23192781895E+03  0.29166160897E+03  0.16649214944E+03 0.  0.
        -24    2    3    3    0    0 -0.53823095890E+02 -0.39375651311E+02 -0.15431605502E+03  0.18578604123E+03  0.79092608451E+02 0.  0.
          6    2    1    2  501    0  0.50074097498E+02 -0.32387186946E+02  0.32080745315E+03  0.36900282393E+03  0.17230588194E+03 0.  0.
         24    2    5    5    0    0  0.15885860083E+02 -0.10475371968E+02  0.51177783394E+02  0.96291966009E+02  0.79315088327E+02 0.  0.
          5    1    5    5  501    0  0.34188237414E+02 -0.21911814978E+02  0.26962966976E+03  0.27271085792E+03  0.47000000000E+01 0. -1.
        -13    1    6    6    0    0  0.15734718140E+02  0.97777549048E+01  0.67678135905E+02  0.70167769849E+02  0.00000000000E+00 0.  1.
         14    1    6    6    0    0  0.15114194318E+00 -0.20253126873E+02 -0.16500352512E+02  0.26124196160E+02  0.00000000000E+00 0. -1.
         -5    1    3    3    0  503  0.37489983927E+01  0.71762838257E+02 -0.77611763934E+02  0.10587556774E+03  0.47000000000E+01 0.  1.
         13    1    4    4    0    0 -0.56910384656E+02  0.63715284886E+01 -0.93102243878E+02  0.10930423629E+03  0.00000000000E+00 0. -1.
        -14    1    4    4    0    0  0.30872887654E+01 -0.45747179799E+02 -0.61213811138E+02  0.76481804931E+02  0.00000000000E+00 0.  1.
</event>
<event>
12    1  0.1594900E-001  0.1804362E+03  0.7818608E-02  0.1167903E+00
         21   -1    0    0  501  502  0.00000000000E+00  0.00000000000E+00  0.28968257758E+03  0.28968257758E+03  0.00000000000E+00 0.  1.
         21   -1    0    0  502  503 -0.00000000000E+00 -0.00000000000E+00 -0.11305347734E+03  0.11305347734E+03  0.00000000000E+00 0.  1.
         -6    2    1    2    0  503 -0.50356112032E+02 -0.13512642806E+02  0.62062587400E+02  0.19081137453E+03  0.17273935961E+03 0.  0.
        -24    2    3    3    0    0  0.11575534661E+02 -0.53526710209E+02  0.62156791854E+02  0.11692799800E+03  0.82520229243E+02 0.  0.
          6    2    1    2  501    0  0.50356112032E+02  0.13512642806E+02  0.11456651285E+03  0.21192468040E+03  0.17049414876E+03 0.  0.
         24    2    5    5    0    0  0.48948505423E+02  0.63398539651E+02  0.39058825874E+02  0.12129309180E+03  0.82286640628E+02 0.  0.
          5    1    5    5  501    0  0.14076066093E+01 -0.49885896844E+02  0.75507686972E+02  0.90631588600E+02  0.47000000000E+01 0. -1.
        -13    1    6    6    0    0  0.48944832414E+02 -0.12213935623E+01  0.25743356518E+02  0.55315538749E+02  0.00000000000E+00 0.  1.
         14    1    6    6    0    0  0.36730087573E-02  0.64619933213E+02  0.13315469356E+02  0.65977553047E+02  0.00000000000E+00 0. -1.
         -5    1    3    3    0  503 -0.61931646693E+02  0.40014067403E+02 -0.94204454371E-01  0.73883376525E+02  0.47000000000E+01 0.  1.
         13    1    4    4    0    0 -0.11249989273E+02 -0.64238022035E+02  0.64350189534E+02  0.91618953425E+02  0.00000000000E+00 0. -1.
        -14    1    4    4    0    0  0.22825523935E+02  0.10711311826E+02 -0.21933976798E+01  0.25309044575E+02  0.00000000000E+00 0.  1.
</event>
<event>
12    1  0.1594900E-001  0.1783716E+03  0.7818608E-02  0.1169708E+00
         21   -1    0    0  501  502  0.00000000000E+00  0.00000000000E+00  0.27408275835E+03  0.27408275835E+03  0.00000000000E+00 0.  1.
         21   -1    0    0  502  503 -0.00000000000E+00 -0.00000000000E+00 -0.13319650990E+03  0.13319650990E+03  0.00000000000E+00 0.  1.
         -6    2    1    2    0  503  0.40795359481E+02  0.24778434481E+02 -0.45523312305E+01  0.17712971101E+03  0.17051679869E+03 0.  0.
        -24    2    3    3    0    0 -0.16043875873E+02 -0.32303317232E+02 -0.20601965153E+02  0.94857566254E+02  0.85279579328E+02 0.  0.
          6    2    1    2  501    0 -0.40795359481E+02 -0.24778434481E+02  0.14543857967E+03  0.23014955724E+03  0.17186682655E+03 0.  0.
         24    2    5    5    0    0  0.16401365189E+02 -0.33609641629E+01  0.12587611749E+02  0.83856553214E+02  0.81198353969E+02 0.  0.
          5    1    5    5  501    0 -0.57196724670E+02 -0.21417470318E+02  0.13285096792E+03  0.14629300402E+03  0.47000000000E+01 0. -1.
        -13    1    6    6    0    0  0.18688399162E+00  0.36870786956E+02  0.16316658903E+02  0.40320258111E+02  0.00000000000E+00 0.  1.
         14    1    6    6    0    0  0.16214481198E+02 -0.40231751119E+02 -0.37290471539E+01  0.43536295103E+02  0.00000000000E+00 0. -1.
         -5    1    3    3    0  503  0.56839235354E+02  0.57081751713E+02  0.16049633923E+02  0.82272144760E+02  0.47000000000E+01 0.  1.
         11    1    4    4    0    0 -0.11270796593E+02 -0.33507560271E+02  0.28561488445E+02  0.45448279103E+02  0.00000000000E+00 0. -1.
        -12    1    4    4    0    0 -0.47730792796E+01  0.12042430385E+01 -0.49163453599E+02  0.49409287152E+02  0.00000000000E+00 0.  1.
</event>
<event>
12    1  0.1594900E-001  0.1882975E+03  0.7818608E-02  0.1160009E+00
         21   -1    0    0  501  502  0.00000000000E+00  0.00000000000E+00  0.76594313533E+02  0.76594313533E+02  0.00000000000E+00 0.  1.
         21   -1    0    0  502  503 -0.00000000000E+00 -0.00000000000E+00 -0.65580101477E+03  0.65580101477E+03  0.00000000000E+00 0.  1.
         -6    2    1    2    0  503 -0.76821248594E+02  0.10792581887E+02 -0.48823631069E+03  0.52328828333E+03  0.17157490590E+03 0.  0.
        -24    2    3    3    0    0  0.30074197543E+02 -0.18110061329E+02 -0.25610508035E+03  0.26605493151E+03  0.62952225699E+02 0.  0.
          6    2    1    2  501    0  0.76821248594E+02 -0.10792581887E+02 -0.90970390546E+02  0.20910704497E+03  0.17155803753E+03 0.  0.
         24    2    5    5    0    0  0.70090997622E+02  0.34336370213E+02 -0.11463426223E+03  0.15749321525E+03  0.74641573577E+02 0.  0.
          5    1    5    5  501    0  0.67302509726E+01 -0.45128952100E+02  0.23663871681E+02  0.51613829723E+02  0.47000000000E+01 0. -1.
        -13    1    6    6    0    0  0.50599335525E+02 -0.25949249288E+01 -0.10195710496E+03  0.11385199885E+03  0.00000000000E+00 0.  1.
         14    1    6    6    0    0  0.19491662097E+02  0.36931295142E+02 -0.12677157267E+02  0.43641216396E+02  0.00000000000E+00 0. -1.
         -5    1    3    3    0  503 -0.10689544614E+03  0.28902643216E+02 -0.23213123034E+03  0.25723335182E+03  0.47000000000E+01 0.  1.
         11    1    4    4    0    0  0.29020937670E+02  0.67227736301E+01 -0.48152274739E+02  0.56622010482E+02  0.00000000000E+00 0. -1.
        -12    1    4    4    0    0  0.10532598727E+01 -0.24832834959E+02 -0.20795280562E+03  0.20943292103E+03  0.00000000000E+00 0.  1.
</event>
<event>
12    1  0.1594900E-001  0.1956379E+03  0.7818608E-02  0.1153850E+00
         21   -1    0    0  503  502  0.00000000000E+00  0.00000000000E+00  0.12300448958E+03  0.12300448958E+03  0.00000000000E+00 0.  1.
         21   -1    0    0  501  503 -0.00000000000E+00 -0.00000000000E+00 -0.50602719718E+03  0.50602719718E+03  0.00000000000E+00 0.  1.
          6    2    1    2  501    0  0.42206700790E+02  0.81955463085E+02 -0.38857481548E+03  0.43504548076E+03  0.17255746748E+03 0.  0.
         24    2    3    3    0    0  0.29517184837E+02 -0.23189922615E+02 -0.18722635298E+03  0.20749357613E+03  0.81183989640E+02 0.  0.
         -6    2    1    2    0  502 -0.42206700790E+02 -0.81955463085E+02  0.55521078863E+01  0.19398620600E+03  0.17059225860E+03 0.  0.
        -24    2    5    5    0    0  0.15082099076E+02 -0.99754087976E+02 -0.18795390257E+02  0.12907327737E+03  0.78283436656E+02 0.  0.
          5    1    3    3  501    0  0.12689515952E+02  0.10514538570E+03 -0.20134846250E+03  0.22755190463E+03  0.47000000000E+01 0. -1.
        -11    1    4    4    0    0  0.47959126077E+02 -0.32819166413E+02 -0.17244204871E+03  0.18197097466E+03  0.00000000000E+00 0.  1.
         12    1    4    4    0    0 -0.18441941240E+02  0.96292437979E+01 -0.14784304275E+02  0.25522601468E+02  0.00000000000E+00 0. -1.
         -5    1    5    5    0  502 -0.57288799865E+02  0.17798624891E+02  0.24347498143E+02  0.64912928634E+02  0.47000000000E+01 0.  1.
         11    1    6    6    0    0  0.99649151105E+01  0.35919160642E+01 -0.23203365238E+02  0.25506813845E+02  0.00000000000E+00 0. -1.
        -12    1    6    6    0    0  0.51171839650E+01 -0.10334600404E+03  0.44079749811E+01  0.10356646352E+03  0.00000000000E+00 0.  1.
</event>
<event>
12    1  0.1594900E-001  0.1783582E+03  0.7818608E-02  0.1170017E+00
         21   -1    0    0  503  502  0.00000000000E+00  0.00000000000E+00  0.22433535667E+02  0.22433535667E+02  0.00000000000E+00 0. -1.
         21   -1    0    0  501  503 -0.00000000000E+00 -0.00000000000E+00 -0.18248137331E+04  0.18248137331E+04  0.00000000000E+00 0. -1.
          6    2    1    2  501    0  0.11848983661E+02  0.41604741715E+02 -0.13428655859E+04  0.13543321315E+04  0.17045875715E+03 0.  0.
         24    2    3    3    0    0  0.17198193760E+02 -0.34935480428E+02 -0.94282248373E+03  0.94697038418E+03  0.79513564995E+02 0.  0.
         -6    2    1    2    0  502 -0.11848983661E+02 -0.41604741715E+02 -0.45951461157E+03  0.49291513722E+03  0.17303265967E+03 0.  0.
        -24    2    5    5    0    0 -0.12961952775E+02 -0.10197990062E+02 -0.92126665419E+02  0.12415557365E+03  0.81579855150E+02 0.  0.
          5    1    3    3  501    0 -0.53492100994E+01  0.76540222143E+02 -0.40004310214E+03  0.40736174737E+03  0.47000000000E+01 0. -1.
        -13    1    4    4    0    0 -0.26074881973E+02  0.61917677419E+01 -0.20651762725E+03  0.20824929249E+03  0.00000000000E+00 0.  1.
         14    1    4    4    0    0  0.43273075733E+02 -0.41127248170E+02 -0.73630485648E+03  0.73872109168E+03  0.00000000000E+00 0. -1.
         -5    1    5    5    0  502  0.11129691139E+01 -0.31406751653E+02 -0.36738794615E+03  0.36875956357E+03  0.47000000000E+01 0.  1.
         11    1    6    6    0    0 -0.53978085338E+01 -0.42518453434E+02 -0.25904523099E+02  0.50079931473E+02  0.00000000000E+00 0. -1.
        -12    1    6    6    0    0 -0.75641442410E+01  0.32320463371E+02 -0.66222142319E+02  0.74075642178E+02  0.00000000000E+00 0.  1.
</event>
<event>
12    1  0.1594900E-001  0.1956253E+03  0.7818608E-02  0.1153730E+00
         21   -1    0    0  501  502  0.00000000000E+00  0.00000000000E+00  0.98027355574E+02  0.98027355574E+02  0.00000000000E+00 0.  1.
         21   -1    0    0  502  503 -0.00000000000E+00 -0.00000000000E+00 -0.48988732074E+03  0.48988732074E+03  0.00000000000E+00 0.  1.
         -6    2    1    2    0  503  0.69402808399E+02  0.61321399280E+02 -0.33034658034E+03  0.38392464629E+03  0.17231426831E+03 0.  0.
        -24    2    3    3    0    0  0.65672110123E+02  0.37867760359E+02 -0.34051363909E+03  0.35766725929E+03  0.78927413727E+02 0.  0.
          6    2    1    2  501    0 -0.69402808399E+02 -0.61321399280E+02 -0.61513384822E+02  0.20399003002E+03  0.17102915545E+03 0.  0.
         24    2    5    5    0    0 -0.56341810330E+02 -0.10707945546E+03 -0.35658994267E+02  0.14963077242E+03  0.80482263939E+02 0.  0.
          5    1    5    5  501    0 -0.13060998068E+02  0.45758056183E+02 -0.25854390555E+02  0.54359257603E+02  0.47000000000E+01 0. -1.
        -13    1    6    6    0    0 -0.72764223795E+02 -0.69172960695E+02 -0.97542930127E+01  0.10086960389E+03  0.00000000000E+00 0.  1.
         14    1    6    6    0    0  0.16422413465E+02 -0.37906494768E+02 -0.25904701254E+02  0.48761168533E+02  0.00000000000E+00 0. -1.
         -5    1    3    3    0  503  0.37306982760E+01  0.23453638921E+02  0.10167058753E+02  0.26257386998E+02  0.47000000000E+01 0.  1.
         11    1    4    4    0    0 -0.13268744063E+02 -0.21605629619E+01 -0.14163492496E+02  0.19527726980E+02  0.00000000000E+00 0. -1.
        -12    1    4    4    0    0  0.78940854186E+02  0.40028323321E+02 -0.32635014660E+03  0.33813953231E+03  0.00000000000E+00 0.  1.
</event>
<event>
12    1  0.1594900E-001  0.1812738E+03  0.7818608E-02  0.1166667E+00
         21   -1    0    0  503  502  0.00000000000E+00  0.00000000000E+00  0.11095961542E+03  0.11095961542E+03  0.00000000000E+00 0.  1.
         21   -1    0    0  501  503 -0.00000000000E+00 -0.00000000000E+00 -0.30502707595E+03  0.30502707595E+03  0.00000000000E+00 0.  1.
          6    2    1    2  501    0 -0.11046254262E+02  0.57097210167E+02 -0.60419257189E+02  0.19107766201E+03  0.17169180277E+03 0.  0.
         24    2    3    3    0    0  0.52743575435E+02  0.66587509524E+02 -0.39937595049E+02  0.12324848953E+03  0.79871130575E+02 0.  0.
         -6    2    1    2    0  502  0.11046254262E+02 -0.57097210167E+02 -0.13364820334E+03  0.22490902937E+03  0.17128957380E+03 0.  0.
        -24    2    5    5    0    0  0.27256025223E+02  0.36357744458E+02 -0.79093806133E+02  0.11538799270E+03  0.70666697931E+02 0.  0.
          5    1    3    3  501    0 -0.63789829697E+02 -0.94902993576E+01 -0.20481662139E+02  0.67829172475E+02  0.47000000000E+01 0. -1.
        -11    1    4    4    0    0 -0.19701504106E+02  0.26188281012E+02 -0.18256572616E+02  0.37513701098E+02  0.00000000000E+00 0.  1.
         12    1    4    4    0    0  0.72445079541E+02  0.40399228513E+02 -0.21681022433E+02  0.85734788434E+02  0.00000000000E+00 0. -1.
         -5    1    5    5    0  502 -0.16209770961E+02 -0.93454954625E+02 -0.54554397211E+02  0.10952103667E+03  0.47000000000E+01 0.  1.
         11    1    6    6    0    0  0.78468039668E+01  0.54019616023E+02 -0.37567287596E+02  0.66264563268E+02  0.00000000000E+00 0. -1.
        -12    1    6    6    0    0  0.19409221256E+02 -0.17661871564E+02 -0.41526518537E+02  0.49123429427E+02  0.00000000000E+00 0.  1.
</event>
<event>
12    1  0.1594900E-001  0.2817632E+03  0.7818608E-02  0.1095054E+00
         21   -1    0    0  501  502  0.00000000000E+00  0.00000000000E+00  0.14953599751E+03  0.14953599751E+03  0.00000000000E+00 0.  1.
         21   -1    0    0  502  503 -0.00000000000E+00 -0.00000000000E+00 -0.61425191252E+03  0.61425191252E+03  0.00000000000E+00 0.  1.
         -6    2    1    2    0  503 -0.36588409032E+02  0.21995693063E+03 -0.37591468701E+03  0.46836249174E+03  0.16832055357E+03 0.  0.
        -24    2    3    3    0    0 -0.21213350629E+02  0.23053309895E+03 -0.27906016961E+03  0.36961465482E+03  0.71727950191E+02 0.  0.
          6    2    1    2  501    0  0.36588409032E+02 -0.21995693063E+03 -0.88801228000E+02  0.29542541829E+03  0.17225201500E+03 0.  0.
         24    2    5    5    0    0  0.58773941055E+02 -0.17364358814E+03 -0.86082491426E+01  0.20008325878E+03  0.79704056603E+02 0.  0.
          5    1    5    5  501    0 -0.22185532023E+02 -0.46313342487E+02 -0.80192978857E+02  0.95342159517E+02  0.47000000000E+01 0. -1.
        -13    1    6    6    0    0 -0.86429655796E+01 -0.87262050911E+02  0.12248624785E+02  0.88540359116E+02  0.00000000000E+00 0.  1.
         14    1    6    6    0    0  0.67416906635E+02 -0.86381537232E+02 -0.20856873927E+02  0.11154289966E+03  0.00000000000E+00 0. -1.
         -5    1    3    3    0  503 -0.15375058403E+02 -0.10576168316E+02 -0.96854517393E+02  0.98747836921E+02  0.47000000000E+01 0.  1.
         11    1    4    4    0    0 -0.13587303608E+02  0.42603175240E+01 -0.76208858298E+01  0.16150635454E+02  0.00000000000E+00 0. -1.
        -12    1    4    4    0    0 -0.76260470210E+01  0.22627278142E+03 -0.27143928379E+03  0.35346401937E+03  0.00000000000E+00 0.  1.
</event>
<event>
12    1  0.1594900E-001  0.2506426E+03  0.7818608E-02  0.1112971E+00
         21   -1    0    0  503  502  0.00000000000E+00  0.00000000000E+00  0.86458619454E+03  0.86458619454E+03  0.00000000000E+00 0. -1.
         21   -1    0    0  501  503 -0.00000000000E+00 -0.00000000000E+00 -0.72804873139E+02  0.72804873139E+02  0.00000000000E+00 0.  1.
          6    2    1    2  501    0 -0.12545169958E+03  0.13187846398E+03  0.36744911879E+03  0.44479271033E+03  0.17231262888E+03 0.  0.
         24    2    3    3    0    0 -0.79183355229E+02  0.12125949649E+03  0.15193710710E+03  0.22406428138E+03  0.78396737462E+02 0.  0.
         -6    2    1    2    0  502  0.12545169958E+03 -0.13187846398E+03  0.42433220262E+03  0.49259835736E+03  0.17165449397E+03 0.  0.
        -24    2    5    5    0    0  0.57735994114E+02 -0.91486849761E+02  0.12651204212E+03  0.18448176049E+03  0.79529456532E+02 0.  0.
          5    1    3    3  501    0 -0.46268344356E+02  0.10618967490E+02  0.21551201169E+03  0.22072842894E+03  0.47000000000E+01 0. -1.
        -13    1    4    4    0    0 -0.79433843113E+02  0.10502482696E+03  0.88683251908E+02  0.15875978357E+03  0.00000000000E+00 0.  1.
         14    1    4    4    0    0  0.25048788408E+00  0.16234669535E+02  0.63253855188E+02  0.65304497818E+02  0.00000000000E+00 0. -1.
         -5    1    5    5    0  502  0.67715705471E+02 -0.40391614222E+02  0.29782016049E+03  0.30811659686E+03  0.47000000000E+01 0.  1.
         11    1    6    6    0    0 -0.11977516677E+02 -0.53046596796E+02  0.45568739934E+02  0.70950069743E+02  0.00000000000E+00 0. -1.
        -12    1    6    6    0    0  0.69713510791E+02 -0.38440252966E+02  0.80943302191E+02  0.11353169075E+03  0.00000000000E+00 0.  1.
</event>
<event>
12    1  0.1594900E-001  0.2126376E+03  0.7818608E-02  0.1139498E+00
         21   -1    0    0  501  502  0.00000000000E+00  0.00000000000E+00  0.20006925259E+03  0.20006925259E+03  0.00000000000E+00 0. -1.
         21   -1    0    0  502  503 -0.00000000000E+00 -0.00000000000E+00 -0.22832332767E+03  0.22832332767E+03  0.00000000000E+00 0. -1.
         -6    2    1    2    0  503 -0.78371604772E+02  0.98379964147E+02 -0.35842026628E+02  0.21563721811E+03  0.17144688152E+03 0.  0.
        -24    2    3    3    0    0 -0.58254016860E+02  0.20581680593E+02  0.35650959507E+02  0.10797744227E+03  0.81061711487E+02 0.  0.
          6    2    1    2  501    0  0.78371604772E+02 -0.98379964147E+02  0.75879515436E+01  0.21275536215E+03  0.17142503123E+03 0.  0.
         24    2    5    5    0    0  0.70008598053E+02  0.55362932962E+01 -0.11422756775E+02  0.10667979723E+03  0.79487391573E+02 0.  0.
          5    1    5    5  501    0  0.83630067183E+01 -0.10391625744E+03  0.19010708319E+02  0.10607556492E+03  0.47000000000E+01 0. -1.
        -13    1    6    6    0    0 -0.15033557586E+02  0.44451324750E+01 -0.14805823850E+02  0.21563382766E+02  0.00000000000E+00 0.  1.
         14    1    6    6    0    0  0.85042155640E+02  0.10911608212E+01  0.33830670751E+01  0.85116414460E+02  0.00000000000E+00 0. -1.
         -5    1    3    3    0  503 -0.20117587912E+02  0.77798283553E+02 -0.71492986135E+02  0.10765977584E+03  0.47000000000E+01 0.  1.
         11    1    4    4    0    0 -0.38485992755E+02  0.13204244280E+02 -0.22234050949E+02  0.46366763171E+02  0.00000000000E+00 0. -1.
        -12    1    4    4    0    0 -0.19768024105E+02  0.73774363132E+01  0.57885010456E+02  0.61610679099E+02  0.00000000000E+00 0.  1.
</event>
<event>
12    1  0.1594900E-001  0.4136769E+03  0.7818608E-02  0.1039337E+00
         21   -1    0    0  503  502  0.00000000000E+00  0.00000000000E+00  0.35369550545E+03  0.35369550545E+03  0.00000000000E+00 0.  1.
         21   -1    0    0  501  503 -0.00000000000E+00 -0.00000000000E+00 -0.52061288549E+03  0.52061288549E+03  0.00000000000E+00 0. -1.
          6    2    1    2  501    0  0.33947664870E+03 -0.15900044558E+03  0.36721295789E+02  0.41530351285E+03  0.17493718160E+03 0.  0.
         24    2    3    3    0    0  0.16461842582E+03 -0.73635092753E+02  0.84886291803E+02  0.21479266921E+03  0.80055325911E+02 0.  0.
         -6    2    1    2    0  502 -0.33947664870E+03  0.15900044558E+03 -0.20363867582E+03  0.45900487810E+03  0.16938486094E+03 0.  0.
        -24    2    5    5    0    0 -0.33307472892E+03  0.12391659831E+03 -0.21336934558E+03  0.42174046008E+03  0.77745994438E+02 0.  0.
          5    1    3    3  501    0  0.17485822289E+03 -0.85365352830E+02 -0.48164996014E+02  0.20051084364E+03  0.47000000000E+01 0. -1.
        -11    1    4    4    0    0  0.12796199096E+03 -0.71441617892E+02  0.31345984524E+02  0.14986909836E+03  0.00000000000E+00 0.  1.
         12    1    4    4    0    0  0.36656434858E+02 -0.21934748614E+01  0.53540307278E+02  0.64923570850E+02  0.00000000000E+00 0. -1.
         -5    1    5    5    0  502 -0.64019197861E+01  0.35083847270E+02  0.97306697631E+01  0.37264418018E+02  0.47000000000E+01 0.  1.
         11    1    6    6    0    0 -0.13073723285E+03  0.87758707267E+02 -0.78931226216E+02  0.17613617807E+03  0.00000000000E+00 0. -1.
        -12    1    6    6    0    0 -0.20233749607E+03  0.36157891047E+02 -0.13443811937E+03  0.24560428200E+03  0.00000000000E+00 0.  1.
</event>
<event>
12    1  0.1594900E-001  0.1927711E+03  0.7818608E-02  0.1156087E+00
         21   -1    0    0  503  502  0.00000000000E+00  0.00000000000E+00  0.13586243369E+03  0.13586243369E+03  0.00000000000E+00 0. -1.
         21   -1    0    0  501  503 -0.00000000000E+00 -0.00000000000E+00 -0.43390009179E+03  0.43390009179E+03  0.00000000000E+00 0.  1.
          6    2    1    2  501    0  0.79741578806E+02  0.28929669976E+02 -0.32268167615E+03  0.37587786949E+03  0.17310419825E+03 0.  0.
         24    2    3    3    0    0  0.87762912388E+02  0.12709484522E+02 -0.33363939287E+03  0.35420766496E+03  0.79271468100E+02 0.  0.
         -6    2    1    2    0  502 -0.79741578806E+02 -0.28929669976E+02  0.24644018053E+02  0.19388465598E+03  0.17259283590E+03 0.  0.
        -24    2    5    5    0    0 -0.93187006789E+02  0.29654351752E+02  0.37213141176E+02  0.13229780681E+03  0.80961058526E+02 0.  0.
          5    1    3    3  501    0 -0.80213335816E+01  0.16220185454E+02  0.10957716719E+02  0.21670204528E+02  0.47000000000E+01 0. -1.
        -11    1    4    4    0    0  0.75947222840E+02 -0.24468051095E+02 -0.21578414472E+03  0.23006404172E+03  0.00000000000E+00 0.  1.
         12    1    4    4    0    0  0.11815689548E+02  0.37177535617E+02 -0.11785524815E+03  0.12414362324E+03  0.00000000000E+00 0. -1.
         -5    1    5    5    0  502  0.13445427983E+02 -0.58584021728E+02 -0.12569123123E+02  0.61586849177E+02  0.47000000000E+01 0.  1.
         11    1    6    6    0    0 -0.50183048280E+02 -0.10376464585E+02 -0.15318820743E+02  0.53485284153E+02  0.00000000000E+00 0. -1.
        -12    1    6    6    0    0 -0.43003958509E+02  0.40030816337E+02  0.52531961919E+02  0.78812522654E+02  0.00000000000E+00 0.  1.
</event>
<event>
12    1  0.1594900E-001  0.1837031E+03  0.7818608E-02  0.1164693E+00
         21   -1    0    0  503  502  0.00000000000E+00  0.00000000000E+00  0.10646378315E+03  0.10646378315E+03  0.00000000000E+00 0.  1.
         21   -1    0    0  501  503 -0.00000000000E+00 -0.00000000000E+00 -0.91287697781E+03  0.91287697781E+03  0.00000000000E+00 0.  1.
          6    2    1    2  501    0 -0.10301451284E+02 -0.68411877627E+02 -0.81674256917E+03  0.83714710141E+03  0.17017796628E+03 0.  0.
         24    2    3    3    0    0 -0.51477836183E+02 -0.95293366064E+02 -0.59414781240E+03  0.60913695945E+03  0.79406669480E+02 0.  0.
         -6    2    1    2    0  502  0.10301451284E+02  0.68411877627E+02  0.10329374515E+02  0.18219365954E+03  0.16823058194E+03 0.  0.
        -24    2    5    5    0    0 -0.48598039876E+01 -0.28924467769E+02  0.71846222094E+00  0.83104369344E+02  0.77753311733E+02 0.  0.
          5    1    3    3  501    0  0.41176384900E+02  0.26881488437E+02 -0.22259475678E+03  0.22801014196E+03  0.47000000000E+01 0. -1.
        -13    1    4    4    0    0 -0.50522727570E+02 -0.52345544837E+02 -0.20309640922E+03  0.21573306076E+03  0.00000000000E+00 0.  1.
         14    1    4    4    0    0 -0.95510861337E+00 -0.42947821227E+02 -0.39105140317E+03  0.39340389869E+03  0.00000000000E+00 0. -1.
         -5    1    5    5    0  502  0.15161255271E+02  0.97336345396E+02  0.96109122939E+01  0.99089290196E+02  0.47000000000E+01 0.  1.
         13    1    6    6    0    0  0.17195954695E+02 -0.34892681553E-01 -0.30616660427E+02  0.35115266923E+02  0.00000000000E+00 0. -1.
        -14    1    6    6    0    0 -0.22055758682E+02 -0.28889575088E+02  0.31335122648E+02  0.47989102421E+02  0.00000000000E+00 0.  1.
</event>
<event>
12    1  0.1594900E-001  0.3701964E+03  0.7818608E-02  0.1054639E+00
         21   -1    0    0  501  502  0.00000000000E+00  0.00000000000E+00  0.41231949728E+03  0.41231949728E+03  0.00000000000E+00 0. -1.
         21   -1    0    0  502  503 -0.00000000000E+00 -0.00000000000E+00 -0.38752024394E+03  0.38752024394E+03  0.00000000000E+00 0.  1.
         -6    2    1    2    0  503 -0.31851903419E+03  0.74048583966E+02  0.16353063289E+03  0.40470688370E+03  0.17351606810E+03 0.  0.
        -24    2    3    3    0    0 -0.19892013304E+03  0.47929090248E+02  0.17593571847E+03  0.28157239927E+03  0.80394166303E+02 0.  0.
          6    2    1    2  501    0  0.31851903419E+03 -0.74048583966E+02 -0.13873137955E+03  0.39513285753E+03  0.17304915920E+03 0.  0.
         24    2    5    5    0    0  0.51900735475E+02 -0.18351583380E+02 -0.47131737808E+02  0.10773060032E+03  0.79712072994E+02 0.  0.
          5    1    5    5  501    0  0.26661829871E+03 -0.55697000586E+02 -0.91599641744E+02  0.28740225721E+03  0.47000000000E+01 0. -1.
        -13    1    6    6    0    0  0.14456602523E+02 -0.39648313109E+02 -0.48931281081E+02  0.64616192685E+02  0.00000000000E+00 0.  1.
         14    1    6    6    0    0  0.37444132952E+02  0.21296729729E+02  0.17995432725E+01  0.43114407634E+02  0.00000000000E+00 0. -1.
         -5    1    3    3    0  503 -0.11959890114E+03  0.26119493719E+02 -0.12405085573E+02  0.12313448443E+03  0.47000000000E+01 0.  1.
         11    1    4    4    0    0 -0.50786583688E+02  0.31272936630E+02  0.94401146282E+02  0.11166400525E+03  0.00000000000E+00 0. -1.
        -12    1    4    4    0    0 -0.14813354936E+03  0.16656153618E+02  0.81534572183E+02  0.16990839402E+03  0.00000000000E+00 0.  1.
</event>
<event>
12    1  0.1594900E-001  0.2324609E+03  0.7818608E-02  0.1125495E+00
         21   -1    0    0  503  502  0.00000000000E+00  0.00000000000E+00  0.20266241953E+03  0.20266241953E+03  0.00000000000E+00 0. -1.
         21   -1    0    0  501  503 -0.00000000000E+00 -0.00000000000E+00 -0.27376622907E+03  0.27376622907E+03  0.00000000000E+00 0.  1.
          6    2    1    2  501    0  0.14784647172E+03 -0.45673044947E+02  0.11703578897E+02  0.23275537892E+03  0.17347474289E+03 0.  0.
         24    2    3    3    0    0  0.32221860471E+02  0.91442527727E+01 -0.39992630122E+02  0.94666368190E+02  0.78996488221E+02 0.  0.
         -6    2    1    2    0  502 -0.14784647172E+03  0.45673044947E+02 -0.82807388431E+02  0.24367326968E+03  0.16904139298E+03 0.  0.
        -24    2    5    5    0    0 -0.14947266829E+03 -0.71122949372E+01 -0.86667793989E+02  0.19051379872E+03  0.79947093023E+02 0.  0.
          5    1    3    3  501    0  0.11562461125E+03 -0.54817297720E+02  0.51696209019E+02  0.13808901073E+03  0.47000000000E+01 0. -1.
        -11    1    4    4    0    0 -0.16952551735E+02 -0.20589963816E+02 -0.21627803471E+02  0.34337989214E+02  0.00000000000E+00 0.  1.
         12    1    4    4    0    0  0.49174412206E+02  0.29734216589E+02 -0.18364826651E+02  0.60328378976E+02  0.00000000000E+00 0. -1.
         -5    1    5    5    0  502  0.16261965633E+01  0.52785339884E+02  0.38604055572E+01  0.53159470963E+02  0.47000000000E+01 0.  1.
         11    1    6    6    0    0 -0.10718108694E+03  0.47869758703E+01 -0.17695278056E+02  0.10873740572E+03  0.00000000000E+00 0. -1.
        -12    1    6    6    0    0 -0.42291581343E+02 -0.11899270808E+02 -0.68972515932E+02  0.81776393001E+02  0.00000000000E+00 0.  1.
</event>
<event>
12    1  0.1594900E-001  0.1783088E+03  0.7818608E-02  0.1169778E+00
         21   -1    0    0  503  502  0.00000000000E+00  0.00000000000E+00  0.75136319027E+02  0.75136319027E+02  0.00000000000E+00 0. -1.
         21   -1    0    0  501  503 -0.00000000000E+00 -0.00000000000E+00 -0.51613443496E+03  0.51613443496E+03  0.00000000000E+00 0. -1.
          6    2    1    2  501    0 -0.20694053092E+02 -0.39103125800E+02 -0.34742122836E+03  0.38989881733E+03  0.17135425165E+03 0.  0.
         24    2    3    3    0    0 -0.17538842754E+02 -0.91646106052E+02 -0.21343235430E+03  0.24586469464E+03  0.78673111358E+02 0.  0.
         -6    2    1    2    0  502  0.20694053092E+02  0.39103125800E+02 -0.93576887574E+02  0.20137193666E+03  0.17273310251E+03 0.  0.
        -24    2    5    5    0    0 -0.39127378348E+00 -0.10533781065E+02  0.15018876351E+02  0.80031327317E+02  0.77899506202E+02 0.  0.
          5    1    3    3  501    0 -0.31552103384E+01  0.52542980252E+02 -0.13398887407E+03  0.14403412269E+03  0.47000000000E+01 0. -1.
        -11    1    4    4    0    0  0.31385849116E+02 -0.34537033372E+02 -0.88322154276E+02  0.99893348802E+02  0.00000000000E+00 0.  1.
         12    1    4    4    0    0 -0.48924691870E+02 -0.57109072679E+02 -0.12511020002E+03  0.14597134584E+03  0.00000000000E+00 0. -1.
         -5    1    5    5    0  502  0.21085326876E+02  0.49636906865E+02 -0.10859576392E+03  0.12134060934E+03  0.47000000000E+01 0.  1.
         13    1    6    6    0    0  0.12380973602E+02 -0.33332560205E+02  0.32838319862E+02  0.48401480644E+02  0.00000000000E+00 0. -1.
        -14    1    6    6    0    0 -0.12772247385E+02  0.22798779139E+02 -0.17819443511E+02  0.31629846673E+02  0.00000000000E+00 0.  1.
</event>
<event>
12    1  0.1594900E-001  0.2277983E+03  0.7818608E-02  0.1128739E+00
         21   -1    0    0  503  502  0.00000000000E+00  0.00000000000E+00  0.37955586809E+03  0.37955586809E+03  0.00000000000E+00 0.  1.
         21   -1    0    0  501  503 -0.00000000000E+00 -0.00000000000E+00 -0.41774097602E+03  0.41774097602E+03  0.00000000000E+00 0. -1.
          6    2    1    2  501    0  0.59566216406E+02 -0.13519199605E+03 -0.34714550996E+03  0.41521329464E+03  0.17339857274E+03 0.  0.
         24    2    3    3    0    0  0.77501070231E+02 -0.13232730717E+03 -0.18587933405E+03  0.25285956072E+03  0.76615262931E+02 0.  0.
         -6    2    1    2    0  502 -0.59566216406E+02  0.13519199605E+03  0.30896040203E+03  0.38208354947E+03  0.16942933281E+03 0.  0.
        -24    2    5    5    0    0  0.11016061334E+02  0.52720150671E+02  0.67423563089E+02  0.11723340735E+03  0.79353431220E+02 0.  0.
          5    1    3    3  501    0 -0.17934853825E+02 -0.28646888886E+01 -0.16126617591E+03  0.16235373392E+03  0.47000000000E+01 0. -1.
        -11    1    4    4    0    0  0.74529034413E+02 -0.60684995995E+02 -0.13144454940E+03  0.16283401142E+03  0.00000000000E+00 0.  1.
         12    1    4    4    0    0  0.29720358185E+01 -0.71642311170E+02 -0.54434784645E+02  0.90025549296E+02  0.00000000000E+00 0. -1.
         -5    1    5    5    0  502 -0.70582277740E+02  0.82471845383E+02  0.24153683894E+03  0.26485014212E+03  0.47000000000E+01 0.  1.
         11    1    6    6    0    0 -0.40831040348E+01  0.68847749418E+02  0.33311385220E+02  0.76591988640E+02  0.00000000000E+00 0. -1.
        -12    1    6    6    0    0  0.15099165369E+02 -0.16127598748E+02  0.34112177869E+02  0.40641418715E+02  0.00000000000E+00 0.  1.
</event>
<event>
12    1  0.1594900E-001  0.1822268E+03  0.7818608E-02  0.1170166E+00
         21   -1    0    0  503  502  0.00000000000E+00  0.00000000000E+00  0.14777731299E+04  0.14777731299E+04  0.00000000000E+00 0. -1.
         21   -1    0    0  501  503 -0.00000000000E+00 -0.00000000000E+00 -0.40033903823E+02  0.40033903823E+02  0.00000000000E+00 0. -1.
          6    2    1    2  501    0  0.55850087836E+02  0.18730778636E+02  0.20549992922E+03  0.27465766130E+03  0.17244284741E+03 0.  0.
         24    2    3    3    0    0  0.39036954483E+02  0.67214393187E+02  0.18989042255E+03  0.22081447202E+03  0.81602696096E+02 0.  0.
         -6    2    1    2    0  502 -0.55850087836E+02 -0.18730778636E+02  0.12322392968E+04  0.12431493724E+04  0.15341643672E+03 0.  0.
        -24    2    5    5    0    0 -0.56477240666E+02  0.35052994344E+02  0.58070863251E+03  0.58938535985E+03  0.75724470298E+02 0.  0.
          5    1    3    3  501    0  0.16813133354E+02 -0.48483614551E+02  0.15609506662E+02  0.53843189275E+02  0.47000000000E+01 0. -1.
        -13    1    4    4    0    0 -0.18170181729E+02 -0.46398738598E+01  0.18372746955E+02  0.26253414333E+02  0.00000000000E+00 0.  1.
         14    1    4    4    0    0  0.57207136211E+02  0.71854267047E+02  0.17151767560E+03  0.19456105769E+03  0.00000000000E+00 0. -1.
         -5    1    5    5    0  502  0.62715282949E+00 -0.53783772980E+02  0.65153066432E+03  0.65376401255E+03  0.47000000000E+01 0.  1.
         13    1    6    6    0    0  0.32659366555E+01  0.25551067404E+02  0.34767043174E+03  0.34862336768E+03  0.00000000000E+00 0. -1.
        -14    1    6    6    0    0 -0.59743177321E+02  0.95019269393E+01  0.23303820077E+03  0.24076199217E+03  0.00000000000E+00 0.  1.
</event>
<event>
12    1  0.1594900E-001  0.2453753E+03  0.7818608E-02  0.1116353E+00
         21   -1    0    0  503  502  0.00000000000E+00  0.00000000000E+00  0.79933349621E+02  0.79933349621E+02  0.00000000000E+00 0. -1.
         21   -1    0    0  501  503 -0.00000000000E+00 -0.00000000000E+00 -0.14524031316E+04  0.14524031316E+04  0.00000000000E+00 0.  1.
          6    2    1    2  501    0 -0.13776770701E+03 -0.10795787522E+03 -0.12180601382E+04  0.12424203402E+04  0.17118106635E+03 0.  0.
         24    2    3    3    0    0 -0.10468494661E+03 -0.10395976195E+03 -0.11741443177E+04  0.11870927409E+04  0.93849489682E+02 0.  0.
         -6    2    1    2    0  502  0.13776770701E+03  0.10795787522E+03 -0.15440964368E+03  0.28991614096E+03  0.17197147092E+03 0.  0.
        -24    2    5    5    0    0  0.16602443149E+03  0.70608054299E+02 -0.11424641582E+03  0.22804024521E+03  0.80003129472E+02 0.  0.
          5    1    3    3  501    0 -0.33082760394E+02 -0.39981132717E+01 -0.43915820580E+02  0.55327599281E+02  0.47000000000E+01 0. -1.
        -13    1    4    4    0    0 -0.33272587406E+02 -0.79261822315E+02 -0.39242340431E+03  0.40172830346E+03  0.00000000000E+00 0.  1.
         14    1    4    4    0    0 -0.71412359207E+02 -0.24697939635E+02 -0.78172091336E+03  0.78536443747E+03  0.00000000000E+00 0. -1.
         -5    1    5    5    0  502 -0.28256724485E+02  0.37349820923E+02 -0.40163227863E+02  0.61875895743E+02  0.47000000000E+01 0.  1.
         13    1    6    6    0    0  0.14228974301E+03  0.38609234288E+02 -0.11683537220E+03  0.18811578386E+03  0.00000000000E+00 0. -1.
        -14    1    6    6    0    0  0.23734688482E+02  0.31998820011E+02  0.25889563844E+01  0.39924461356E+02  0.00000000000E+00 0.  1.
</event>
<event>
12    1  0.1594900E-001  0.1814793E+03  0.7818608E-02  0.1166431E+00
         21   -1    0    0  503  502  0.00000000000E+00  0.00000000000E+00  0.45277467670E+03  0.45277467670E+03  0.00000000000E+00 0.  1.
         21   -1    0    0  501  503 -0.00000000000E+00 -0.00000000000E+00 -0.11571167641E+03  0.11571167641E+03  0.00000000000E+00 0.  1.
          6    2    1    2  501    0 -0.37112892049E+02 -0.43563347074E+02 -0.47987712434E+01  0.18154271149E+03  0.17221961539E+03 0.  0.
         24    2    3    3    0    0 -0.84081980423E+02 -0.34119434754E+02 -0.32121178712E+02  0.12619032498E+03  0.81598484895E+02 0.  0.
         -6    2    1    2    0  502  0.37112892049E+02  0.43563347074E+02  0.34186177154E+03  0.38694364161E+03  0.17199063632E+03 0.  0.
        -24    2    5    5    0    0 -0.19430532502E+02  0.80046466435E+02  0.15586770542E+03  0.18909506444E+03  0.68390199739E+02 0.  0.
          5    1    3    3  501    0  0.46969088375E+02 -0.94439123199E+01  0.27322407469E+02  0.55352386512E+02  0.47000000000E+01 0. -1.
        -13    1    4    4    0    0 -0.41226310398E+02 -0.52772471403E+02  0.40507365135E+01  0.67089126342E+02  0.00000000000E+00 0.  1.
         14    1    4    4    0    0 -0.42855670025E+02  0.18653036648E+02 -0.36171915226E+02  0.59101198639E+02  0.00000000000E+00 0. -1.
         -5    1    5    5    0  502  0.56543424551E+02 -0.36483119361E+02  0.18599406612E+03  0.19784857718E+03  0.47000000000E+01 0.  1.
         13    1    6    6    0    0 -0.43557660600E+02  0.66188307715E+02  0.11597394162E+03  0.14045681546E+03  0.00000000000E+00 0. -1.
        -14    1    6    6    0    0  0.24127128098E+02  0.13858158720E+02  0.39893763801E+02  0.48638248977E+02  0.00000000000E+00 0.  1.
</event>
<event>
12    1  0.1594900E-001  0.1737014E+03  0.7818608E-02  0.1174054E+00
         21   -1    0    0  501  502  0.00000000000E+00  0.00000000000E+00  0.21415534539E+03  0.21415534539E+03  0.00000000000E+00 0.  1.
         21   -1    0    0  502  503 -0.00000000000E+00 -0.00000000000E+00 -0.18346706753E+03  0.18346706753E+03  0.00000000000E+00 0.  1.
         -6    2    1    2    0  503  0.42334251096E+01  0.23458767208E+02  0.11116345071E+03  0.20622681719E+03  0.17205798938E+03 0.  0.
        -24    2    3    3    0    0  0.29272459616E+02  0.71352921834E+02  0.41972631915E+02  0.11830490467E+03  0.79285763490E+02 0.  0.
          6    2    1    2  501    0 -0.42334251096E+01 -0.23458767208E+02 -0.80475172854E+02  0.19139559572E+03  0.17201100246E+03 0.  0.
         24    2    5    5    0    0  0.19704229910E+01 -0.66566232480E+01 -0.12190650140E+03  0.14601448998E+03  0.80067740086E+02 0.  0.
          5    1    5    5  501    0 -0.62038481006E+01 -0.16802143960E+02  0.41431328543E+02  0.45381105735E+02  0.47000000000E+01 0. -1.
        -11    1    6    6    0    0 -0.35861613242E+02  0.95420020883E+01 -0.74543482075E+02  0.83269657308E+02  0.00000000000E+00 0.  1.
         12    1    6    6    0    0  0.37832036233E+02 -0.16198625336E+02 -0.47363019321E+02  0.62744832676E+02  0.00000000000E+00 0. -1.
         -5    1    3    3    0  503 -0.25039034506E+02 -0.47894154626E+02  0.69190818800E+02  0.87921912528E+02  0.47000000000E+01 0.  1.
         11    1    4    4    0    0 -0.11443925728E+02 -0.12766017404E+02  0.59459277954E+01  0.18146313504E+02  0.00000000000E+00 0. -1.
        -12    1    4    4    0    0  0.40716385344E+02  0.84118939238E+02  0.36026704119E+02  0.10015859116E+03  0.00000000000E+00 0.  1.
</event>
<event>
12    1  0.1594900E-001  0.2092199E+03  0.7818608E-02  0.1142201E+00
         21   -1    0    0  503  502  0.00000000000E+00  0.00000000000E+00  0.36953789988E+03  0.36953789988E+03  0.00000000000E+00 0. -1.
         21   -1    0    0  501  503 -0.00000000000E+00 -0.00000000000E+00 -0.13493344390E+03  0.13493344390E+03  0.00000000000E+00 0. -1.
          6    2    1    2  501    0 -0.98839570585E+02  0.66513460562E+02  0.29049597797E+02  0.21122699243E+03  0.17198738922E+03 0.  0.
         24    2    3    3    0    0 -0.13022340870E+01  0.64470341789E+02  0.44016317531E+02  0.11241505467E+03  0.80880081123E+02 0.  0.
         -6    2    1    2    0  502  0.98839570585E+02 -0.66513460562E+02  0.20555485818E+03  0.29324435135E+03  0.17188993202E+03 0.  0.
        -24    2    5    5    0    0  0.29943219541E+02 -0.10055038019E+03  0.13630428013E+03  0.18969266549E+03  0.79984218474E+02 0.  0.
          5    1    3    3  501    0 -0.97537336498E+02  0.20431187732E+01 -0.14966719734E+02  0.98811937766E+02  0.47000000000E+01 0. -1.
        -13    1    4    4    0    0  0.31425548501E+02  0.18553354449E+02  0.42485764721E+02  0.56007430434E+02  0.00000000000E+00 0.  1.
         14    1    4    4    0    0 -0.32727782588E+02  0.45916987340E+02  0.15305528103E+01  0.56407624231E+02  0.00000000000E+00 0. -1.
         -5    1    5    5    0  502  0.68896351044E+02  0.34036919630E+02  0.69250578047E+02  0.10355168586E+03  0.47000000000E+01 0.  1.
         13    1    6    6    0    0  0.41383934305E+02 -0.13014149104E+02  0.39372984313E+02  0.58585236956E+02  0.00000000000E+00 0. -1.
        -14    1    6    6    0    0 -0.11440714764E+02 -0.87536231088E+02  0.96931295815E+02  0.13110742853E+03  0.00000000000E+00 0.  1.
</event>
<event>
12    1  0.1594900E-001  0.2578828E+03  0.7818608E-02  0.1108888E+00
         21   -1    0    0  503  502  0.00000000000E+00  0.00000000000E+00  0.12250075304E+03  0.12250075304E+03  0.00000000000E+00 0. -1.
         21   -1    0    0  501  503 -0.00000000000E+00 -0.00000000000E+00 -0.54704516969E+03  0.54704516969E+03  0.00000000000E+00 0. -1.
          6    2    1    2  501    0  0.45027419712E+02 -0.18617224125E+03 -0.25755238311E+03  0.36231653779E+03  0.16808471548E+03 0.  0.
         24    2    3    3    0    0  0.88650554249E+01 -0.13092389441E+03 -0.25241746072E+03  0.29591959624E+03  0.81450461201E+02 0.  0.
         -6    2    1    2    0  502 -0.45027419712E+02  0.18617224125E+03 -0.16699203355E+03  0.30722938494E+03  0.17267305454E+03 0.  0.
        -24    2    5    5    0    0 -0.37781138709E+01  0.19822950965E+03 -0.14981433035E+03  0.26071007238E+03  0.78842853983E+02 0.  0.
          5    1    3    3  501    0  0.36162364288E+02 -0.55248346839E+02 -0.51349223880E+01  0.66396941551E+02  0.47000000000E+01 0. -1.
        -11    1    4    4    0    0  0.39354914061E+02 -0.62218290233E+02 -0.16467589668E+03  0.18038313626E+03  0.00000000000E+00 0.  1.
         12    1    4    4    0    0 -0.30489858636E+02 -0.68705604177E+02 -0.87741564037E+02  0.11553645998E+03  0.00000000000E+00 0. -1.
         -5    1    5    5    0  502 -0.41249305842E+02 -0.12057268397E+02 -0.17177703199E+02  0.46519312557E+02  0.47000000000E+01 0.  1.
         13    1    6    6    0    0 -0.68555259795E-01  0.72239816496E+02 -0.10393733947E+03  0.12657632608E+03  0.00000000000E+00 0. -1.
        -14    1    6    6    0    0 -0.37095586111E+01  0.12598969315E+03 -0.45876990877E+02  0.13413374630E+03  0.00000000000E+00 0.  1.
</event>
<event>
12    1  0.1594900E-001  0.2955757E+03  0.7818608E-02  0.1087614E+00
         21   -1    0    0  503  502  0.00000000000E+00  0.00000000000E+00  0.15855901557E+04  0.15855901557E+04  0.00000000000E+00 0. -1.
         21   -1    0    0  501  503 -0.00000000000E+00 -0.00000000000E+00 -0.11031444258E+03  0.11031444258E+03  0.00000000000E+00 0.  1.
          6    2    1    2  501    0 -0.23481108198E+03  0.52528062418E+02  0.13592830586E+03  0.32433013818E+03  0.16975892505E+03 0.  0.
         24    2    3    3    0    0 -0.20718996700E+03 -0.13384940789E+02  0.88991037453E+02  0.23869926087E+03  0.77143329740E+02 0.  0.
         -6    2    1    2    0  502  0.23481108198E+03 -0.52528062418E+02  0.13393474072E+04  0.13715744601E+04  0.17166706359E+03 0.  0.
        -24    2    5    5    0    0  0.18347963932E+03 -0.10098412057E+03  0.10724013465E+04  0.10954129205E+04  0.77603143451E+02 0.  0.
          5    1    3    3  501    0 -0.27621114977E+02  0.65913003207E+02  0.46937268405E+02  0.85630877314E+02  0.47000000000E+01 0. -1.
        -11    1    4    4    0    0 -0.69148631634E+02 -0.20220660842E+02  0.67693347074E+02  0.98857461123E+02  0.00000000000E+00 0.  1.
         12    1    4    4    0    0 -0.13804133537E+03  0.68357200526E+01  0.21297690380E+02  0.13984179974E+03  0.00000000000E+00 0. -1.
         -5    1    5    5    0  502  0.51331442665E+02  0.48456058150E+02  0.26694606077E+03  0.27616153957E+03  0.47000000000E+01 0.  1.
         11    1    6    6    0    0  0.71735010813E+02 -0.31752176443E+02  0.23477938788E+03  0.24753883222E+03  0.00000000000E+00 0. -1.
        -12    1    6    6    0    0  0.11174462850E+03 -0.69231944124E+02  0.83762195859E+03  0.84787408829E+03  0.00000000000E+00 0.  1.
</event>
<event>
12    1  0.1594900E-001  0.1845350E+03  0.7818608E-02  0.1163963E+00
         21   -1    0    0  501  502  0.00000000000E+00  0.00000000000E+00  0.18396790580E+04  0.18396790580E+04  0.00000000000E+00 0.  1.
         21   -1    0    0  502  503 -0.00000000000E+00 -0.00000000000E+00 -0.18944221438E+02  0.18944221438E+02  0.00000000000E+00 0.  1.
         -6    2    1    2    0  503 -0.34634726521E+01 -0.57263866590E+02  0.73513213570E+03  0.75744826857E+03  0.17325552391E+03 0.  0.
        -24    2    3    3    0    0 -0.52496769649E+02  0.82833352459E+01  0.48472836916E+03  0.49396233691E+03  0.78820517375E+02 0.  0.
          6    2    1    2  501    0  0.34634726521E+01  0.57263866590E+02  0.10856027009E+04  0.11011750109E+04  0.17539108977E+03 0.  0.
         24    2    5    5    0    0 -0.35103846820E+02  0.19183908079E+02  0.28908000188E+03  0.30279664107E+03  0.80735716766E+02 0.  0.
          5    1    5    5  501    0  0.38567319472E+02  0.38079958510E+02  0.79652269897E+03  0.79837836979E+03  0.47000000000E+01 0. -1.
        -11    1    6    6    0    0  0.20071561618E+02  0.20130198065E+02  0.50826891052E+02  0.58236288635E+02  0.00000000000E+00 0.  1.
         12    1    6    6    0    0 -0.55175408438E+02 -0.94628998535E+00  0.23825311083E+03  0.24456035243E+03  0.00000000000E+00 0. -1.
         -5    1    3    3    0  503  0.49033296997E+02 -0.65547201835E+02  0.25040376654E+03  0.26348593166E+03  0.47000000000E+01 0.  1.
         13    1    4    4    0    0 -0.62351400304E+02 -0.18350903050E+02  0.29149646765E+03  0.29865472274E+03  0.00000000000E+00 0. -1.
        -14    1    4    4    0    0  0.98546306548E+01  0.26634238296E+02  0.19323190150E+03  0.19530761417E+03  0.00000000000E+00 0.  1.
</event>
<event>
12    1  0.1594900E-001  0.1990021E+03  0.7818608E-02  0.1150675E+00
         21   -1    0    0  503  502  0.00000000000E+00  0.00000000000E+00  0.16573487792E+03  0.16573487792E+03  0.00000000000E+00 0.  1.
         21   -1    0    0  501  503 -0.00000000000E+00 -0.00000000000E+00 -0.25171153358E+03  0.25171153358E+03  0.00000000000E+00 0.  1.
          6    2    1    2  501    0 -0.86856880221E+02 -0.47468300393E+02 -0.90973930265E+02  0.21881067160E+03  0.17263978925E+03 0.  0.
         24    2    3    3    0    0 -0.12781094234E+02  0.11064546573E+02 -0.95505615786E+02  0.12417483052E+03  0.77538927813E+02 0.  0.
         -6    2    1    2    0  502  0.86856880221E+02  0.47468300393E+02  0.49972746092E+01  0.19863573991E+03  0.17214478566E+03 0.  0.
        -24    2    5    5    0    0  0.80339499270E+02  0.90206606010E+02 -0.26624069319E+02  0.14486736246E+03  0.75405866668E+02 0.  0.
          5    1    3    3  501    0 -0.74075785988E+02 -0.58532846966E+02  0.45316855211E+01  0.94635841082E+02  0.47000000000E+01 0. -1.
        -11    1    4    4    0    0 -0.26291461341E+02  0.38647556891E+02 -0.43927403761E+02  0.64144301339E+02  0.00000000000E+00 0.  1.
         12    1    4    4    0    0  0.13510367108E+02 -0.27583010318E+02 -0.51578212025E+02  0.60030529177E+02  0.00000000000E+00 0. -1.
         -5    1    5    5    0  502  0.65173809509E+01 -0.42738305617E+02  0.31621343928E+02  0.53768377447E+02  0.47000000000E+01 0.  1.
         11    1    6    6    0    0 -0.14099459733E+02  0.43603580052E+01 -0.34224126584E+01  0.15149930531E+02  0.00000000000E+00 0. -1.
        -12    1    6    6    0    0  0.94438959003E+02  0.85846248005E+02 -0.23201656661E+02  0.12971743193E+03  0.00000000000E+00 0.  1.
</event>
<event>
12    1  0.1594900E-001  0.2511873E+03  0.7818608E-02  0.1112674E+00
         21   -1    0    0  501  502  0.00000000000E+00  0.00000000000E+00  0.24010645429E+03  0.24010645429E+03  0.00000000000E+00 0.  1.
         21   -1    0    0  502  503 -0.00000000000E+00 -0.00000000000E+00 -0.27132635783E+03  0.27132635783E+03  0.00000000000E+00 0.  1.
         -6    2    1    2    0  503  0.16843654012E+02 -0.18244037062E+03 -0.63001199856E+02  0.25824298062E+03  0.17073982647E+03 0.  0.
        -24    2    3    3    0    0  0.61142831715E+02 -0.14926159268E+03 -0.23549200752E+02  0.19011223364E+03  0.97829584502E+02 0.  0.
          6    2    1    2  501    0 -0.16843654012E+02  0.18244037062E+03  0.31781296316E+02  0.25318983150E+03  0.17183376405E+03 0.  0.
         24    2    5    5    0    0 -0.11828592701E+02  0.17168904532E+02 -0.67970955832E+01  0.83336392728E+02  0.80399421368E+02 0.  0.
          5    1    5    5  501    0 -0.50150613104E+01  0.16527146609E+03  0.38578391899E+02  0.16985343878E+03  0.47000000000E+01 0. -1.
        -11    1    6    6    0    0 -0.16839278024E+02  0.35202351248E+02  0.25068241709E+02  0.46380853379E+02  0.00000000000E+00 0.  1.
         12    1    6    6    0    0  0.50106853229E+01 -0.18033446716E+02 -0.31865337292E+02  0.36955539349E+02  0.00000000000E+00 0. -1.
         -5    1    3    3    0  503 -0.44299177704E+02 -0.33178777944E+02 -0.39451999104E+02  0.68130746983E+02  0.47000000000E+01 0.  1.
         11    1    4    4    0    0  0.73321278374E+01  0.80128364696E+01  0.15913663412E+02  0.19266819408E+02  0.00000000000E+00 0. -1.
        -12    1    4    4    0    0  0.53810703878E+02 -0.15727442915E+03 -0.39462864164E+02  0.17084541423E+03  0.00000000000E+00 0.  1.
</event>
<event>
12    1  0.1594900E-001  0.2246056E+03  0.7818608E-02  0.1130694E+00
         21   -1    0    0  503  502  0.00000000000E+00  0.00000000000E+00  0.14878787418E+03  0.14878787418E+03  0.00000000000E+00 0.  1.
         21   -1    0    0  501  503 -0.00000000000E+00 -0.00000000000E+00 -0.55311829240E+03  0.55311829240E+03  0.00000000000E+00 0.  1.
          6    2    1    2  501    0  0.19288799872E+02 -0.14084607372E+03 -0.42163359083E+03  0.47772643873E+03  0.17389074460E+03 0.  0.
         24    2    3    3    0    0  0.23444053015E+02 -0.15456891428E+03 -0.42724479144E+03  0.46162805204E+03  0.78237930306E+02 0.  0.
         -6    2    1    2    0  502 -0.19288799872E+02  0.14084607372E+03  0.17303172614E+02  0.22417972785E+03  0.17247456715E+03 0.  0.
        -24    2    5    5    0    0  0.42343521879E+02  0.28061898210E+02  0.11374187072E+02  0.95431694081E+02  0.79983699135E+02 0.  0.
          5    1    3    3  501    0 -0.41552531426E+01  0.13722840561E+02  0.56112006028E+01  0.16098386687E+02  0.47000000000E+01 0. -1.
        -11    1    4    4    0    0 -0.27948781896E+02 -0.75437972194E+02 -0.19345238484E+03  0.20951335818E+03  0.00000000000E+00 0.  1.
         12    1    4    4    0    0  0.51392834911E+02 -0.79130942087E+02 -0.23379240660E+03  0.25211469386E+03  0.00000000000E+00 0. -1.
         -5    1    5    5    0  502 -0.61632321751E+02  0.11278417551E+03  0.59289855418E+01  0.12874803377E+03  0.47000000000E+01 0.  1.
         13    1    6    6    0    0  0.44093506103E+02  0.51177644700E+02  0.20382763288E+02  0.70560935628E+02  0.00000000000E+00 0. -1.
        -14    1    6    6    0    0 -0.17499842249E+01 -0.23115746490E+02 -0.90085762154E+01  0.24870758452E+02  0.00000000000E+00 0.  1.
</event>
<event>
12    1  0.1594900E-001  0.2074618E+03  0.7818608E-02  0.1144129E+00
         21   -1    0    0  503  502  0.00000000000E+00  0.00000000000E+00  0.44045460835E+03  0.44045460835E+03  0.00000000000E+00 0.  1.
         21   -1    0    0  501  503 -0.00000000000E+00 -0.00000000000E+00 -0.18032664644E+03  0.18032664644E+03  0.00000000000E+00 0.  1.
          6    2    1    2  501    0 -0.85127097237E+02  0.76192124824E+02 -0.81146289901E+02  0.22276700635E+03  0.17317204216E+03 0.  0.
         24    2    3    3    0    0 -0.96378859241E+02  0.22186451896E+02 -0.10471640700E+03  0.16259346336E+03  0.75431991051E+02 0.  0.
         -6    2    1    2    0  502  0.85127097237E+02 -0.76192124824E+02  0.34127425181E+03  0.39801424844E+03  0.16998636545E+03 0.  0.
        -24    2    5    5    0    0  0.19866603382E+02 -0.85178451145E+02  0.12783858952E+03  0.17459411045E+03  0.80562695859E+02 0.  0.
          5    1    3    3  501    0  0.11251762004E+02  0.54005672928E+02  0.23570117103E+02  0.60173542998E+02  0.47000000000E+01 0. -1.
        -13    1    4    4    0    0 -0.81708356306E+02 -0.12589686713E+02 -0.51676125065E+02  0.97494500376E+02  0.00000000000E+00 0.  1.
         14    1    4    4    0    0 -0.14670502935E+02  0.34776138609E+02 -0.53040281939E+02  0.65098962980E+02  0.00000000000E+00 0. -1.
         -5    1    5    5    0  502  0.65260493854E+02  0.89863263211E+01  0.21343566230E+03  0.22342013799E+03  0.47000000000E+01 0.  1.
         11    1    6    6    0    0  0.17260553611E+02 -0.50174607042E+02  0.13165807963E+02  0.54669519864E+02  0.00000000000E+00 0. -1.
        -12    1    6    6    0    0  0.26060497710E+01 -0.35003844103E+02  0.11467278156E+03  0.11992459059E+03  0.00000000000E+00 0.  1.
</event>
<event>
12    1  0.1594900E-001  0.1967755E+03  0.7818608E-02  0.1152654E+00
         21   -1    0    0  501  502  0.00000000000E+00  0.00000000000E+00  0.35206963202E+03  0.35206963202E+03  0.00000000000E+00 0.  1.
         21   -1    0    0  502  503 -0.00000000000E+00 -0.00000000000E+00 -0.23280635496E+03  0.23280635496E+03  0.00000000000E+00 0.  1.
         -6    2    1    2    0  503  0.79589024494E+02 -0.50966188958E+02 -0.15320757277E+03  0.24877935278E+03  0.17171674577E+03 0.  0.
        -24    2    3    3    0    0  0.33115338906E+02 -0.92518113115E+02 -0.14028207237E+03  0.18493951871E+03  0.69766315833E+02 0.  0.
          6    2    1    2  501    0 -0.79589024494E+02  0.50966188958E+02  0.27247084983E+03  0.33609663420E+03  0.17259379560E+03 0.  0.
         24    2    5    5    0    0 -0.11718997776E+03  0.55590151862E+02  0.25200435681E+03  0.29278174004E+03  0.73424761347E+02 0.  0.
          5    1    5    5  501    0  0.37600953269E+02 -0.46239629048E+01  0.20466493016E+02  0.43314894160E+02  0.47000000000E+01 0. -1.
        -11    1    6    6    0    0 -0.17395793517E+02 -0.12219275665E+02  0.79348573916E+02  0.82146944632E+02  0.00000000000E+00 0.  1.
         12    1    6    6    0    0 -0.99794184246E+02  0.67809427527E+02  0.17265578290E+03  0.21063479541E+03  0.00000000000E+00 0. -1.
         -5    1    3    3    0  503  0.46473685588E+02  0.41551924158E+02 -0.12925500396E+02  0.63839834068E+02  0.47000000000E+01 0.  1.
         13    1    4    4    0    0 -0.94407890343E+01  0.72714258309E+01 -0.11600474956E+02  0.16630488580E+02  0.00000000000E+00 0. -1.
        -14    1    4    4    0    0  0.42556127940E+02 -0.99789538946E+02 -0.12868159742E+03  0.16830903013E+03  0.00000000000E+00 0.  1.
</event>
<event>
12    1  0.1594900E-001  0.2027821E+03  0.7818608E-02  0.1147630E+00
         21   -1    0    0  503  502  0.00000000000E+00  0.00000000000E+00  0.39306626619E+03  0.39306626619E+03  0.00000000000E+00 0. -1.
         21   -1    0    0  501  503 -0.00000000000E+00 -0.00000000000E+00 -0.16648141837E+03  0.16648141837E+03  0.00000000000E+00 0. -1.
          6    2    1    2  501    0  0.24329821156E+02 -0.10222316418E+03 -0.57816153334E+02  0.21086323820E+03  0.17343322099E+03 0.  0.
         24    2    3    3    0    0 -0.47952419429E+02 -0.63960619637E+02 -0.59534924346E+02  0.12892552531E+03  0.81774008502E+02 0.  0.
         -6    2    1    2    0  502 -0.24329821156E+02  0.10222316418E+03  0.28440100115E+03  0.34868444636E+03  0.17220742779E+03 0.  0.
        -24    2    5    5    0    0 -0.20153264898E+02  0.98391177932E+02  0.95229294573E+02  0.15936949103E+03  0.79012898611E+02 0.  0.
          5    1    3    3  501    0  0.72282240585E+02 -0.38262544542E+02  0.17187710122E+01  0.81937712884E+02  0.47000000000E+01 0. -1.
        -11    1    4    4    0    0 -0.36265167637E+02  0.11462021019E+02 -0.19686890987E+02  0.42826557022E+02  0.00000000000E+00 0.  1.
         12    1    4    4    0    0 -0.11687251792E+02 -0.75422640656E+02 -0.39848033359E+02  0.86098968290E+02  0.00000000000E+00 0. -1.
         -5    1    5    5    0  502 -0.41765562581E+01  0.38319862479E+01  0.18917170658E+03  0.18931495533E+03  0.47000000000E+01 0.  1.
         13    1    6    6    0    0 -0.25425402088E+02  0.10269886766E+03  0.10393989837E+03  0.14831389336E+03  0.00000000000E+00 0. -1.
        -14    1    6    6    0    0  0.52721371901E+01 -0.43076897289E+01 -0.87106038001E+01  0.11055597673E+02  0.00000000000E+00 0.  1.
</event>
<event>
12    1  0.1594900E-001  0.1830366E+03  0.7818608E-02  0.1165390E+00
         21   -1    0    0  501  502  0.00000000000E+00  0.00000000000E+00  0.27868026602E+03  0.27868026602E+03  0.00000000000E+00 0.  1.
         21   -1    0    0  502  503 -0.00000000000E+00 -0.00000000000E+00 -0.14200943840E+03  0.14200943840E+03  0.00000000000E+00 0. -1.
         -6    2    1    2    0  503  0.22098430550E+02 -0.52907982098E+02 -0.16917624232E+02  0.18175078735E+03  0.17163783816E+03 0.  0.
        -24    2    3    3    0    0 -0.38099130923E+02 -0.31627021204E+02 -0.52412696609E+02  0.10854821999E+03  0.81140699098E+02 0.  0.
          6    2    1    2  501    0 -0.22098430550E+02  0.52907982098E+02  0.15358845186E+03  0.23893891708E+03  0.17382404422E+03 0.  0.
         24    2    5    5    0    0 -0.42031194423E+02  0.67122705323E+02  0.17397406258E+03  0.20673586510E+03  0.78744298812E+02 0.  0.
          5    1    5    5  501    0  0.19932763873E+02 -0.14214723224E+02 -0.20385610723E+02  0.32203051975E+02  0.47000000000E+01 0. -1.
        -11    1    6    6    0    0  0.90215674854E+01 -0.12439332182E+02  0.13336567232E+02  0.20346736607E+02  0.00000000000E+00 0.  1.
         12    1    6    6    0    0 -0.51052761908E+02  0.79562037504E+02  0.16063749535E+03  0.18638912850E+03  0.00000000000E+00 0. -1.
         -5    1    3    3    0  503  0.60197561474E+02 -0.21280960894E+02  0.35495072378E+02  0.73202567353E+02  0.47000000000E+01 0.  1.
         13    1    4    4    0    0 -0.54784295158E+02 -0.46796499245E+02 -0.44318826716E+02  0.84589536818E+02  0.00000000000E+00 0. -1.
        -14    1    4    4    0    0  0.16685164235E+02  0.15169478041E+02 -0.80938698938E+01  0.23958683174E+02  0.00000000000E+00 0.  1.
</event>
<event>
12    1  0.1594900E-001  0.1883215E+03  0.7818608E-02  0.1160682E+00
         21   -1    0    0  503  502  0.00000000000E+00  0.00000000000E+00  0.53576508777E+03  0.53576508777E+03  0.00000000000E+00 0.  1.
         21   -1    0    0  501  503 -0.00000000000E+00 -0.00000000000E+00 -0.66338016821E+02  0.66338016821E+02  0.00000000000E+00 0. -1.
          6    2    1    2  501    0 -0.68552537681E+02 -0.19580133597E+02  0.27340980905E+03  0.33028010632E+03  0.17102395413E+03 0.  0.
         24    2    3    3    0    0 -0.31640799946E+02  0.36922070885E+02  0.22370274127E+03  0.24632858411E+03  0.90942153893E+02 0.  0.
         -6    2    1    2    0  502  0.68552537681E+02  0.19580133597E+02  0.19601726189E+03  0.27182299827E+03  0.17430474284E+03 0.  0.
        -24    2    5    5    0    0  0.31494882440E+02  0.67857906648E+02  0.61771831311E+02  0.12435117447E+03  0.77787096199E+02 0.  0.
          5    1    3    3  501    0 -0.36911737735E+02 -0.56502204482E+02  0.49707067781E+02  0.83951522210E+02  0.47000000000E+01 0. -1.
        -13    1    4    4    0    0 -0.82160580426E+01 -0.30284084693E+02  0.80915565483E+02  0.86786854609E+02  0.00000000000E+00 0.  1.
         14    1    4    4    0    0 -0.23424741903E+02  0.67206155577E+02  0.14278717579E+03  0.15954172950E+03  0.00000000000E+00 0. -1.
         -5    1    5    5    0  502  0.37057655241E+02 -0.48277773051E+02  0.13424543058E+03  0.14747182380E+03  0.47000000000E+01 0.  1.
         13    1    6    6    0    0  0.97512499968E+01  0.17666586451E+02 -0.18392443982E+02  0.27303427421E+02  0.00000000000E+00 0. -1.
        -14    1    6    6    0    0  0.21743632443E+02  0.50191320197E+02  0.80164275292E+02  0.97047747053E+02  0.00000000000E+00 0.  1.
</event>
<event>
12    1  0.1594900E-001  0.1822442E+03  0.7818608E-02  0.1167622E+00
         21   -1    0    0  503  502  0.00000000000E+00  0.00000000000E+00  0.24933251200E+03  0.24933251200E+03  0.00000000000E+00 0.  1.
         21   -1    0    0  501  503 -0.00000000000E+00 -0.00000000000E+00 -0.15394422773E+03  0.15394422773E+03  0.00000000000E+00 0.  1.
          6    2    1    2  501    0 -0.12827661881E+02  0.24978939179E+02 -0.36976911406E+02  0.17803577285E+03  0.17187480364E+03 0.  0.
         24    2    3    3    0    0  0.22091531460E+02  0.76171946873E+02 -0.21727925943E+02  0.11404596384E+03  0.79020110407E+02 0.  0.
         -6    2    1    2    0  502  0.12827661881E+02 -0.24978939179E+02  0.13236519568E+03  0.22524096688E+03  0.18006790892E+03 0.  0.
        -24    2    5    5    0    0 -0.33427425146E+02  0.43931816748E+02  0.92526921661E+02  0.13305960524E+03  0.78078358328E+02 0.  0.
          5    1    3    3  501    0 -0.34919193341E+02 -0.51193007694E+02 -0.15248985463E+02  0.63989809017E+02  0.47000000000E+01 0. -1.
        -13    1    4    4    0    0 -0.28404621879E+02  0.17757746979E+02 -0.14472666383E+02  0.36491344099E+02  0.00000000000E+00 0.  1.
         14    1    4    4    0    0  0.50496153339E+02  0.58414199894E+02 -0.72552595593E+01  0.77554619737E+02  0.00000000000E+00 0. -1.
         -5    1    5    5    0  502  0.46255087027E+02 -0.68910755926E+02  0.39838274015E+02  0.92181361645E+02  0.47000000000E+01 0.  1.
         13    1    6    6    0    0  0.47029073659E+01  0.52573529990E+02  0.34387336948E+02  0.62996685117E+02  0.00000000000E+00 0. -1.
        -14    1    6    6    0    0 -0.38130332512E+02 -0.86417132426E+01  0.58139584713E+02  0.70062920121E+02  0.00000000000E+00 0.  1.
</event>
<event>
12    1  0.1594900E-001  0.2285479E+03  0.7818608E-02  0.1127784E+00
         21   -1    0    0  501  502  0.00000000000E+00  0.00000000000E+00  0.32146360674E+03  0.32146360674E+03  0.00000000000E+00 0.  1.
         21   -1    0    0  502  503 -0.00000000000E+00 -0.00000000000E+00 -0.20147297807E+03  0.20147297807E+03  0.00000000000E+00 0.  1.
         -6    2    1    2    0  503  0.45556783914E+02  0.14350842472E+03  0.17563546207E+03  0.28771222803E+03  0.17105678034E+03 0.  0.
        -24    2    3    3    0    0  0.41834692023E+02  0.99834715814E+02  0.19704534205E+03  0.23870488391E+03  0.80224951478E+02 0.  0.
          6    2    1    2  501    0 -0.45556783914E+02 -0.14350842472E+03 -0.55644833400E+02  0.23522435678E+03  0.17194203096E+03 0.  0.
         24    2    5    5    0    0  0.30269038606E+02 -0.92795417419E+02  0.47201818465E+01  0.12573741904E+03  0.79122779509E+02 0.  0.
          5    1    5    5  501    0 -0.75825822520E+02 -0.50713007300E+02 -0.60365015247E+02  0.10948693774E+03  0.47000000000E+01 0. -1.
        -13    1    6    6    0    0  0.50693477697E+02 -0.90811890655E+02 -0.23599984409E+01  0.10402979265E+03  0.00000000000E+00 0.  1.
         14    1    6    6    0    0 -0.20424439091E+02 -0.19835267640E+01  0.70801802873E+01  0.21707626391E+02  0.00000000000E+00 0. -1.
         -5    1    3    3    0  503  0.37220918910E+01  0.43673708904E+02 -0.21409879981E+02  0.49007344126E+02  0.47000000000E+01 0.  1.
         11    1    4    4    0    0 -0.22641043576E+02  0.11722629575E+02  0.34676934244E+02  0.43040988220E+02  0.00000000000E+00 0. -1.
        -12    1    4    4    0    0  0.64475735599E+02  0.88112086239E+02  0.16236840781E+03  0.19566389569E+03  0.00000000000E+00 0.  1.
</event>
<event>
12    1  0.1594900E-001  0.1751675E+03  0.7818608E-02  0.1172976E+00
         21   -1    0    0  501  502  0.00000000000E+00  0.00000000000E+00  0.25127626770E+03  0.25127626770E+03  0.00000000000E+00 0. -1.
         21   -1    0    0  502  503 -0.00000000000E+00 -0.00000000000E+00 -0.16505806881E+03  0.16505806881E+03  0.00000000000E+00 0. -1.
         -6    2    1    2    0  503  0.24234119634E+02  0.16842142013E+02 -0.64322566240E+02  0.18660398956E+03  0.17266356330E+03 0.  0.
        -24    2    3    3    0    0  0.78769929508E+02 -0.15722182187E+01 -0.64410860434E+02  0.12885157821E+03  0.79036678832E+02 0.  0.
          6    2    1    2  501    0 -0.24234119634E+02 -0.16842142013E+02  0.15054076513E+03  0.22973034694E+03  0.17100456145E+03 0.  0.
         24    2    5    5    0    0  0.19938813915E+02 -0.12966669586E+02  0.75787338013E+01  0.79975548195E+02  0.75979999228E+02 0.  0.
          5    1    5    5  501    0 -0.44172933550E+02 -0.38754724269E+01  0.14296203133E+03  0.14975479875E+03  0.47000000000E+01 0. -1.
        -11    1    6    6    0    0 -0.19190596096E+02  0.18133753693E+02  0.13479969342E+02  0.29644924944E+02  0.00000000000E+00 0.  1.
         12    1    6    6    0    0  0.39129410011E+02 -0.31100423279E+02 -0.59012355409E+01  0.50330623251E+02  0.00000000000E+00 0. -1.
         -5    1    3    3    0  503 -0.54535809874E+02  0.18414360232E+02  0.88294194460E-01  0.57752411354E+02  0.47000000000E+01 0.  1.
         13    1    4    4    0    0 -0.11183469529E+02  0.12674865334E+02 -0.23654843299E+02  0.29073593060E+02  0.00000000000E+00 0. -1.
        -14    1    4    4    0    0  0.89953399037E+02 -0.14247083553E+02 -0.40756017135E+02  0.99777985151E+02  0.00000000000E+00 0.  1.
</event>
<event>
12    1  0.1594900E-001  0.1807629E+03  0.7818608E-02  0.1167922E+00
         21   -1    0    0  501  502  0.00000000000E+00  0.00000000000E+00  0.26872547073E+02  0.26872547073E+02  0.00000000000E+00 0. -1.
         21   -1    0    0  502  503 -0.00000000000E+00 -0.00000000000E+00 -0.16262385888E+04  0.16262385888E+04  0.00000000000E+00 0. -1.
         -6    2    1    2    0  503 -0.44825990952E+02 -0.38105325844E+01 -0.12323411273E+04  0.12455279538E+04  0.17507524125E+03 0.  0.
        -24    2    3    3    0    0  0.10683798926E+02  0.46441213525E+02 -0.89292748162E+03  0.89792144118E+03  0.81685355012E+02 0.  0.
          6    2    1    2  501    0  0.44825990952E+02  0.38105325844E+01 -0.36702491448E+03  0.40758318210E+03  0.17144349757E+03 0.  0.
         24    2    5    5    0    0  0.87618823603E+02  0.30342185547E+02 -0.29639787817E+03  0.32071878552E+03  0.80069536838E+02 0.  0.
          5    1    5    5  501    0 -0.42792832651E+02 -0.26531652963E+02 -0.70627036310E+02  0.86864396580E+02  0.47000000000E+01 0. -1.
        -13    1    6    6    0    0  0.36262710046E+02  0.52261755454E+02 -0.19292155638E+03  0.20313788947E+03  0.00000000000E+00 0.  1.
         14    1    6    6    0    0  0.51356113557E+02 -0.21919569907E+02 -0.10347632178E+03  0.11758089604E+03  0.00000000000E+00 0. -1.
         -5    1    3    3    0  503 -0.55509789878E+02 -0.50251746110E+02 -0.33941364568E+03  0.34760651264E+03  0.47000000000E+01 0.  1.
         13    1    4    4    0    0 -0.19465140657E+01 -0.23201059557E+02 -0.18322470857E+03  0.18469805605E+03  0.00000000000E+00 0. -1.
        -14    1    4    4    0    0  0.12630312992E+02  0.69642273083E+02 -0.70970277306E+03  0.71322338513E+03  0.00000000000E+00 0.  1.
</event>
<event>
12    1  0.1594900E-001  0.1986142E+03  0.7818608E-02  0.1150970E+00
         21   -1    0    0  501  502  0.00000000000E+00  0.00000000000E+00  0.17694879551E+03  0.17694879551E+03  0.00000000000E+00 0. -1.
         21   -1    0    0  502  503 -0.00000000000E+00 -0.00000000000E+00 -0.22393135457E+03  0.22393135457E+03  0.00000000000E+00 0.  1.
         -6    2    1    2    0  503  0.35737241600E+02  0.91722576621E+02 -0.38757871744E+02  0.20236051718E+03  0.17250340516E+03 0.  0.
        -24    2    3    3    0    0  0.85409216545E+01  0.11935014643E+03 -0.63020498414E+02  0.15638566008E+03  0.78533347458E+02 0.  0.
          6    2    1    2  501    0 -0.35737241600E+02 -0.91722576621E+02 -0.82246873080E+01  0.19851963291E+03  0.17219819299E+03 0.  0.
         24    2    5    5    0    0 -0.86538609474E+02 -0.41675052116E+02  0.16023382295E+01  0.12637953228E+03  0.82118681149E+02 0.  0.
          5    1    5    5  501    0  0.50801367874E+02 -0.50047524505E+02 -0.98270255376E+01  0.72140100623E+02  0.47000000000E+01 0. -1.
        -11    1    6    6    0    0  0.58000984547E+01 -0.19181444897E+02 -0.20645177660E+02  0.28771380416E+02  0.00000000000E+00 0.  1.
         12    1    6    6    0    0 -0.92338707928E+02 -0.22493607219E+02  0.22247515890E+02  0.97608151867E+02  0.00000000000E+00 0. -1.
         -5    1    3    3    0  503  0.27196319945E+02 -0.27627569808E+02  0.24262626670E+02  0.45974857096E+02  0.47000000000E+01 0.  1.
         13    1    4    4    0    0  0.23408526463E+02  0.57530566690E+02  0.61713381514E+01  0.62416429163E+02  0.00000000000E+00 0. -1.
        -14    1    4    4    0    0 -0.14867604809E+02  0.61819579739E+02 -0.69191836566E+02  0.93969230918E+02  0.00000000000E+00 0.  1.
</event>
<event>
12    1  0.1594900E-001  0.2067889E+03  0.7818608E-02  0.1144851E+00
         21   -1    0    0  501  502  0.00000000000E+00  0.00000000000E+00  0.17852112781E+04  0.17852112781E+04  0.00000000000E+00 0.  1.
         21   -1    0    0  502  503 -0.00000000000E+00 -0.00000000000E+00 -0.33660731956E+02  0.33660731956E+02  0.00000000000E+00 0.  1.
         -6    2    1    2    0  503  0.86314791491E+01 -0.10818820833E+03  0.37205338461E+03  0.42396195927E+03  0.17187446308E+03 0.  0.
        -24    2    3    3    0    0  0.17157626308E+02 -0.48202908231E+02  0.75705831258E+02  0.12144767235E+03  0.80001623304E+02 0.  0.
          6    2    1    2  501    0 -0.86314791491E+01  0.10818820833E+03  0.13794971615E+04  0.13949100508E+04  0.17601829518E+03 0.  0.
         24    2    5    5    0    0 -0.33970927610E+02 -0.21271045990E+01  0.43516747953E+03  0.44380953337E+03  0.80234769083E+02 0.  0.
          5    1    5    5  501    0  0.25339448461E+02  0.11031531293E+03  0.94432968198E+03  0.95110051739E+03  0.47000000000E+01 0. -1.
        -13    1    6    6    0    0 -0.19375767996E+02  0.33088478203E+02  0.11158391854E+03  0.11798829880E+03  0.00000000000E+00 0.  1.
         14    1    6    6    0    0 -0.14595159614E+02 -0.35215582802E+02  0.32358356099E+03  0.32582123457E+03  0.00000000000E+00 0. -1.
         -5    1    3    3    0  503 -0.85261471590E+01 -0.59985300095E+02  0.29634755335E+03  0.30251428692E+03  0.47000000000E+01 0.  1.
         13    1    4    4    0    0  0.34194310002E+02  0.55118864116E+01  0.12631994691E+02  0.36867316395E+02  0.00000000000E+00 0. -1.
        -14    1    4    4    0    0 -0.17036683694E+02 -0.53714794643E+02  0.63073836567E+02  0.84580355958E+02  0.00000000000E+00 0.  1.
</event>
<event>
12    1  0.1594900E-001  0.2472521E+03  0.7818608E-02  0.1115521E+00
         21   -1    0    0  501  502  0.00000000000E+00  0.00000000000E+00  0.27176148846E+03  0.27176148846E+03  0.00000000000E+00 0.  1.
         21   -1    0    0  502  503 -0.00000000000E+00 -0.00000000000E+00 -0.27782881480E+03  0.27782881480E+03  0.00000000000E+00 0.  1.
         -6    2    1    2    0  503 -0.47121096610E+02  0.16838416676E+03 -0.12586983889E+03  0.27744693962E+03  0.17481408010E+03 0.  0.
        -24    2    3    3    0    0 -0.90718670552E+02  0.72962304349E+02 -0.67151409422E+02  0.15713058895E+03  0.81408446453E+02 0.  0.
          6    2    1    2  501    0  0.47121096610E+02 -0.16838416676E+03  0.11980251255E+03  0.27214336363E+03  0.17069195351E+03 0.  0.
         24    2    5    5    0    0 -0.27363291620E+02 -0.45589513814E+02  0.22113889353E+02  0.98386038648E+02  0.79772394977E+02 0.  0.
          5    1    5    5  501    0  0.74484388230E+02 -0.12279465295E+03  0.97688623195E+02  0.17375732498E+03  0.47000000000E+01 0. -1.
        -13    1    6    6    0    0  0.76362546074E+01  0.86486023813E+01 -0.18730601480E+02  0.21998775861E+02  0.00000000000E+00 0.  1.
         14    1    6    6    0    0 -0.34999546227E+02 -0.54238116195E+02  0.40844490834E+02  0.76387262786E+02  0.00000000000E+00 0. -1.
         -5    1    3    3    0  503  0.43597573943E+02  0.95421862414E+02 -0.58718429466E+02  0.12031635067E+03  0.47000000000E+01 0.  1.
         11    1    4    4    0    0 -0.11676440278E+02  0.60952889717E+02 -0.27317972047E+02  0.67807563141E+02  0.00000000000E+00 0. -1.
        -12    1    4    4    0    0 -0.79042230275E+02  0.12009414632E+02 -0.39833437375E+02  0.89323025809E+02  0.00000000000E+00 0.  1.
</event>
<event>
12    1  0.1594900E-001  0.2037697E+03  0.7818608E-02  0.1147059E+00
         21   -1    0    0  501  502  0.00000000000E+00  0.00000000000E+00  0.15003343620E+03  0.15003343620E+03  0.00000000000E+00 0.  1.
         21   -1    0    0  502  503 -0.00000000000E+00 -0.00000000000E+00 -0.40981198180E+03  0.40981198180E+03  0.00000000000E+00 0. -1.
         -6    2    1    2    0  503  0.43940118876E+02  0.95676963091E+02 -0.29071498266E+03  0.35374069285E+03  0.17185011295E+03 0.  0.
        -24    2    3    3    0    0  0.65557641425E+01  0.70133496322E+02 -0.28938113792E+03  0.30820029523E+03  0.79273536837E+02 0.  0.
          6    2    1    2  501    0 -0.43940118876E+02 -0.95676963091E+02  0.30936437053E+02  0.20610472516E+03  0.17446283066E+03 0.  0.
         24    2    5    5    0    0  0.60199423799E+01  0.13925439494E+02  0.26549032541E+02  0.85481204681E+02  0.79824981387E+02 0.  0.
          5    1    5    5  501    0 -0.49960061256E+02 -0.10960240259E+03  0.43874045120E+01  0.12062352047E+03  0.47000000000E+01 0. -1.
        -11    1    6    6    0    0 -0.24136320447E+02  0.21479553808E+02  0.40160338898E+02  0.51544020186E+02  0.00000000000E+00 0.  1.
         12    1    6    6    0    0  0.30156262827E+02 -0.75541143138E+01 -0.13611306356E+02  0.33937184495E+02  0.00000000000E+00 0. -1.
         -5    1    3    3    0  503  0.37384354734E+02  0.25543466769E+02 -0.13338447327E+01  0.45540397618E+02  0.47000000000E+01 0.  1.
         13    1    4    4    0    0  0.32399158994E+02  0.61579682422E+02 -0.25513117332E+03  0.26444976535E+03  0.00000000000E+00 0. -1.
        -14    1    4    4    0    0 -0.25843394852E+02  0.85538138999E+01 -0.34249964600E+02  0.43750529880E+02  0.00000000000E+00 0.  1.
</event>
<event>
12    1  0.1594900E-001  0.2025573E+03  0.7818608E-02  0.1147701E+00
         21   -1    0    0  501  502  0.00000000000E+00  0.00000000000E+00  0.42065410253E+03  0.42065410253E+03  0.00000000000E+00 0.  1.
         21   -1    0    0  502  503 -0.00000000000E+00 -0.00000000000E+00 -0.23660506061E+03  0.23660506061E+03  0.00000000000E+00 0. -1.
         -6    2    1    2    0  503  0.49641204865E+02 -0.93759185701E+02 -0.16008910454E+03  0.25818203446E+03  0.17255262212E+03 0.  0.
        -24    2    3    3    0    0  0.13144396343E+02 -0.11445178582E+03 -0.16414909131E+03  0.21577007595E+03  0.79622955663E+02 0.  0.
          6    2    1    2  501    0 -0.49641204865E+02  0.93759185701E+02  0.34413814647E+03  0.39907712868E+03  0.17197807027E+03 0.  0.
         24    2    5    5    0    0 -0.47416551177E+02  0.19460404977E+01  0.25396017038E+03  0.27027976811E+03  0.79393126365E+02 0.  0.
          5    1    5    5  501    0 -0.22246536874E+01  0.91813145203E+02  0.90177976095E+02  0.12879736057E+03  0.47000000000E+01 0. -1.
        -11    1    6    6    0    0 -0.67775217645E+02  0.13145819725E+02  0.18159712275E+03  0.19427765618E+03  0.00000000000E+00 0.  1.
         12    1    6    6    0    0  0.20358666468E+02 -0.11199779227E+02  0.72363047630E+02  0.76002111927E+02  0.00000000000E+00 0. -1.
         -5    1    3    3    0  503  0.36496808522E+02  0.20692600118E+02  0.40599867632E+01  0.42411958507E+02  0.47000000000E+01 0.  1.
         13    1    4    4    0    0  0.30132653945E+02 -0.99352581921E+02 -0.87353798903E+02  0.13568197578E+03  0.00000000000E+00 0. -1.
        -14    1    4    4    0    0 -0.16988257602E+02 -0.15099203898E+02 -0.76795292403E+02  0.80088100177E+02  0.00000000000E+00 0.  1.
</event>
<event>
12    1  0.1594900E-001  0.2074685E+03  0.7818608E-02  0.1143729E+00
         21   -1    0    0  501  502  0.00000000000E+00  0.00000000000E+00  0.36243359631E+03  0.36243359631E+03  0.00000000000E+00 0.  1.
         21   -1    0    0  502  503 -0.00000000000E+00 -0.00000000000E+00 -0.15006470578E+03  0.15006470578E+03  0.00000000000E+00 0. -1.
         -6    2    1    2    0  503  0.60366988045E+02  0.98434559674E+02 -0.11463300956E+02  0.20778492185E+03  0.17236481861E+03 0.  0.
        -24    2    3    3    0    0 -0.25920057606E+02  0.95252399041E+01 -0.63905975606E+01  0.83695664823E+02  0.78749888834E+02 0.  0.
          6    2    1    2  501    0 -0.60366988045E+02 -0.98434559674E+02  0.22383219149E+03  0.30471338024E+03  0.17151051970E+03 0.  0.
         24    2    5    5    0    0  0.32204348219E+02 -0.51748587719E+02  0.13738453911E+03  0.16964184780E+03  0.78668980942E+02 0.  0.
          5    1    5    5  501    0 -0.92571336263E+02 -0.46685971955E+02  0.86447652378E+02  0.13507153244E+03  0.47000000000E+01 0. -1.
        -11    1    6    6    0    0 -0.16251765148E+02 -0.44798404771E+02  0.88186305443E+02  0.10023892162E+03  0.00000000000E+00 0.  1.
         12    1    6    6    0    0  0.48456113366E+02 -0.69501829488E+01  0.49198233667E+02  0.69402926174E+02  0.00000000000E+00 0. -1.
         -5    1    3    3    0  503  0.86287045651E+02  0.88909319770E+02 -0.50727033958E+01  0.12408925702E+03  0.47000000000E+01 0.  1.
         13    1    4    4    0    0  0.67666590470E+01 -0.23820110703E+02  0.18379726612E+02  0.30838283008E+02  0.00000000000E+00 0. -1.
        -14    1    4    4    0    0 -0.32686716653E+02  0.33345350607E+02 -0.24770324173E+02  0.52857381815E+02  0.00000000000E+00 0.  1.
</event>
<event>
12    1  0.1594900E-001  0.1782225E+03  0.7818608E-02  0.1169840E+00
         21   -1    0    0  503  502  0.00000000000E+00  0.00000000000E+00  0.93252322651E+03  0.93252322651E+03  0.00000000000E+00 0. -1.
         21   -1    0    0  501  503 -0.00000000000E+00 -0.00000000000E+00 -0.11797538633E+03  0.11797538633E+03  0.00000000000E+00 0. -1.
          6    2    1    2  501    0  0.36215610329E+02  0.30087323468E+02 -0.35924505827E+02  0.18180708476E+03  0.17189074578E+03 0.  0.
         24    2    3    3    0    0  0.90690462241E+02  0.19199840310E+02 -0.13924347792E+02  0.12187258940E+03  0.77882262270E+02 0.  0.
         -6    2    1    2    0  502 -0.36215610329E+02 -0.30087323468E+02  0.85047234602E+03  0.86869152808E+03  0.17060170619E+03 0.  0.
        -24    2    5    5    0    0  0.10828099884E+02 -0.62197832193E+02  0.70603400935E+03  0.71335731247E+03  0.80055073626E+02 0.  0.
          5    1    3    3  501    0 -0.54474851912E+02  0.10887483158E+02 -0.22000158035E+02  0.59934495359E+02  0.47000000000E+01 0. -1.
        -11    1    4    4    0    0  0.25744782114E+01 -0.41042541023E+01  0.23019967863E+02  0.23524280228E+02  0.00000000000E+00 0.  1.
         12    1    4    4    0    0  0.88115984030E+02  0.23304094412E+02 -0.36944315656E+02  0.98348309173E+02  0.00000000000E+00 0. -1.
         -5    1    5    5    0  502 -0.47043710213E+02  0.32110508725E+02  0.14443833667E+03  0.15533421561E+03  0.47000000000E+01 0.  1.
         11    1    6    6    0    0  0.13687099647E+00  0.19270469581E+02  0.10812698125E+03  0.10983084178E+03  0.00000000000E+00 0. -1.
        -12    1    6    6    0    0  0.10691228888E+02 -0.81468301774E+02  0.59790702810E+03  0.60352647069E+03  0.00000000000E+00 0.  1.
</event>
<event>
12    1  0.1594900E-001  0.2546194E+03  0.7818608E-02  0.1110457E+00
         21   -1    0    0  503  502  0.00000000000E+00  0.00000000000E+00  0.10503755307E+03  0.10503755307E+03  0.00000000000E+00 0.  1.
         21   -1    0    0  501  503 -0.00000000000E+00 -0.00000000000E+00 -0.14371527094E+04  0.14371527094E+04  0.00000000000E+00 0.  1.
          6    2    1    2  501    0 -0.24372648584E+02  0.18638623112E+03 -0.12488376820E+04  0.12745299445E+04  0.17174740277E+03 0.  0.
         24    2    3    3    0    0  0.50401505644E+02  0.80089068821E+02 -0.55619243132E+03  0.56978190859E+03  0.79667006922E+02 0.  0.
         -6    2    1    2    0  502  0.24372648584E+02 -0.18638623112E+03 -0.83277474359E+02  0.26766031797E+03  0.17138569057E+03 0.  0.
        -24    2    5    5    0    0  0.69213173442E+02 -0.76544593554E+02 -0.15681171632E+02  0.13103232613E+03  0.79208794760E+02 0.  0.
          5    1    3    3  501    0 -0.74774154228E+02  0.10629716230E+03 -0.69264525066E+03  0.70474803591E+03  0.47000000000E+01 0. -1.
        -13    1    4    4    0    0  0.35487238000E+02  0.95228063910E+02 -0.48251334459E+03  0.49309923537E+03  0.00000000000E+00 0.  1.
         14    1    4    4    0    0  0.14914267644E+02 -0.15138995089E+02 -0.73679086724E+02  0.76682673220E+02  0.00000000000E+00 0. -1.
         -5    1    5    5    0  502 -0.44840524858E+02 -0.10984163756E+03 -0.67596302727E+02  0.13662799184E+03  0.47000000000E+01 0.  1.
         13    1    6    6    0    0 -0.44126363009E+01 -0.42482878533E+02  0.13540932598E+02  0.44806508269E+02  0.00000000000E+00 0. -1.
        -14    1    6    6    0    0  0.73625809743E+02 -0.34061715021E+02 -0.29222104230E+02  0.86225817862E+02  0.00000000000E+00 0.  1.
</event>
<event>
12    1  0.1594900E-001  0.2185136E+03  0.7818608E-02  0.1135111E+00
         21   -1    0    0  501  502  0.00000000000E+00  0.00000000000E+00  0.89564986057E+02  0.89564986057E+02  0.00000000000E+00 0. -1.
         21   -1    0    0  502  503 -0.00000000000E+00 -0.00000000000E+00 -0.68669733797E+03  0.68669733797E+03  0.00000000000E+00 0. -1.
         -6    2    1    2    0  503  0.13317349048E+03  0.11416564154E+02 -0.48333480349E+03  0.53043445120E+03  0.17286601243E+03 0.  0.
        -24    2    3    3    0    0  0.35963130474E+02 -0.37142453862E+02 -0.32492472586E+03  0.33827911035E+03  0.78636953085E+02 0.  0.
          6    2    1    2  501    0 -0.13317349048E+03 -0.11416564154E+02 -0.11379754842E+03  0.24582787282E+03  0.17209283694E+03 0.  0.
         24    2    5    5    0    0 -0.16261488675E+02  0.14311062273E+02 -0.91891321277E+02  0.12403994355E+03  0.80452782130E+02 0.  0.
          5    1    5    5  501    0 -0.11691200181E+03 -0.25727626427E+02 -0.21906227145E+02  0.12178792927E+03  0.47000000000E+01 0. -1.
        -13    1    6    6    0    0  0.24459668173E+02 -0.16466193850E+02 -0.19085978159E+02  0.35123858975E+02  0.00000000000E+00 0.  1.
         14    1    6    6    0    0 -0.40721156848E+02  0.30777256123E+02 -0.72805343118E+02  0.88916084574E+02  0.00000000000E+00 0. -1.
         -5    1    3    3    0  503  0.97210360011E+02  0.48559018017E+02 -0.15841007763E+03  0.19215534085E+03  0.47000000000E+01 0.  1.
         13    1    4    4    0    0  0.56450433913E+02 -0.70238180380E+01 -0.17602713096E+03  0.18499063852E+03  0.00000000000E+00 0. -1.
        -14    1    4    4    0    0 -0.20487303439E+02 -0.30118635824E+02 -0.14889759491E+03  0.15328847183E+03  0.00000000000E+00 0.  1.
</event>
<event>
12    1  0.1594900E-001  0.4025027E+03  0.7818608E-02  0.1043013E+00
         21   -1    0    0  503  502  0.00000000000E+00  0.00000000000E+00  0.10944151709E+03  0.10944151709E+03  0.00000000000E+00 0.  1.
         21   -1    0    0  501  503 -0.00000000000E+00 -0.00000000000E+00 -0.27589068847E+04  0.27589068847E+04  0.00000000000E+00 0.  1.
          6    2    1    2  501    0  0.35233550259E+03 -0.89624346312E+02 -0.23036320879E+04  0.23385314159E+04  0.17272972188E+03 0.  0.
         24    2    3    3    0    0  0.19394407743E+03 -0.87725527836E+02 -0.16702865842E+04  0.16856607808E+04  0.79277494984E+02 0.  0.
         -6    2    1    2    0  502 -0.35233550259E+03  0.89624346312E+02 -0.34583327971E+03  0.52981698591E+03  0.17009571239E+03 0.  0.
        -24    2    5    5    0    0 -0.22195145113E+03  0.34442204180E+02 -0.29345725751E+03  0.37878583884E+03  0.83143476192E+02 0.  0.
          5    1    3    3  501    0  0.15839142516E+03 -0.18988184766E+01 -0.63334550370E+03  0.65287063507E+03  0.47000000000E+01 0. -1.
        -11    1    4    4    0    0  0.11012214122E+03 -0.27641918362E+02 -0.61890742463E+03  0.62923553770E+03  0.00000000000E+00 0.  1.
         12    1    4    4    0    0  0.83821936206E+02 -0.60083609474E+02 -0.10513791595E+04  0.10564252431E+04  0.00000000000E+00 0. -1.
         -5    1    5    5    0  502 -0.13038405146E+03  0.55182142132E+02 -0.52376022194E+02  0.15103114707E+03  0.47000000000E+01 0.  1.
         13    1    6    6    0    0 -0.12717438928E+03  0.48320514965E+02 -0.21747186353E+03  0.25651941229E+03  0.00000000000E+00 0. -1.
        -14    1    6    6    0    0 -0.94777061846E+02 -0.13878310785E+02 -0.75985393983E+02  0.12226642655E+03  0.00000000000E+00 0.  1.
</event>
<event>
12    1  0.1594900E-001  0.2696638E+03  0.7818608E-02  0.1101594E+00
         21   -1    0    0  501  502  0.00000000000E+00  0.00000000000E+00  0.45758678034E+03  0.45758678034E+03  0.00000000000E+00 0. -1.
         21   -1    0    0  502  503 -0.00000000000E+00 -0.00000000000E+00 -0.16844046237E+03  0.16844046237E+03  0.00000000000E+00 0. -1.
         -6    2    1    2    0  503 -0.44406170355E+02  0.20160678500E+03  0.68013212853E+02  0.27728890753E+03  0.17218053721E+03 0.  0.
        -24    2    3    3    0    0  0.31462377231E+01  0.20554571960E+03  0.61567786939E+02  0.22891143100E+03  0.79692591870E+02 0.  0.
          6    2    1    2  501    0  0.44406170355E+02 -0.20160678500E+03  0.22113310512E+03  0.34873833518E+03  0.17349747124E+03 0.  0.
         24    2    5    5    0    0  0.58113307251E+02 -0.10944529079E+03  0.54944068917E+02  0.15815367587E+03  0.81475802078E+02 0.  0.
          5    1    5    5  501    0 -0.13707136895E+02 -0.92161494203E+02  0.16618903620E+03  0.19058465932E+03  0.47000000000E+01 0. -1.
        -11    1    6    6    0    0 -0.11739948882E+02  0.53816949954E+01 -0.97230421365E-01  0.12915049149E+02  0.00000000000E+00 0.  1.
         12    1    6    6    0    0  0.69853256133E+02 -0.11482698579E+03  0.55041299339E+02  0.14523862672E+03  0.00000000000E+00 0. -1.
         -5    1    3    3    0  503 -0.47552408079E+02 -0.39389346012E+01  0.64454259132E+01  0.48377476526E+02  0.47000000000E+01 0.  1.
         13    1    4    4    0    0 -0.25076862089E+02  0.50759946664E+02 -0.74444675413E+01  0.57103776535E+02  0.00000000000E+00 0. -1.
        -14    1    4    4    0    0  0.28223099812E+02  0.15478577293E+03  0.69012254481E+02  0.17180765447E+03  0.00000000000E+00 0.  1.
</event>
<event>
12    1  0.1594900E-001  0.1761101E+03  0.7818608E-02  0.1171950E+00
         21   -1    0    0  503  502  0.00000000000E+00  0.00000000000E+00  0.20484947369E+03  0.20484947369E+03  0.00000000000E+00 0. -1.
         21   -1    0    0  501  503 -0.00000000000E+00 -0.00000000000E+00 -0.22612476966E+03  0.22612476966E+03  0.00000000000E+00 0. -1.
          6    2    1    2  501    0 -0.40504428846E+00 -0.32644746855E+02 -0.13546498466E+03  0.22218353925E+03  0.17305756120E+03 0.  0.
         24    2    3    3    0    0  0.88077881763E-01  0.48540003519E+02 -0.56833739914E+02  0.10906338405E+03  0.79426746431E+02 0.  0.
         -6    2    1    2    0  502  0.40504428846E+00  0.32644746855E+02  0.11418968868E+03  0.20879070410E+03  0.17172195421E+03 0.  0.
        -24    2    5    5    0    0  0.65040403996E+02  0.17867561524E+02  0.90674147340E+02  0.13828421067E+03  0.79694529411E+02 0.  0.
          5    1    3    3  501    0 -0.49312217022E+00 -0.81184750374E+02 -0.78631244747E+02  0.11312015520E+03  0.47000000000E+01 0. -1.
        -11    1    4    4    0    0  0.29341888303E+02  0.46705765419E+02 -0.57588849551E+02  0.79742401049E+02  0.00000000000E+00 0.  1.
         12    1    4    4    0    0 -0.29253810421E+02  0.18342381002E+01  0.75510963728E+00  0.29320983001E+02  0.00000000000E+00 0. -1.
         -5    1    5    5    0  502 -0.64635359708E+02  0.14777185331E+02  0.23515541344E+02  0.70506493428E+02  0.47000000000E+01 0.  1.
         11    1    6    6    0    0  0.10822039771E+02  0.41976177590E+02  0.50863500263E+02  0.66829721598E+02  0.00000000000E+00 0. -1.
        -12    1    6    6    0    0  0.54218364225E+02 -0.24108616066E+02  0.39810647077E+02  0.71454489072E+02  0.00000000000E+00 0.  1.
</event>
<event>
12    1  0.1594900E-001  0.1754749E+03  0.7818608E-02  0.1172687E+00
         21   -1    0    0  503  502  0.00000000000E+00  0.00000000000E+00  0.75451936733E+02  0.75451936733E+02  0.00000000000E+00 0.  1.
         21   -1    0    0  501  503 -0.00000000000E+00 -0.00000000000E+00 -0.47472633973E+03  0.47472633973E+03  0.00000000000E+00 0.  1.
          6    2    1    2  501    0 -0.26156821634E+02  0.31833639169E+01 -0.30489381913E+03  0.35093185468E+03  0.17175160133E+03 0.  0.
         24    2    3    3    0    0 -0.16558029465E+02  0.67510968498E+02 -0.16138331778E+03  0.19330085671E+03  0.80552757492E+02 0.  0.
         -6    2    1    2    0  502  0.26156821634E+02 -0.31833639169E+01 -0.94380583864E+02  0.19924642178E+03  0.17348524104E+03 0.  0.
        -24    2    5    5    0    0 -0.39241401073E+02 -0.41308260588E+02 -0.39236068775E+02  0.10547306297E+03  0.79616819628E+02 0.  0.
          5    1    3    3  501    0 -0.95987921691E+01 -0.64327604582E+02 -0.14351050135E+03  0.15763099797E+03  0.47000000000E+01 0. -1.
        -11    1    4    4    0    0 -0.48051483878E+02  0.36540874036E+02 -0.74970056875E+02  0.96253259717E+02  0.00000000000E+00 0.  1.
         12    1    4    4    0    0  0.31493454413E+02  0.30970094462E+02 -0.86413260905E+02  0.97047596993E+02  0.00000000000E+00 0. -1.
         -5    1    5    5    0  502  0.65398222707E+02  0.38124896671E+02 -0.55144515089E+02  0.93773358817E+02  0.47000000000E+01 0.  1.
         11    1    6    6    0    0 -0.28294672518E+02 -0.37069096859E+02 -0.63344261973E+02  0.78658769122E+02  0.00000000000E+00 0. -1.
        -12    1    6    6    0    0 -0.10946728555E+02 -0.42391637281E+01  0.24108193197E+02  0.26814293845E+02  0.00000000000E+00 0.  1.
</event>
<event>
12    1  0.1594900E-001  0.1934913E+03  0.7818608E-02  0.1155675E+00
         21   -1    0    0  501  502  0.00000000000E+00  0.00000000000E+00  0.26109892212E+03  0.26109892212E+03  0.00000000000E+00 0.  1.
         21   -1    0    0  502  503 -0.00000000000E+00 -0.00000000000E+00 -0.23994025532E+03  0.23994025532E+03  0.00000000000E+00 0. -1.
         -6    2    1    2    0  503 -0.71450050093E+02 -0.48158704812E+02 -0.14925383885E+03  0.24320335052E+03  0.17160067245E+03 0.  0.
        -24    2    3    3    0    0  0.40717671997E+00  0.27772543736E+02 -0.90014769322E+02  0.12295205984E+03  0.79013102361E+02 0.  0.
          6    2    1    2  501    0  0.71450050093E+02  0.48158704812E+02  0.17041250566E+03  0.25783582692E+03  0.17324699435E+03 0.  0.
         24    2    5    5    0    0  0.10445295636E+03 -0.59433955566E+01  0.10177623778E+03  0.16429836728E+03  0.75430808507E+02 0.  0.
          5    1    5    5  501    0 -0.33002906271E+02  0.54102100369E+02  0.68636267882E+02  0.93537459637E+02  0.47000000000E+01 0. -1.
        -13    1    6    6    0    0  0.37626501527E+02 -0.17234423767E+02  0.84908000519E+02  0.94457120070E+02  0.00000000000E+00 0.  1.
         14    1    6    6    0    0  0.66826454837E+02  0.11291028211E+02  0.16868237257E+02  0.69841247213E+02  0.00000000000E+00 0. -1.
         -5    1    3    3    0  503 -0.71857226813E+02 -0.75931248548E+02 -0.59239069528E+02  0.12025129068E+03  0.47000000000E+01 0.  1.
         11    1    4    4    0    0 -0.20031377715E+02  0.43701131455E+01 -0.89560943244E+02  0.91877726010E+02  0.00000000000E+00 0. -1.
        -12    1    4    4    0    0  0.20438554435E+02  0.23402430590E+02 -0.45382607788E+00  0.31074333831E+02  0.00000000000E+00 0.  1.
</event>
<event>
12    1  0.1594900E-001  0.2620788E+03  0.7818608E-02  0.1106034E+00
         21   -1    0    0  501  502  0.00000000000E+00  0.00000000000E+00  0.92049071910E+02  0.92049071910E+02  0.00000000000E+00 0. -1.
         21   -1    0    0  502  503 -0.00000000000E+00 -0.00000000000E+00 -0.14625623616E+04  0.14625623616E+04  0.00000000000E+00 0. -1.
         -6    2    1    2    0  503 -0.77832849920E+02 -0.18085930680E+03 -0.12296349333E+04  0.12570681690E+04  0.17161081210E+03 0.  0.
        -24    2    3    3    0    0 -0.11030002171E+03 -0.10715526329E+03 -0.70245526131E+03  0.72375128395E+03  0.82001107533E+02 0.  0.
          6    2    1    2  501    0  0.77832849920E+02  0.18085930680E+03 -0.14087835635E+03  0.29754326451E+03  0.17296601281E+03 0.  0.
         24    2    5    5    0    0  0.25021457263E+02  0.26540866877E+02 -0.88460347501E+02  0.12615784581E+03  0.82219693750E+02 0.  0.
          5    1    5    5  501    0  0.52811392657E+02  0.15431843992E+03 -0.52418008848E+02  0.17138541871E+03  0.47000000000E+01 0. -1.
        -13    1    6    6    0    0 -0.28067321144E+02  0.23763751793E+02 -0.35248933783E+02  0.50940924101E+02  0.00000000000E+00 0.  1.
         14    1    6    6    0    0  0.53088778407E+02  0.27771150842E+01 -0.53211413718E+02  0.75216921705E+02  0.00000000000E+00 0. -1.
         -5    1    3    3    0  503  0.32467171790E+02 -0.73704043508E+02 -0.52717967203E+03  0.53331688505E+03  0.47000000000E+01 0.  1.
         13    1    4    4    0    0 -0.15770332451E+02 -0.70826681651E+02 -0.26800044077E+03  0.27764970462E+03  0.00000000000E+00 0. -1.
        -14    1    4    4    0    0 -0.94529689260E+02 -0.36328581639E+02 -0.43445482054E+03  0.44610157933E+03  0.00000000000E+00 0.  1.
</event>
<event>
12    1  0.1594900E-001  0.1871161E+03  0.7818608E-02  0.1161295E+00
         21   -1    0    0  503  502  0.00000000000E+00  0.00000000000E+00  0.41775225484E+03  0.41775225484E+03  0.00000000000E+00 0. -1.
         21   -1    0    0  501  503 -0.00000000000E+00 -0.00000000000E+00 -0.87476228127E+02  0.87476228127E+02  0.00000000000E+00 0.  1.
          6    2    1    2  501    0  0.59415158070E+02 -0.42981179194E+02  0.11029719532E+03  0.21643248358E+03  0.17117244486E+03 0.  0.
         24    2    3    3    0    0  0.77528716229E+02 -0.74215087088E+02  0.35344130696E+02  0.13310355770E+03  0.70347484012E+02 0.  0.
         -6    2    1    2    0  502 -0.59415158070E+02  0.42981179194E+02  0.21997883139E+03  0.28879599938E+03  0.17214790218E+03 0.  0.
        -24    2    5    5    0    0 -0.68092760729E+02 -0.33497680121E+02  0.13433118676E+03  0.17354876193E+03  0.79470663731E+02 0.  0.
          5    1    3    3  501    0 -0.18113558159E+02  0.31233907894E+02  0.74953064628E+02  0.83328925882E+02  0.47000000000E+01 0. -1.
        -11    1    4    4    0    0  0.18386835017E+02  0.45813680232E+01 -0.13374749961E+02  0.23193718362E+02  0.00000000000E+00 0.  1.
         12    1    4    4    0    0  0.59141881211E+02 -0.78796455111E+02  0.48718880658E+02  0.10990983934E+03  0.00000000000E+00 0. -1.
         -5    1    5    5    0  502  0.86776026588E+01  0.76478859314E+02  0.85647644631E+02  0.11524723745E+03  0.47000000000E+01 0.  1.
         11    1    6    6    0    0 -0.78184315706E+02 -0.42457861503E+02  0.13296445637E+03  0.15998438637E+03  0.00000000000E+00 0. -1.
        -12    1    6    6    0    0  0.10091554977E+02  0.89601813824E+01  0.13667303910E+01  0.13564375556E+02  0.00000000000E+00 0.  1.
</event>
<event>
12    1  0.1594900E-001  0.2249248E+03  0.7818608E-02  0.1131017E+00
         21   -1    0    0  503  502  0.00000000000E+00  0.00000000000E+00  0.19767719581E+03  0.19767719581E+03  0.00000000000E+00 0. -1.
         21   -1    0    0  501  503 -0.00000000000E+00 -0.00000000000E+00 -0.26579181957E+03  0.26579181957E+03  0.00000000000E+00 0.  1.
          6    2    1    2  501    0 -0.12770707985E+03  0.47530354585E+02 -0.87934495558E+02  0.23767267668E+03  0.17374577083E+03 0.  0.
         24    2    3    3    0    0 -0.10027794133E+03  0.91806495182E+02 -0.32042966981E+02  0.16113061483E+03  0.80325744486E+02 0.  0.
         -6    2    1    2    0  502  0.12770707985E+03 -0.47530354585E+02  0.19819871797E+02  0.22579633870E+03  0.17894950797E+03 0.  0.
        -24    2    5    5    0    0  0.18277765400E+02 -0.74685110338E+02  0.23294154185E+02  0.11289675386E+03  0.79316561941E+02 0.  0.
          5    1    3    3  501    0 -0.27429138515E+02 -0.44276140597E+02 -0.55891528577E+02  0.76542061852E+02  0.47000000000E+01 0. -1.
        -13    1    4    4    0    0 -0.53210343781E+02  0.31517494929E+02 -0.53411275194E+02  0.81715711401E+02  0.00000000000E+00 0.  1.
         14    1    4    4    0    0 -0.47067597549E+02  0.60289000253E+02  0.21368308213E+02  0.79414903428E+02  0.00000000000E+00 0. -1.
         -5    1    5    5    0  502  0.10942931445E+03  0.27154755753E+02 -0.34742823884E+01  0.11289958484E+03  0.47000000000E+01 0.  1.
         13    1    6    6    0    0 -0.28349411054E+02 -0.11244594003E+02  0.14196982859E+02  0.33640516103E+02  0.00000000000E+00 0. -1.
        -14    1    6    6    0    0  0.46627176453E+02 -0.63440516335E+02  0.90971713256E+01  0.79256237755E+02  0.00000000000E+00 0.  1.
</event>
<event>
12    1  0.1594900E-001  0.3106790E+03  0.7818608E-02  0.1080046E+00
         21   -1    0    0  501  502  0.00000000000E+00  0.00000000000E+00  0.46360930510E+03  0.46360930510E+03  0.00000000000E+00 0.  1.
         21   -1    0    0  502  503 -0.00000000000E+00 -0.00000000000E+00 -0.22450812538E+03  0.22450812538E+03  0.00000000000E+00 0.  1.
         -6    2    1    2    0  503 -0.16884268302E+03  0.19560964940E+03  0.26368228545E+02  0.31158485501E+03  0.17210128368E+03 0.  0.
        -24    2    3    3    0    0 -0.45277754195E+02  0.13744432047E+03  0.50847481951E+02  0.17275826903E+03  0.79491740738E+02 0.  0.
          6    2    1    2  501    0  0.16884268302E+03 -0.19560964940E+03  0.21273295117E+03  0.37653257547E+03  0.17248328999E+03 0.  0.
         24    2    5    5    0    0  0.32737899394E+02 -0.13260589607E+03  0.84530456159E+02  0.17917007957E+03  0.79375220734E+02 0.  0.
          5    1    5    5  501    0  0.13610478362E+03 -0.63003753337E+02  0.12820249501E+03  0.19736249590E+03  0.47000000000E+01 0. -1.
        -11    1    6    6    0    0  0.67395922101E+01 -0.75770236402E+02  0.25885713459E+01  0.76113412282E+02  0.00000000000E+00 0.  1.
         12    1    6    6    0    0  0.25998307184E+02 -0.56835659664E+02  0.81941884813E+02  0.10305666729E+03  0.00000000000E+00 0. -1.
         -5    1    3    3    0  503 -0.12356492882E+03  0.58165328936E+02 -0.24479253407E+02  0.13882658597E+03  0.47000000000E+01 0.  1.
         11    1    4    4    0    0 -0.27651548771E+02  0.46024478850E+01  0.22117956116E+02  0.35707067349E+02  0.00000000000E+00 0. -1.
        -12    1    4    4    0    0 -0.17626205424E+02  0.13284187258E+03  0.28729525836E+02  0.13705120168E+03  0.00000000000E+00 0.  1.
</event>
<event>
12    1  0.1594900E-001  0.1866783E+03  0.7818608E-02  0.1161565E+00
         21   -1    0    0  501  502  0.00000000000E+00  0.00000000000E+00  0.16009266993E+03  0.16009266993E+03  0.00000000000E+00 0. -1.
         21   -1    0    0  502  503 -0.00000000000E+00 -0.00000000000E+00 -0.66321095185E+03  0.66321095185E+03  0.00000000000E+00 0. -1.
         -6    2    1    2    0  503 -0.10604874161E+00  0.71104834651E+02 -0.58916773882E+03  0.61803512157E+03  0.17260613624E+03 0.  0.
        -24    2    3    3    0    0  0.12651453346E+02 -0.15252595686E+02 -0.17955459280E+03  0.19919699170E+03  0.83945748921E+02 0.  0.
          6    2    1    2  501    0  0.10604874161E+00 -0.71104834651E+02  0.86049456901E+02  0.20526850021E+03  0.17226357533E+03 0.  0.
         24    2    5    5    0    0  0.55498750616E+02 -0.78717919163E+02  0.79584517010E+02  0.14878668079E+03  0.80790834351E+02 0.  0.
          5    1    5    5  501    0 -0.55392701875E+02  0.76130845128E+01  0.64649398905E+01  0.56481819416E+02  0.47000000000E+01 0. -1.
        -11    1    6    6    0    0 -0.62685262899E+01 -0.44324768562E+02  0.34632940519E+01  0.44899598390E+02  0.00000000000E+00 0.  1.
         12    1    6    6    0    0  0.61767276906E+02 -0.34393150601E+02  0.76121222959E+02  0.10388708240E+03  0.00000000000E+00 0. -1.
         -5    1    3    3    0  503 -0.12757502088E+02  0.86357430337E+02 -0.40961314603E+03  0.41883812987E+03  0.47000000000E+01 0.  1.
         11    1    4    4    0    0  0.12037123864E+02  0.31870454670E+02 -0.43763241214E+02  0.55460251652E+02  0.00000000000E+00 0. -1.
        -12    1    4    4    0    0  0.61432948201E+00 -0.47123050356E+02 -0.13579135158E+03  0.14373674005E+03  0.00000000000E+00 0.  1.
</event>
<event>
12    1  0.1594900E-001  0.2801488E+03  0.7818608E-02  0.1095841E+00
         21   -1    0    0  501  502  0.00000000000E+00  0.00000000000E+00  0.12609355958E+03  0.12609355958E+03  0.00000000000E+00 0.  1.
         21   -1    0    0  502  503 -0.00000000000E+00 -0.00000000000E+00 -0.62683289891E+03  0.62683289891E+03  0.00000000000E+00 0. -1.
         -6    2    1    2    0  503 -0.49440544433E+02  0.21321383139E+03 -0.20659230367E+03  0.34671735695E+03  0.17212797665E+03 0.  0.
        -24    2    3    3    0    0 -0.16319413575E+01  0.11242125022E+03 -0.18846409158E+03  0.23360003281E+03  0.80056609862E+02 0.  0.
          6    2    1    2  501    0  0.49440544433E+02 -0.21321383139E+03 -0.29414703566E+03  0.40620910154E+03  0.17486809387E+03 0.  0.
         24    2    5    5    0    0 -0.38220039100E+02 -0.10245666605E+03 -0.11791422004E+03  0.18030730234E+03  0.81540297901E+02 0.  0.
          5    1    5    5  501    0  0.87660583533E+02 -0.11075716534E+03 -0.17623281562E+03  0.22590179920E+03  0.47000000000E+01 0. -1.
        -13    1    6    6    0    0 -0.46053484099E+02 -0.53760482118E+02 -0.10932565875E+03  0.13024289807E+03  0.00000000000E+00 0.  1.
         14    1    6    6    0    0  0.78334449989E+01 -0.48696183933E+02 -0.85885612897E+01  0.50064404273E+02  0.00000000000E+00 0. -1.
         -5    1    3    3    0  503 -0.47808603075E+02  0.10079258117E+03 -0.18128212092E+02  0.11311732414E+03  0.47000000000E+01 0.  1.
         11    1    4    4    0    0  0.15998538231E+02  0.91535046109E+02 -0.82808571852E+02  0.12446637081E+03  0.00000000000E+00 0. -1.
        -12    1    4    4    0    0 -0.17630479588E+02  0.20886204111E+02 -0.10565551973E+03  0.10913366200E+03  0.00000000000E+00 0.  1.
</event>
<event>
12    1  0.1594900E-001  0.1805651E+03  0.7818608E-02  0.1167467E+00
         21   -1    0    0  503  502  0.00000000000E+00  0.00000000000E+00  0.30894128675E+03  0.30894128675E+03  0.00000000000E+00 0. -1.
         21   -1    0    0  501  503 -0.00000000000E+00 -0.00000000000E+00 -0.10507981490E+03  0.10507981490E+03  0.00000000000E+00 0. -1.
          6    2    1    2  501    0  0.47994046945E+02 -0.23624745242E+02  0.10628451949E+03  0.20877734673E+03  0.17155181228E+03 0.  0.
         24    2    3    3    0    0  0.65584312531E+02 -0.17968997518E+02  0.13661198071E+03  0.17295487014E+03  0.81402499397E+02 0.  0.
         -6    2    1    2    0  502 -0.47994046945E+02  0.23624745242E+02  0.97576952360E+02  0.20524375492E+03  0.17245921306E+03 0.  0.
        -24    2    5    5    0    0 -0.61188214159E+02 -0.13457048264E+02  0.26780015447E+02  0.12410534395E+03  0.10372982922E+03 0.  0.
          5    1    3    3  501    0 -0.17590265586E+02 -0.56557477246E+01 -0.30327461217E+02  0.35822476598E+02  0.47000000000E+01 0. -1.
        -13    1    4    4    0    0  0.12040142799E+01  0.20477953288E+02  0.69010380130E+02  0.71994644154E+02  0.00000000000E+00 0.  1.
         14    1    4    4    0    0  0.64380298251E+02 -0.38446950805E+02  0.67601600581E+02  0.10096022598E+03  0.00000000000E+00 0. -1.
         -5    1    5    5    0  502  0.13194167215E+02  0.37081793506E+02  0.70796936913E+02  0.81138410968E+02  0.47000000000E+01 0.  1.
         13    1    6    6    0    0 -0.72177472419E+02  0.98306938356E+01  0.50866186714E+02  0.88845928533E+02  0.00000000000E+00 0. -1.
        -14    1    6    6    0    0  0.10989258260E+02 -0.23287742099E+02 -0.24086171267E+02  0.35259415416E+02  0.00000000000E+00 0.  1.
</event>
<event>
12    1  0.1594900E-001  0.2251578E+03  0.7818608E-02  0.1130336E+00
         21   -1    0    0  503  502  0.00000000000E+00  0.00000000000E+00  0.11926637043E+03  0.11926637043E+03  0.00000000000E+00 0. -1.
         21   -1    0    0  501  503 -0.00000000000E+00 -0.00000000000E+00 -0.85261446851E+03  0.85261446851E+03  0.00000000000E+00 0.  1.
          6    2    1    2  501    0 -0.90892075918E+02  0.11443913128E+03 -0.71232698557E+03  0.74706476461E+03  0.17128439484E+03 0.  0.
         24    2    3    3    0    0 -0.10561033133E+03  0.13322702582E+03 -0.68088357625E+03  0.70731064516E+03  0.88220869729E+02 0.  0.
         -6    2    1    2    0  502  0.90892075918E+02 -0.11443913128E+03 -0.21021112516E+02  0.22481607433E+03  0.16953670951E+03 0.  0.
        -24    2    5    5    0    0  0.54923460251E+02 -0.63903402345E+02  0.53137287656E+02  0.12802165544E+03  0.80409835251E+02 0.  0.
          5    1    3    3  501    0  0.14718255410E+02 -0.18787894541E+02 -0.31443409322E+02  0.39754119451E+02  0.47000000000E+01 0. -1.
        -13    1    4    4    0    0 -0.87129192848E+02  0.55208740044E+02 -0.27782510870E+03  0.29635501050E+03  0.00000000000E+00 0.  1.
         14    1    4    4    0    0 -0.18481138479E+02  0.78018285775E+02 -0.40305846755E+03  0.41095563466E+03  0.00000000000E+00 0. -1.
         -5    1    5    5    0  502  0.35968615667E+02 -0.50535728934E+02 -0.74158400172E+02  0.96794418889E+02  0.47000000000E+01 0.  1.
         13    1    6    6    0    0  0.57090654412E+02 -0.37728632206E+02 -0.35225243541E+00  0.68431839016E+02  0.00000000000E+00 0. -1.
        -14    1    6    6    0    0 -0.21671941609E+01 -0.26174770139E+02  0.53489540091E+02  0.59589816425E+02  0.00000000000E+00 0.  1.
</event>
<event>
12    1  0.1594900E-001  0.2478861E+03  0.7818608E-02  0.1114941E+00
         21   -1    0    0  503  502  0.00000000000E+00  0.00000000000E+00  0.11537974894E+03  0.11537974894E+03  0.00000000000E+00 0.  1.
         21   -1    0    0  501  503 -0.00000000000E+00 -0.00000000000E+00 -0.62117679892E+03  0.62117679892E+03  0.00000000000E+00 0.  1.
          6    2    1    2  501    0 -0.75707243310E+02  0.16374345163E+03 -0.39423733560E+03  0.46472375950E+03  0.16733675993E+03 0.  0.
         24    2    3    3    0    0 -0.37097382216E+02  0.91200890579E+02 -0.35054450394E+03  0.37153417813E+03  0.73907902590E+02 0.  0.
         -6    2    1    2    0  502  0.75707243310E+02 -0.16374345163E+03 -0.11155971438E+03  0.27183278836E+03  0.17001173581E+03 0.  0.
        -24    2    5    5    0    0 -0.23690317509E+02 -0.74477654834E+02 -0.33704891764E+02  0.11713398107E+03  0.80474825741E+02 0.  0.
          5    1    3    3  501    0 -0.38609861094E+02  0.72542561053E+02 -0.43692831652E+02  0.93189581368E+02  0.47000000000E+01 0. -1.
        -13    1    4    4    0    0  0.20410637116E+02  0.43832708243E+02 -0.14977468366E+03  0.15738601045E+03  0.00000000000E+00 0.  1.
         14    1    4    4    0    0 -0.57508019333E+02  0.47368182336E+02 -0.20076982028E+03  0.21414816768E+03  0.00000000000E+00 0. -1.
         -5    1    5    5    0  502  0.99397560819E+02 -0.89265796798E+02 -0.77854822619E+02  0.15469880730E+03  0.47000000000E+01 0.  1.
         11    1    6    6    0    0  0.77339671068E+01  0.13635426959E+02  0.41502104734E+01  0.16216145119E+02  0.00000000000E+00 0. -1.
        -12    1    6    6    0    0 -0.31424284616E+02 -0.88113081793E+02 -0.37855102238E+02  0.10091783595E+03  0.00000000000E+00 0.  1.
</event>
<event>
12    1  0.1594900E-001  0.2363399E+03  0.7818608E-02  0.1122504E+00
         21   -1    0    0  501  502  0.00000000000E+00  0.00000000000E+00  0.12334647719E+04  0.12334647719E+04  0.00000000000E+00 0.  1.
         21   -1    0    0  502  503 -0.00000000000E+00 -0.00000000000E+00 -0.53459192161E+02  0.53459192161E+02  0.00000000000E+00 0.  1.
         -6    2    1    2    0  503 -0.15885023830E+03  0.29309711690E+02  0.33565307895E+03  0.41051128531E+03  0.17252266097E+03 0.  0.
        -24    2    3    3    0    0 -0.10319887171E+03 -0.48180857147E+02  0.21954562261E+03  0.26016204427E+03  0.80700723389E+02 0.  0.
          6    2    1    2  501    0  0.15885023830E+03 -0.29309711690E+02  0.84435250079E+03  0.87641267875E+03  0.17051563119E+03 0.  0.
         24    2    5    5    0    0  0.15245299692E+03 -0.40256633369E+02  0.84466758723E+03  0.86288681201E+03  0.79043055526E+02 0.  0.
          5    1    5    5  501    0  0.63972413769E+01  0.10946921679E+02 -0.31508644520E+00  0.13525866735E+02  0.47000000000E+01 0. -1.
        -11    1    6    6    0    0  0.11457279181E+03  0.54175680153E+01  0.48660257289E+03  0.49993833481E+03  0.00000000000E+00 0.  1.
         12    1    6    6    0    0  0.37880205113E+02 -0.45674201384E+02  0.35806501434E+03  0.36294847720E+03  0.00000000000E+00 0. -1.
         -5    1    3    3    0  503 -0.55651366590E+02  0.77490568837E+02  0.11610745634E+03  0.15034924104E+03  0.47000000000E+01 0.  1.
         11    1    4    4    0    0  0.28359957085E+00  0.75278603971E+01  0.67851227993E+02  0.68268134961E+02  0.00000000000E+00 0. -1.
        -12    1    4    4    0    0 -0.10348247128E+03 -0.55708717544E+02  0.15169439461E+03  0.19189390931E+03  0.00000000000E+00 0.  1.
</event>
<event>
12    1  0.1594900E-001  0.1962011E+03  0.7818608E-02  0.1153870E+00
         21   -1    0    0  501  502  0.00000000000E+00  0.00000000000E+00  0.11547378452E+03  0.11547378452E+03  0.00000000000E+00 0. -1.
         21   -1    0    0  502  503 -0.00000000000E+00 -0.00000000000E+00 -0.10152871454E+04  0.10152871454E+04  0.00000000000E+00 0.  1.
         -6    2    1    2    0  503 -0.80495557206E+02 -0.31654451082E+02 -0.91406487350E+03  0.93404290113E+03  0.17158091149E+03 0.  0.
        -24    2    3    3    0    0 -0.72803698680E+02 -0.43618027226E+02 -0.32558993132E+03  0.34537734293E+03  0.77934554544E+02 0.  0.
          6    2    1    2  501    0  0.80495557206E+02  0.31654451082E+02  0.14251512653E+02  0.19671802876E+03  0.17610604255E+03 0.  0.
         24    2    5    5    0    0 -0.41054089427E+01 -0.18584955341E+02  0.44998654883E+02  0.93525014527E+02  0.79748319439E+02 0.  0.
          5    1    5    5  501    0  0.84600966149E+02  0.50239406422E+02 -0.30747142230E+02  0.10319301423E+03  0.47000000000E+01 0. -1.
        -13    1    6    6    0    0  0.14373169419E+02 -0.12396997743E+02 -0.18860906935E+02  0.26758313897E+02  0.00000000000E+00 0.  1.
         14    1    6    6    0    0 -0.18478578362E+02 -0.61879575975E+01  0.63859561818E+02  0.66766700630E+02  0.00000000000E+00 0. -1.
         -5    1    3    3    0  503 -0.76918585258E+01  0.11963576144E+02 -0.58847494218E+03  0.58866555820E+03  0.47000000000E+01 0.  1.
         11    1    4    4    0    0 -0.73951980206E+00 -0.42753141970E+02 -0.10769812644E+03  0.11587607379E+03  0.00000000000E+00 0. -1.
        -12    1    4    4    0    0 -0.72064178878E+02 -0.86488525533E+00 -0.21789180488E+03  0.22950126914E+03  0.00000000000E+00 0.  1.
</event>
<event>
12    1  0.1594900E-001  0.1890479E+03  0.7818608E-02  0.1159962E+00
         21   -1    0    0  501  502  0.00000000000E+00  0.00000000000E+00  0.35792064778E+02  0.35792064778E+02  0.00000000000E+00 0.  1.
         21   -1    0    0  502  503 -0.00000000000E+00 -0.00000000000E+00 -0.13648650541E+04  0.13648650541E+04  0.00000000000E+00 0.  1.
         -6    2    1    2    0  503 -0.46782432876E+02 -0.58705569702E+02 -0.10309996019E+04  0.10476884639E+04  0.17045820154E+03 0.  0.
        -24    2    3    3    0    0 -0.78944723894E+02 -0.75760040403E+02 -0.59471255967E+03  0.60986002594E+03  0.79210917485E+02 0.  0.
          6    2    1    2  501    0  0.46782432876E+02  0.58705569702E+02 -0.29807338743E+03  0.35296865492E+03  0.17350558239E+03 0.  0.
         24    2    5    5    0    0  0.32740821253E+02  0.10555840162E+03 -0.18501077054E+03  0.22969010831E+03  0.79460827517E+02 0.  0.
          5    1    5    5  501    0  0.14041611623E+02 -0.46852831922E+02 -0.11306261690E+03  0.12327854661E+03  0.47000000000E+01 0. -1.
        -11    1    6    6    0    0  0.32958053071E+02  0.19914583455E+02 -0.19113058113E+02  0.42989916107E+02  0.00000000000E+00 0.  1.
         12    1    6    6    0    0 -0.21723181801E+00  0.85643818169E+02 -0.16589771242E+03  0.18670019220E+03  0.00000000000E+00 0. -1.
         -5    1    3    3    0  503  0.32162291017E+02  0.17054470701E+02 -0.43628704219E+03  0.43782843800E+03  0.47000000000E+01 0.  1.
         11    1    4    4    0    0  0.41172138256E+01  0.10833856786E+02 -0.10604215008E+03  0.10667362137E+03  0.00000000000E+00 0. -1.
        -12    1    4    4    0    0 -0.83061937719E+02 -0.86593897188E+02 -0.48867040959E+03  0.50318640456E+03  0.00000000000E+00 0.  1.
</event>
<event>
12    1  0.1594900E-001  0.1851514E+03  0.7818608E-02  0.1162922E+00
         21   -1    0    0  503  502  0.00000000000E+00  0.00000000000E+00  0.36450971022E+03  0.36450971022E+03  0.00000000000E+00 0. -1.
         21   -1    0    0  501  503 -0.00000000000E+00 -0.00000000000E+00 -0.98739930724E+02  0.98739930724E+02  0.00000000000E+00 0.  1.
          6    2    1    2  501    0  0.46703586006E+02 -0.49520381297E+02  0.18356434194E+03  0.26072382479E+03  0.17218464529E+03 0.  0.
         24    2    3    3    0    0  0.82961416425E+02 -0.68528441517E+01  0.73741429227E+02  0.13736130557E+03  0.80627363805E+02 0.  0.
         -6    2    1    2    0  502 -0.46703586006E+02  0.49520381297E+02  0.82205437554E+02  0.20252581615E+03  0.17212053665E+03 0.  0.
        -24    2    5    5    0    0 -0.51008097173E+02  0.55918189873E+02  0.12004482298E+03  0.16362376145E+03  0.81445109434E+02 0.  0.
          5    1    3    3  501    0 -0.36257830419E+02 -0.42667537145E+02  0.10982291271E+03  0.12336251922E+03  0.47000000000E+01 0. -1.
        -11    1    4    4    0    0  0.74205906508E+02 -0.18254831877E+02  0.88385196025E+02  0.11684048238E+03  0.00000000000E+00 0.  1.
         12    1    4    4    0    0  0.87555099169E+01  0.11401987726E+02 -0.14643766798E+02  0.20520823181E+02  0.00000000000E+00 0. -1.
         -5    1    5    5    0  502  0.43045111665E+01 -0.63978085760E+01 -0.37839385424E+02  0.38902054705E+02  0.47000000000E+01 0.  1.
         13    1    6    6    0    0 -0.14199154183E+02  0.12625317397E+01  0.90140517281E+02  0.91260740856E+02  0.00000000000E+00 0. -1.
        -14    1    6    6    0    0 -0.36808942990E+02  0.54655658133E+02  0.29904305698E+02  0.72363020592E+02  0.00000000000E+00 0.  1.
</event>
<event>
12    1  0.1594900E-001  0.1818949E+03  0.7818608E-02  0.1166090E+00
         21   -1    0    0  503  502  0.00000000000E+00  0.00000000000E+00  0.11638777331E+04  0.11638777331E+04  0.00000000000E+00 0.  1.
         21   -1    0    0  501  503 -0.00000000000E+00 -0.00000000000E+00 -0.37608361575E+02  0.37608361575E+02  0.00000000000E+00 0.  1.
          6    2    1    2  501    0  0.45434917855E+02 -0.29756320052E+02  0.26569906940E+03  0.32199650493E+03  0.17359718707E+03 0.  0.
         24    2    3    3    0    0  0.52139338422E+02  0.20140696898E+02  0.25196697257E+03  0.26960068411E+03  0.77929553601E+02 0.  0.
         -6    2    1    2    0  502 -0.45434917855E+02  0.29756320052E+02  0.86057030216E+03  0.87948958979E+03  0.17312112304E+03 0.  0.
        -24    2    5    5    0    0 -0.77563434010E+02 -0.44410241029E+01  0.76632585053E+03  0.77410549915E+03  0.77124611023E+02 0.  0.
          5    1    3    3  501    0 -0.67044205674E+01 -0.49897016950E+02  0.13732096838E+02  0.52395820818E+02  0.47000000000E+01 0. -1.
        -13    1    4    4    0    0  0.36936478479E+01  0.29600557872E+02  0.17923689674E+03  0.18170223227E+03  0.00000000000E+00 0.  1.
         14    1    4    4    0    0  0.48445690574E+02 -0.94598609736E+01  0.72730075826E+02  0.87898451833E+02  0.00000000000E+00 0. -1.
         -5    1    5    5    0  502  0.32128516155E+02  0.34197344155E+02  0.94244451625E+02  0.10538409064E+03  0.47000000000E+01 0.  1.
         11    1    6    6    0    0 -0.38719353406E+02  0.19489083544E+02  0.15122647007E+03  0.15731642621E+03  0.00000000000E+00 0. -1.
        -12    1    6    6    0    0 -0.38844080604E+02 -0.23930107647E+02  0.61509938046E+03  0.61678907294E+03  0.00000000000E+00 0.  1.
</event>
<event>
12    1  0.1594900E-001  0.2503037E+03  0.7818608E-02  0.1114021E+00
         21   -1    0    0  501  502  0.00000000000E+00  0.00000000000E+00  0.41360901034E+03  0.41360901034E+03  0.00000000000E+00 0.  1.
         21   -1    0    0  502  503 -0.00000000000E+00 -0.00000000000E+00 -0.17034868583E+03  0.17034868583E+03  0.00000000000E+00 0. -1.
         -6    2    1    2    0  503  0.15015954983E+03  0.10301543130E+03  0.22603895443E+03  0.33306221848E+03  0.16333022675E+03 0.  0.
        -24    2    3    3    0    0  0.11196331423E+03  0.36248536210E+02  0.21386082441E+03  0.25504191635E+03  0.73893076583E+02 0.  0.
          6    2    1    2  501    0 -0.15015954983E+03 -0.10301543130E+03  0.17221370080E+02  0.25089547770E+03  0.17173204608E+03 0.  0.
         24    2    5    5    0    0 -0.16276445560E+03 -0.41076893470E+02  0.43428243010E+01  0.18621771445E+03  0.80489737640E+02 0.  0.
          5    1    5    5  501    0  0.12604905774E+02 -0.61938537826E+02  0.12878545779E+02  0.64677763250E+02  0.47000000000E+01 0. -1.
        -11    1    6    6    0    0 -0.19825256780E+02 -0.35294651124E+02  0.14005077932E+02  0.42835679196E+02  0.00000000000E+00 0.  1.
         12    1    6    6    0    0 -0.14293919882E+03 -0.57822423462E+01 -0.96622536311E+01  0.14338203525E+03  0.00000000000E+00 0. -1.
         -5    1    3    3    0  503  0.38196235604E+02  0.66766895086E+02  0.12178130017E+02  0.78020302130E+02  0.47000000000E+01 0.  1.
         13    1    4    4    0    0  0.27638058918E+02 -0.20382275114E+02  0.33099302101E+02  0.47695526406E+02  0.00000000000E+00 0. -1.
        -14    1    4    4    0    0  0.84325255308E+02  0.56630811324E+02  0.18076152231E+03  0.20734638994E+03  0.00000000000E+00 0.  1.
</event>
<event>
12    1  0.1594900E-001  0.1961629E+03  0.7818608E-02  0.1153177E+00
         21   -1    0    0  503  502  0.00000000000E+00  0.00000000000E+00  0.61640009440E+03  0.61640009440E+03  0.00000000000E+00 0. -1.
         21   -1    0    0  501  503 -0.00000000000E+00 -0.00000000000E+00 -0.62222387848E+02  0.62222387848E+02  0.00000000000E+00 0. -1.
          6    2    1    2  501    0  0.66257140986E+02  0.65180365571E+02  0.28404076258E+03  0.34477545974E+03  0.17190833035E+03 0.  0.
         24    2    3    3    0    0  0.10282862071E+03  0.42469358086E+02  0.26334224443E+03  0.29677773434E+03  0.79690114074E+02 0.  0.
         -6    2    1    2    0  502 -0.66257140986E+02 -0.65180365571E+02  0.27013694397E+03  0.33384702251E+03  0.17274656915E+03 0.  0.
        -24    2    5    5    0    0 -0.93080591001E+02 -0.84149606030E+02  0.16400130195E+03  0.22264363200E+03  0.83238255696E+02 0.  0.
          5    1    3    3  501    0 -0.36571479726E+02  0.22711007485E+02  0.20698518149E+02  0.47997725403E+02  0.47000000000E+01 0. -1.
        -11    1    4    4    0    0 -0.13554677263E+02  0.24379204779E+01  0.27006916074E+02  0.30315775560E+02  0.00000000000E+00 0.  1.
         12    1    4    4    0    0  0.11638329798E+03  0.40031437608E+02  0.23633532836E+03  0.26646195878E+03  0.00000000000E+00 0. -1.
         -5    1    5    5    0  502  0.26823450015E+02  0.18969240459E+02  0.10613564203E+03  0.11120339052E+03  0.47000000000E+01 0.  1.
         11    1    6    6    0    0 -0.95361090804E+02 -0.79155917562E+02  0.17257355701E+03  0.21246418404E+03  0.00000000000E+00 0. -1.
        -12    1    6    6    0    0  0.22804998025E+01 -0.49936884674E+01 -0.85722550558E+01  0.10179447952E+02  0.00000000000E+00 0.  1.
</event>
<event>
12    1  0.1594900E-001  0.1898174E+03  0.7818608E-02  0.1158881E+00
         21   -1    0    0  501  502  0.00000000000E+00  0.00000000000E+00  0.92624998138E+03  0.92624998138E+03  0.00000000000E+00 0. -1.
         21   -1    0    0  502  503 -0.00000000000E+00 -0.00000000000E+00 -0.84943839719E+02  0.84943839719E+02  0.00000000000E+00 0. -1.
         -6    2    1    2    0  503  0.63080449823E+02 -0.46564211362E+02  0.46910961913E+02  0.19443537374E+03  0.17163072943E+03 0.  0.
        -24    2    3    3    0    0  0.18761693145E+02 -0.82593877150E+02 -0.65763405714E+01  0.11604359779E+03  0.79051367225E+02 0.  0.
          6    2    1    2  501    0 -0.63080449823E+02  0.46564211362E+02  0.79439517975E+03  0.81675844735E+03  0.17286784197E+03 0.  0.
         24    2    5    5    0    0 -0.59321498308E+02  0.89548265977E+02  0.44227327734E+03  0.46197163415E+03  0.79209890856E+02 0.  0.
          5    1    5    5  501    0 -0.37589515158E+01 -0.42984054615E+02  0.35212190241E+03  0.35478681321E+03  0.47000000000E+01 0. -1.
        -11    1    6    6    0    0 -0.12008202840E+02  0.22302297002E+02  0.21452104986E+02  0.33193104636E+02  0.00000000000E+00 0.  1.
         12    1    6    6    0    0 -0.47313295467E+02  0.67245968974E+02  0.42082117235E+03  0.42877852951E+03  0.00000000000E+00 0. -1.
         -5    1    3    3    0  503  0.44318756678E+02  0.36029665788E+02  0.53487302484E+02  0.78391775955E+02  0.47000000000E+01 0.  1.
         11    1    4    4    0    0  0.10281515339E+02 -0.47679433692E+02  0.35786789834E+02  0.60495721184E+02  0.00000000000E+00 0. -1.
        -12    1    4    4    0    0  0.84801778059E+01 -0.34914443458E+02 -0.42363130406E+02  0.55547876606E+02  0.00000000000E+00 0.  1.
</event>
<event>
12    1  0.1594900E-001  0.1991127E+03  0.7818608E-02  0.1153340E+00
         21   -1    0    0  501  502  0.00000000000E+00  0.00000000000E+00  0.68862307492E+03  0.68862307492E+03  0.00000000000E+00 0. -1.
         21   -1    0    0  502  503 -0.00000000000E+00 -0.00000000000E+00 -0.10347485598E+03  0.10347485598E+03  0.00000000000E+00 0.  1.
         -6    2    1    2    0  503 -0.67682066020E+02  0.20493493443E+01  0.23609164684E+02  0.20050750078E+03  0.18724530253E+03 0.  0.
        -24    2    3    3    0    0 -0.24257002536E+02  0.39099001343E+02 -0.51320877956E+02  0.10619411816E+03  0.80785048983E+02 0.  0.
          6    2    1    2  501    0  0.67682066020E+02 -0.20493493443E+01  0.56153905426E+03  0.59159043012E+03  0.17340145806E+03 0.  0.
         24    2    5    5    0    0  0.27801414918E+02  0.50372156179E+02  0.18434949288E+03  0.20866415029E+03  0.79029863343E+02 0.  0.
          5    1    5    5  501    0  0.39880651102E+02 -0.52421505524E+02  0.37718956137E+03  0.38292627983E+03  0.47000000000E+01 0. -1.
        -11    1    6    6    0    0 -0.86786439525E+01  0.57894094070E+02  0.13216965260E+03  0.14455401087E+03  0.00000000000E+00 0.  1.
         12    1    6    6    0    0  0.36480058871E+02 -0.75219378908E+01  0.52179840280E+02  0.64110139420E+02  0.00000000000E+00 0. -1.
         -5    1    3    3    0  503 -0.43425063484E+02 -0.37049651998E+02  0.74930042641E+02  0.94313382624E+02  0.47000000000E+01 0.  1.
         11    1    4    4    0    0  0.12934222344E+02 -0.18618109476E+02 -0.21813295974E+02  0.31460260478E+02  0.00000000000E+00 0. -1.
        -12    1    4    4    0    0 -0.37191224880E+02  0.57717110819E+02 -0.29507581983E+02  0.74733857680E+02  0.00000000000E+00 0.  1.
</event>
<event>
12    1  0.1594900E-001  0.2167949E+03  0.7818608E-02  0.1136375E+00
         21   -1    0    0  501  502  0.00000000000E+00  0.00000000000E+00  0.28953092043E+03  0.28953092043E+03  0.00000000000E+00 0.  1.
         21   -1    0    0  502  503 -0.00000000000E+00 -0.00000000000E+00 -0.16860896703E+03  0.16860896703E+03  0.00000000000E+00 0. -1.
         -6    2    1    2    0  503 -0.13171350483E+03 -0.58128872583E+01  0.10580130356E+03  0.24123423154E+03  0.17209823247E+03 0.  0.
        -24    2    3    3    0    0 -0.15202359939E+03  0.11676572975E+02  0.50288036484E+02  0.17941033664E+03  0.80072874007E+02 0.  0.
          6    2    1    2  501    0  0.13171350483E+03  0.58128872583E+01  0.15120649832E+02  0.21690565592E+03  0.17157270326E+03 0.  0.
         24    2    5    5    0    0  0.35824915454E+02 -0.52769415094E+02  0.25060295637E+02  0.10400129692E+03  0.78231806874E+02 0.  0.
          5    1    5    5  501    0  0.95888589377E+02  0.58582302353E+02 -0.99396458048E+01  0.11290435900E+03  0.47000000000E+01 0. -1.
        -11    1    6    6    0    0 -0.87488391926E+01  0.13134570188E+02  0.18281106840E+02  0.24150734741E+02  0.00000000000E+00 0.  1.
         12    1    6    6    0    0  0.44573754647E+02 -0.65903985282E+02  0.67791887968E+01  0.79850562178E+02  0.00000000000E+00 0. -1.
         -5    1    3    3    0  503  0.20310094554E+02 -0.17489460233E+02  0.55513267077E+02  0.61823894908E+02  0.47000000000E+01 0.  1.
         13    1    4    4    0    0 -0.34269653727E+02  0.19178086349E+01 -0.22117855582E+02  0.40832422069E+02  0.00000000000E+00 0. -1.
        -14    1    4    4    0    0 -0.11775394566E+03  0.97587643399E+01  0.72405892067E+02  0.13857791457E+03  0.00000000000E+00 0.  1.
</event>
<event>
12    1  0.1594900E-001  0.1755272E+03  0.7818608E-02  0.1172444E+00
         21   -1    0    0  501  502  0.00000000000E+00  0.00000000000E+00  0.11867071676E+03  0.11867071676E+03  0.00000000000E+00 0. -1.
         21   -1    0    0  502  503 -0.00000000000E+00 -0.00000000000E+00 -0.54481804617E+03  0.54481804617E+03  0.00000000000E+00 0. -1.
         -6    2    1    2    0  503  0.31693556214E+02 -0.13450511093E+02 -0.45341179469E+03  0.48585669686E+03  0.17114051701E+03 0.  0.
        -24    2    3    3    0    0  0.46898977418E+02 -0.31129753694E+02 -0.13268427337E+03  0.16424824954E+03  0.78764176053E+02 0.  0.
          6    2    1    2  501    0 -0.31693556214E+02  0.13450511093E+02  0.27264465278E+02  0.17763206607E+03  0.17211740782E+03 0.  0.
         24    2    5    5    0    0  0.16395469863E+02  0.32017528571E+02  0.68210657895E+02  0.11163229898E+03  0.80716434239E+02 0.  0.
          5    1    5    5  501    0 -0.48089026077E+02 -0.18567017478E+02 -0.40946192616E+02  0.65999767097E+02  0.47000000000E+01 0. -1.
        -13    1    6    6    0    0  0.44739003158E+02  0.24062598027E+02  0.18897869386E+02  0.54200705666E+02  0.00000000000E+00 0.  1.
         14    1    6    6    0    0 -0.28343533295E+02  0.79549305439E+01  0.49312788509E+02  0.57431593310E+02  0.00000000000E+00 0. -1.
         -5    1    3    3    0  503 -0.15205421204E+02  0.17679242601E+02 -0.32072752132E+03  0.32160844732E+03  0.47000000000E+01 0.  1.
         13    1    4    4    0    0 -0.51309732155E+01  0.15652613600E+01 -0.88258270063E+02  0.88421146587E+02  0.00000000000E+00 0. -1.
        -14    1    4    4    0    0  0.52029950634E+02 -0.32695015054E+02 -0.44426003305E+02  0.75827102951E+02  0.00000000000E+00 0.  1.
</event>
<event>
12    1  0.1594900E-001  0.2376289E+03  0.7818608E-02  0.1123350E+00
         21   -1    0    0  501  502  0.00000000000E+00  0.00000000000E+00  0.34619274078E+03  0.34619274078E+03  0.00000000000E+00 0. -1.
         21   -1    0    0  502  503 -0.00000000000E+00 -0.00000000000E+00 -0.20645718206E+03  0.20645718206E+03  0.00000000000E+00 0. -1.
         -6    2    1    2    0  503  0.80233396979E+02 -0.12215456897E+03  0.20595935357E+03  0.30596569589E+03  0.17273278503E+03 0.  0.
        -24    2    3    3    0    0 -0.18649840233E+02 -0.33007334919E+02  0.50549560631E+02  0.10127222339E+03  0.79142305070E+02 0.  0.
          6    2    1    2  501    0 -0.80233396979E+02  0.12215456897E+03 -0.66223794848E+02  0.24668422696E+03  0.18737230349E+03 0.  0.
         24    2    5    5    0    0  0.23922345483E+02  0.42503752943E+02 -0.70168302370E+02  0.11541991223E+03  0.77584262926E+02 0.  0.
          5    1    5    5  501    0 -0.10415574246E+03  0.79650816023E+02  0.39445075221E+01  0.13126431473E+03  0.47000000000E+01 0. -1.
        -11    1    6    6    0    0 -0.33570946178E+01 -0.16488290266E+02  0.34920428252E+01  0.17185114584E+02  0.00000000000E+00 0.  1.
         12    1    6    6    0    0  0.27279440101E+02  0.58992043209E+02 -0.73660345195E+02  0.98234797645E+02  0.00000000000E+00 0. -1.
         -5    1    3    3    0  503  0.98883237212E+02 -0.89147234047E+02  0.15540979294E+03  0.20469347249E+03  0.47000000000E+01 0.  1.
         13    1    4    4    0    0  0.20435546090E+02 -0.32216227692E+02  0.10085022319E+01  0.38164302004E+02  0.00000000000E+00 0. -1.
        -14    1    4    4    0    0 -0.39085386323E+02 -0.79110722685E+00  0.49541058399E+02  0.63107921389E+02  0.00000000000E+00 0.  1.
</event>
<event>
12    1  0.1594900E-001  0.2145992E+03  0.7818608E-02  0.1137990E+00
         21   -1    0    0  501  502  0.00000000000E+00  0.00000000000E+00  0.14525370520E+03  0.14525370520E+03  0.00000000000E+00 0. -1.
         21   -1    0    0  502  503 -0.00000000000E+00 -0.00000000000E+00 -0.36886327279E+03  0.36886327279E+03  0.00000000000E+00 0.  1.
         -6    2    1    2    0  503  0.60855063234E+02  0.11316616390E+03 -0.15332830945E+02  0.21506509111E+03  0.17177886465E+03 0.  0.
        -24    2    3    3    0    0  0.10347598959E+03  0.67225272899E+02  0.83071462237E+01  0.14792309718E+03  0.81152426110E+02 0.  0.
          6    2    1    2  501    0 -0.60855063234E+02 -0.11316616390E+03 -0.20827673664E+03  0.29905188687E+03  0.17188051851E+03 0.  0.
         24    2    5    5    0    0 -0.22224781763E+02 -0.58281217585E+02 -0.23409525906E+02  0.10232204271E+03  0.77660500088E+02 0.  0.
          5    1    5    5  501    0 -0.38630281471E+02 -0.54884946312E+02 -0.18486721074E+03  0.19672984416E+03  0.47000000000E+01 0. -1.
        -13    1    6    6    0    0  0.13521240052E+02 -0.29157279725E+02 -0.41760193408E+02  0.52696154006E+02  0.00000000000E+00 0.  1.
         14    1    6    6    0    0 -0.35746021816E+02 -0.29123937860E+02  0.18350667502E+02  0.49625888706E+02  0.00000000000E+00 0. -1.
         -5    1    3    3    0  503 -0.42620926353E+02  0.45940890998E+02 -0.23639977169E+02  0.67141993934E+02  0.47000000000E+01 0.  1.
         11    1    4    4    0    0  0.95268606557E+02  0.49380340076E+02 -0.24145939111E+02  0.10998887106E+03  0.00000000000E+00 0. -1.
        -12    1    4    4    0    0  0.82073830308E+01  0.17844932823E+02  0.32453085335E+02  0.37934226121E+02  0.00000000000E+00 0.  1.
</event>
<event>
12    1  0.1594900E-001  0.1809784E+03  0.7818608E-02  0.1167100E+00
         21   -1    0    0  501  502  0.00000000000E+00  0.00000000000E+00  0.67914394352E+03  0.67914394352E+03  0.00000000000E+00 0. -1.
         21   -1    0    0  502  503 -0.00000000000E+00 -0.00000000000E+00 -0.55522781128E+02  0.55522781128E+02  0.00000000000E+00 0. -1.
         -6    2    1    2    0  503 -0.53783973683E+02 -0.14643405142E+02  0.17700214485E+03  0.25314609853E+03  0.17218026245E+03 0.  0.
        -24    2    3    3    0    0 -0.84946468900E+02 -0.30438522003E+02  0.62552625040E+02  0.13339064183E+03  0.75748440428E+02 0.  0.
          6    2    1    2  501    0  0.53783973683E+02  0.14643405142E+02  0.44661901754E+03  0.48152062612E+03  0.17113275961E+03 0.  0.
         24    2    5    5    0    0  0.63815106440E+02  0.21879249029E+02  0.10659880886E+03  0.14124307269E+03  0.63523461673E+02 0.  0.
          5    1    5    5  501    0 -0.10031132756E+02 -0.72358438876E+01  0.34002020868E+03  0.34027755343E+03  0.47000000000E+01 0. -1.
        -13    1    6    6    0    0  0.25434052245E+01  0.30635207539E+02  0.33764536532E+02  0.45662115351E+02  0.00000000000E+00 0.  1.
         14    1    6    6    0    0  0.61271701215E+02 -0.87559585096E+01  0.72834272331E+02  0.95580957336E+02  0.00000000000E+00 0. -1.
         -5    1    3    3    0  503  0.31162495216E+02  0.15795116862E+02  0.11444951981E+03  0.11975545670E+03  0.47000000000E+01 0.  1.
         11    1    4    4    0    0  0.87762038412E+01 -0.21973543261E+02  0.14123660793E+02  0.27556054716E+02  0.00000000000E+00 0. -1.
        -12    1    4    4    0    0 -0.93722672741E+02 -0.84649787420E+01  0.48428964247E+02  0.10583458711E+03  0.00000000000E+00 0.  1.
</event>
<event>
12    1  0.1594900E-001  0.2945703E+03  0.7818608E-02  0.1088521E+00
         21   -1    0    0  503  502  0.00000000000E+00  0.00000000000E+00  0.60810471809E+03  0.60810471809E+03  0.00000000000E+00 0.  1.
         21   -1    0    0  501  503 -0.00000000000E+00 -0.00000000000E+00 -0.28395732743E+03  0.28395732743E+03  0.00000000000E+00 0. -1.
          6    2    1    2  501    0 -0.22098976262E+03 -0.91610524841E+02 -0.15417158862E+03  0.33247634119E+03  0.17187982799E+03 0.  0.
         24    2    3    3    0    0 -0.21036545371E+03 -0.24762558004E+02 -0.11537672019E+03  0.25431843419E+03  0.80618050172E+02 0.  0.
         -6    2    1    2    0  502  0.22098976262E+03  0.91610524841E+02  0.47831897928E+03  0.55958570433E+03  0.16467589716E+03 0.  0.
        -24    2    5    5    0    0  0.18262516537E+03  0.19944343776E+02  0.27466164108E+03  0.34025425370E+03  0.81143158711E+02 0.  0.
          5    1    3    3  501    0 -0.10624308906E+02 -0.66847966837E+02 -0.38794868427E+02  0.78157906998E+02  0.47000000000E+01 0. -1.
        -13    1    4    4    0    0 -0.19080281882E+03 -0.42948499197E+02 -0.83301041156E+02  0.21257787446E+03  0.00000000000E+00 0.  1.
         14    1    4    4    0    0 -0.19562634893E+02  0.18185941194E+02 -0.32075679038E+02  0.41740559733E+02  0.00000000000E+00 0. -1.
         -5    1    5    5    0  502  0.38364597244E+02  0.71666181065E+02  0.20365733821E+03  0.21933145063E+03  0.47000000000E+01 0.  1.
         13    1    6    6    0    0  0.17298601783E+02  0.14722553210E+02  0.40205431405E+01  0.23068592584E+02  0.00000000000E+00 0. -1.
        -14    1    6    6    0    0  0.16532656359E+03  0.52217905659E+01  0.27064109794E+03  0.31718566112E+03  0.00000000000E+00 0.  1.
</event>
<event>
12    1  0.1594900E-001  0.2012867E+03  0.7818608E-02  0.1148696E+00
         21   -1    0    0  501  502  0.00000000000E+00  0.00000000000E+00  0.61760003910E+03  0.61760003910E+03  0.00000000000E+00 0.  1.
         21   -1    0    0  502  503 -0.00000000000E+00 -0.00000000000E+00 -0.78992471320E+02  0.78992471320E+02  0.00000000000E+00 0.  1.
         -6    2    1    2    0  503  0.93536574647E+02  0.46419845644E+02  0.12569219584E+03  0.23730756035E+03  0.17208270465E+03 0.  0.
        -24    2    3    3    0    0  0.89501981779E+02  0.40008211432E+02  0.15846022060E+03  0.20334846084E+03  0.81422928508E+02 0.  0.
          6    2    1    2  501    0 -0.93536574647E+02 -0.46419845644E+02  0.41291537194E+03  0.45928495007E+03  0.17187107991E+03 0.  0.
         24    2    5    5    0    0 -0.11491703780E+03 -0.79121445327E+02  0.35278118884E+03  0.38741890243E+03  0.78566596410E+02 0.  0.
          5    1    5    5  501    0  0.21380463153E+02  0.32701599683E+02  0.60134183106E+02  0.71866047646E+02  0.47000000000E+01 0. -1.
        -11    1    6    6    0    0 -0.23837530005E+02  0.73071700551E+01  0.12366695134E+03  0.12615521164E+03  0.00000000000E+00 0.  1.
         12    1    6    6    0    0 -0.91079507795E+02 -0.86428615382E+02  0.22911423750E+03  0.26126369078E+03  0.00000000000E+00 0. -1.
         -5    1    3    3    0  503  0.40345928685E+01  0.64116342118E+01 -0.32768024764E+02  0.33959099514E+02  0.47000000000E+01 0.  1.
         13    1    4    4    0    0 -0.13377146679E+02  0.76696427224E+00  0.46392241452E+01  0.14179516499E+02  0.00000000000E+00 0. -1.
        -14    1    4    4    0    0  0.10287912846E+03  0.39241247160E+02  0.15382099646E+03  0.18916894434E+03  0.00000000000E+00 0.  1.
</event>
<event>
12    1  0.1594900E-001  0.1844088E+03  0.7818608E-02  0.1163695E+00
         21   -1    0    0  501  502  0.00000000000E+00  0.00000000000E+00  0.83735402120E+02  0.83735402120E+02  0.00000000000E+00 0. -1.
         21   -1    0    0  502  503 -0.00000000000E+00 -0.00000000000E+00 -0.46527287344E+03  0.46527287344E+03  0.00000000000E+00 0. -1.
         -6    2    1    2    0  503 -0.32652478370E+02  0.56230469665E+02 -0.92354975729E+02  0.20624266508E+03  0.17256461195E+03 0.  0.
        -24    2    3    3    0    0  0.42891576155E+01  0.97660896374E+02 -0.78433059453E+02  0.14882250765E+03  0.80251768919E+02 0.  0.
          6    2    1    2  501    0  0.32652478370E+02 -0.56230469665E+02 -0.28918249559E+03  0.34276561048E+03  0.17214441004E+03 0.  0.
         24    2    5    5    0    0  0.38794909044E+02  0.27803492196E+02 -0.19709918665E+03  0.21786219986E+03  0.79610109913E+02 0.  0.
          5    1    5    5  501    0 -0.61424306733E+01 -0.84033961860E+02 -0.92083308939E+02  0.12490341062E+03  0.47000000000E+01 0. -1.
        -11    1    6    6    0    0  0.85335287439E+01  0.34383343189E+02 -0.25899645553E+02  0.43884245937E+02  0.00000000000E+00 0.  1.
         12    1    6    6    0    0  0.30261380300E+02 -0.65798509933E+01 -0.17119954110E+03  0.17397795392E+03  0.00000000000E+00 0. -1.
         -5    1    3    3    0  503 -0.36941635986E+02 -0.41430426710E+02 -0.13921916276E+02  0.57420157431E+02  0.47000000000E+01 0.  1.
         13    1    4    4    0    0 -0.25682621007E+02  0.19517571030E+02 -0.51745650907E+02  0.60976593776E+02  0.00000000000E+00 0. -1.
        -14    1    4    4    0    0  0.29971778622E+02  0.78143325344E+02 -0.26687408545E+02  0.87845913875E+02  0.00000000000E+00 0.  1.
</event>
<event>
12    1  0.1594900E-001  0.2385009E+03  0.7818608E-02  0.1120862E+00
         21   -1    0    0  501  502  0.00000000000E+00  0.00000000000E+00  0.16304636325E+04  0.16304636325E+04  0.00000000000E+00 0.  1.
         21   -1    0    0  502  503 -0.00000000000E+00 -0.00000000000E+00 -0.80171164630E+02  0.80171164630E+02  0.00000000000E+00 0. -1.
         -6    2    1    2    0  503 -0.85028830260E+02 -0.13972554453E+03  0.13164143723E+03  0.27207530248E+03  0.17303864439E+03 0.  0.
        -24    2    3    3    0    0 -0.34830002674E+02 -0.13465356764E+03  0.36653349369E+02  0.16441623841E+03  0.79652489398E+02 0.  0.
          6    2    1    2  501    0  0.85028830260E+02  0.13972554453E+03  0.14186510307E+04  0.14385594947E+04  0.17357863680E+03 0.  0.
         24    2    5    5    0    0  0.56377985916E+02  0.76687996924E+01  0.75429524228E+03  0.76058415715E+03  0.79307375413E+02 0.  0.
          5    1    5    5  501    0  0.28650844344E+02  0.13205674484E+03  0.66435578839E+03  0.67797533754E+03  0.47000000000E+01 0. -1.
        -11    1    6    6    0    0  0.22913339554E+02  0.32967433747E+02  0.16564765832E+03  0.17044359632E+03  0.00000000000E+00 0.  1.
         12    1    6    6    0    0  0.33464646362E+02 -0.25298634055E+02  0.58864758396E+03  0.59014056083E+03  0.00000000000E+00 0. -1.
         -5    1    3    3    0  503 -0.50198827586E+02 -0.50719768858E+01  0.94988087863E+02  0.10765906407E+03  0.47000000000E+01 0.  1.
         13    1    4    4    0    0 -0.53699895157E+02 -0.10506169390E+03  0.48220105718E+02  0.12746300193E+03  0.00000000000E+00 0. -1.
        -14    1    4    4    0    0  0.18869892484E+02 -0.29591873740E+02 -0.11566756349E+02  0.36953236478E+02  0.00000000000E+00 0.  1.
</event>
<event>
12    1  0.1594900E-001  0.1902785E+03  0.7818608E-02  0.1158390E+00
         21   -1    0    0  501  502  0.00000000000E+00  0.00000000000E+00  0.65324219994E+03  0.65324219994E+03  0.00000000000E+00 0. -1.
         21   -1    0    0  502  503 -0.00000000000E+00 -0.00000000000E+00 -0.56799882071E+02  0.56799882071E+02  0.00000000000E+00 0.  1.
         -6    2    1    2    0  503 -0.80098898582E+02  0.75220933738E+01  0.35853143608E+03  0.40589494051E+03  0.17243403559E+03 0.  0.
        -24    2    3    3    0    0 -0.80660664809E+02 -0.61385967014E+01  0.37026103203E+03  0.38727765135E+03  0.79667572944E+02 0.  0.
          6    2    1    2  501    0  0.80098898582E+02 -0.75220933738E+01  0.23791088179E+03  0.30414714150E+03  0.17155605663E+03 0.  0.
         24    2    5    5    0    0 -0.75932450212E+01 -0.34260811643E+02  0.16942271961E+03  0.18961509593E+03  0.77578129006E+02 0.  0.
          5    1    5    5  501    0  0.87692143603E+02  0.26738718269E+02  0.68488162178E+02  0.11453204557E+03  0.47000000000E+01 0. -1.
        -13    1    6    6    0    0 -0.45837988218E+01 -0.38182670284E+02  0.26723457533E+02  0.46830232801E+02  0.00000000000E+00 0.  1.
         14    1    6    6    0    0 -0.30094461995E+01  0.39218586409E+01  0.14269926207E+03  0.14278486313E+03  0.00000000000E+00 0. -1.
         -5    1    3    3    0  503  0.56176622698E+00  0.13660690075E+02 -0.11729595946E+02  0.18617289160E+02  0.47000000000E+01 0.  1.
         11    1    4    4    0    0 -0.54691485114E+02 -0.40873337722E+02  0.25940291520E+03  0.26823806720E+03  0.00000000000E+00 0. -1.
        -12    1    4    4    0    0 -0.25969179695E+02  0.34734741021E+02  0.11085811683E+03  0.11903958415E+03  0.00000000000E+00 0.  1.
</event>
<event>
12    1  0.1594900E-001  0.1888199E+03  0.7818608E-02  0.1159540E+00
         21   -1    0    0  503  502  0.00000000000E+00  0.00000000000E+00  0.19794821934E+03  0.19794821934E+03  0.00000000000E+00 0. -1.
         21   -1    0    0  501  503 -0.00000000000E+00 -0.00000000000E+00 -0.18159215580E+03  0.18159215580E+03  0.00000000000E+00 0. -1.
          6    2    1    2  501    0 -0.31147377654E+02 -0.69689453602E+02 -0.92036474549E+01  0.18899835655E+03  0.17265251974E+03 0.  0.
         24    2    3    3    0    0 -0.53698552001E+02 -0.74902355445E+02 -0.57457535008E+02  0.13527445615E+03  0.80646840109E+02 0.  0.
         -6    2    1    2    0  502  0.31147377654E+02  0.69689453602E+02  0.25559710985E+02  0.19054201859E+03  0.17270258523E+03 0.  0.
        -24    2    5    5    0    0  0.87384935714E+02  0.46898333325E+02  0.16045744014E+02  0.12894085247E+03  0.80825100534E+02 0.  0.
          5    1    3    3  501    0  0.22551174346E+02  0.52129018423E+01  0.48253887553E+02  0.53723900398E+02  0.47000000000E+01 0. -1.
        -13    1    4    4    0    0  0.12453863237E+02  0.78264766392E+01 -0.15425849524E+02  0.21314532123E+02  0.00000000000E+00 0.  1.
         14    1    4    4    0    0 -0.66152415238E+02 -0.82728832084E+02 -0.42031685484E+02  0.11395992403E+03  0.00000000000E+00 0. -1.
         -5    1    5    5    0  502 -0.56237558059E+02  0.22791120278E+02  0.95139669715E+01  0.61601166121E+02  0.47000000000E+01 0.  1.
         13    1    6    6    0    0  0.34567431376E+02  0.63135393745E+02  0.15754967017E+02  0.73683134033E+02  0.00000000000E+00 0. -1.
        -14    1    6    6    0    0  0.52817504338E+02 -0.16237060420E+02  0.29077699646E+00  0.55257718437E+02  0.00000000000E+00 0.  1.
</event>
<event>
12    1  0.1594900E-001  0.1992475E+03  0.7818608E-02  0.1150946E+00
         21   -1    0    0  501  502  0.00000000000E+00  0.00000000000E+00  0.61162822065E+03  0.61162822065E+03  0.00000000000E+00 0. -1.
         21   -1    0    0  502  503 -0.00000000000E+00 -0.00000000000E+00 -0.11141106399E+03  0.11141106399E+03  0.00000000000E+00 0. -1.
         -6    2    1    2    0  503 -0.97337249268E+02 -0.11148993941E+02  0.13406287650E+02  0.19703132055E+03  0.17041940197E+03 0.  0.
        -24    2    3    3    0    0 -0.91878319189E+02 -0.60938088909E+02 -0.19212219295E+02  0.13707457872E+03  0.79153360921E+02 0.  0.
          6    2    1    2  501    0  0.97337249268E+02  0.11148993941E+02  0.48681086901E+03  0.52600796409E+03  0.17349557901E+03 0.  0.
         24    2    5    5    0    0  0.12906651651E+03  0.40701832512E+02  0.39380341066E+03  0.42328214466E+03  0.75972645672E+02 0.  0.
          5    1    5    5  501    0 -0.31729267244E+02 -0.29552838571E+02  0.93007458357E+02  0.10272581943E+03  0.47000000000E+01 0. -1.
        -11    1    6    6    0    0  0.97164419311E+02  0.35284476187E+02  0.18444383078E+03  0.21143662254E+03  0.00000000000E+00 0.  1.
         12    1    6    6    0    0  0.31902097201E+02  0.54173563245E+01  0.20935957988E+03  0.21184552212E+03  0.00000000000E+00 0. -1.
         -5    1    3    3    0  503 -0.54589300791E+01  0.49789094969E+02  0.32618506945E+02  0.59956741829E+02  0.47000000000E+01 0.  1.
         11    1    4    4    0    0 -0.44503461123E+02  0.52302268962E+01 -0.31498441783E+02  0.54772850575E+02  0.00000000000E+00 0. -1.
        -12    1    4    4    0    0 -0.47374858066E+02 -0.66168315806E+02  0.12286222488E+02  0.82301728149E+02  0.00000000000E+00 0.  1.
</event>
<event>
12    1  0.1594900E-001  0.2009016E+03  0.7818608E-02  0.1149017E+00
         21   -1    0    0  503  502  0.00000000000E+00  0.00000000000E+00  0.33789900171E+03  0.33789900171E+03  0.00000000000E+00 0.  1.
         21   -1    0    0  501  503 -0.00000000000E+00 -0.00000000000E+00 -0.19393981687E+03  0.19393981687E+03  0.00000000000E+00 0. -1.
          6    2    1    2  501    0  0.54895332037E+02  0.88156251245E+02 -0.92920145401E+02  0.22134948717E+03  0.17197796352E+03 0.  0.
         24    2    3    3    0    0  0.62579561498E+02 -0.83618735073E+01 -0.63368932174E+02  0.12000768932E+03  0.80000634281E+02 0.  0.
         -6    2    1    2    0  502 -0.54895332037E+02 -0.88156251245E+02  0.23687933024E+03  0.31048933141E+03  0.17177539322E+03 0.  0.
        -24    2    5    5    0    0 -0.13883065093E+02  0.18659552257E+02  0.12564077334E+03  0.15084056550E+03  0.80164542581E+02 0.  0.
          5    1    3    3  501    0 -0.76842294611E+01  0.96518124752E+02 -0.29551213228E+02  0.10134179785E+03  0.47000000000E+01 0. -1.
        -13    1    4    4    0    0  0.59312959367E+02 -0.31506877762E+02 -0.68655255911E+02  0.96042983395E+02  0.00000000000E+00 0.  1.
         14    1    4    4    0    0  0.32666021304E+01  0.23145004254E+02  0.52863237373E+01  0.23964705925E+02  0.00000000000E+00 0. -1.
         -5    1    5    5    0  502 -0.41012266944E+02 -0.10681580350E+03  0.11123855690E+03  0.15964876591E+03  0.47000000000E+01 0.  1.
         13    1    6    6    0    0 -0.36339916499E+02 -0.84363056225E+01  0.26836746207E+02  0.45956193606E+02  0.00000000000E+00 0. -1.
        -14    1    6    6    0    0  0.22456851406E+02  0.27095857880E+02  0.98804027135E+02  0.10488437189E+03  0.00000000000E+00 0.  1.
</event>
<event>
12    1  0.1594900E-001  0.2044663E+03  0.7818608E-02  0.1147541E+00
         21   -1    0    0  503  502  0.00000000000E+00  0.00000000000E+00  0.17171044234E+03  0.17171044234E+03  0.00000000000E+00 0.  1.
         21   -1    0    0  501  503 -0.00000000000E+00 -0.00000000000E+00 -0.38673297271E+03  0.38673297271E+03  0.00000000000E+00 0.  1.
          6    2    1    2  501    0  0.95385925273E+02  0.13828424668E+02 -0.28126634678E+03  0.34351388078E+03  0.17205036586E+03 0.  0.
         24    2    3    3    0    0  0.31024968598E+02  0.29026503403E+02 -0.26256621349E+03  0.27462919942E+03  0.68374660016E+02 0.  0.
         -6    2    1    2    0  502 -0.95385925273E+02 -0.13828424668E+02  0.66243816402E+02  0.21492953427E+03  0.18032404560E+03 0.  0.
        -24    2    5    5    0    0 -0.53371807552E+01 -0.61470805177E+02  0.43942342830E+02  0.11053595911E+03  0.80499213514E+02 0.  0.
          5    1    3    3  501    0  0.64360956676E+02 -0.15198078735E+02 -0.18700133287E+02  0.68884681363E+02  0.47000000000E+01 0. -1.
        -11    1    4    4    0    0  0.27395999923E+02 -0.17302194355E+02 -0.13584583273E+03  0.13965671130E+03  0.00000000000E+00 0.  1.
         12    1    4    4    0    0  0.36289686748E+01  0.46328697758E+02 -0.12672038076E+03  0.13497248812E+03  0.00000000000E+00 0. -1.
         -5    1    5    5    0  502 -0.90048744518E+02  0.47642380509E+02  0.22301473572E+02  0.10439357515E+03  0.47000000000E+01 0.  1.
         13    1    6    6    0    0 -0.36988779104E+02 -0.57699310459E+02  0.22567944103E+02  0.72157413397E+02  0.00000000000E+00 0. -1.
        -14    1    6    6    0    0  0.31651598349E+02 -0.37714947174E+01  0.21374398727E+02  0.38378545717E+02  0.00000000000E+00 0.  1.
</event>
<event>
12    1  0.1594900E-001  0.2872840E+03  0.7818608E-02  0.1093707E+00
         21   -1    0    0  501  502  0.00000000000E+00  0.00000000000E+00  0.42896615615E+03  0.42896615615E+03  0.00000000000E+00 0. -1.
         21   -1    0    0  502  503 -0.00000000000E+00 -0.00000000000E+00 -0.36376215351E+03  0.36376215351E+03  0.00000000000E+00 0.  1.
         -6    2    1    2    0  503 -0.15849972459E+03  0.14104389447E+03 -0.24718623714E+03  0.36832315120E+03  0.17188765230E+03 0.  0.
        -24    2    3    3    0    0 -0.44144277897E+02  0.90833529263E+02 -0.18179080812E+03  0.22726677559E+03  0.91667017301E+02 0.  0.
          6    2    1    2  501    0  0.15849972459E+03 -0.14104389447E+03  0.31239023977E+03  0.42440515847E+03  0.19369185261E+03 0.  0.
         24    2    5    5    0    0  0.29641713240E+02 -0.19668203679E+02  0.19190420329E+03  0.21021967719E+03  0.78100064259E+02 0.  0.
          5    1    5    5  501    0  0.12885801135E+03 -0.12137569079E+03  0.12048603649E+03  0.21418548128E+03  0.47000000000E+01 0. -1.
        -11    1    6    6    0    0 -0.16562528056E+02  0.11908344289E+02  0.10422550909E+03  0.10620302606E+03  0.00000000000E+00 0.  1.
         12    1    6    6    0    0  0.46204241296E+02 -0.31576547968E+02  0.87678694199E+02  0.10401665113E+03  0.00000000000E+00 0. -1.
         -5    1    3    3    0  503 -0.11435544669E+03  0.50210365208E+02 -0.65395429019E+02  0.14105637561E+03  0.47000000000E+01 0.  1.
         13    1    4    4    0    0  0.23154444042E+02 -0.12757410009E+00 -0.27944168832E+02  0.36290785686E+02  0.00000000000E+00 0. -1.
        -14    1    4    4    0    0 -0.67298721938E+02  0.90961103363E+02 -0.15384663929E+03  0.19097598990E+03  0.00000000000E+00 0.  1.
</event>
<event>
12    1  0.1594900E-001  0.2228862E+03  0.7818608E-02  0.1131761E+00
         21   -1    0    0  503  502  0.00000000000E+00  0.00000000000E+00  0.81402250512E+02  0.81402250512E+02  0.00000000000E+00 0. -1.
         21   -1    0    0  501  503 -0.00000000000E+00 -0.00000000000E+00 -0.89869990758E+03  0.89869990758E+03  0.00000000000E+00 0. -1.
          6    2    1    2  501    0 -0.13893445032E+03  0.23856981886E+02 -0.68630960873E+03  0.72157532741E+03  0.17256342898E+03 0.  0.
         24    2    3    3    0    0 -0.21372912894E+02 -0.16515050530E+02 -0.41021721484E+03  0.41875571766E+03  0.79678349781E+02 0.  0.
         -6    2    1    2    0  502  0.13893445032E+03 -0.23856981886E+02 -0.13098804835E+03  0.25852683069E+03  0.17264505873E+03 0.  0.
        -24    2    5    5    0    0  0.97998682078E+02  0.40073212938E+02 -0.12449235805E+03  0.18219144620E+03  0.80534289419E+02 0.  0.
          5    1    3    3  501    0 -0.11756153743E+03  0.40372032416E+02 -0.27609239389E+03  0.30281960975E+03  0.47000000000E+01 0. -1.
        -13    1    4    4    0    0 -0.26376705944E+02  0.13892788088E+02 -0.58188750261E+02  0.65380966911E+02  0.00000000000E+00 0.  1.
         14    1    4    4    0    0  0.50037930495E+01 -0.30407838618E+02 -0.35202846458E+03  0.35337475075E+03  0.00000000000E+00 0. -1.
         -5    1    5    5    0  502  0.40935768245E+02 -0.63930194824E+02 -0.64956902923E+01  0.76335384484E+02  0.47000000000E+01 0.  1.
         13    1    6    6    0    0  0.47209997218E+02  0.57446958240E+02 -0.47145755313E+02  0.88043506816E+02  0.00000000000E+00 0. -1.
        -14    1    6    6    0    0  0.50788684860E+02 -0.17373745303E+02 -0.77346602740E+02  0.94147939388E+02  0.00000000000E+00 0.  1.
</event>
<event>
12    1  0.1594900E-001  0.2676632E+03  0.7818608E-02  0.1102688E+00
         21   -1    0    0  501  502  0.00000000000E+00  0.00000000000E+00  0.62364144361E+03  0.62364144361E+03  0.00000000000E+00 0.  1.
         21   -1    0    0  502  503 -0.00000000000E+00 -0.00000000000E+00 -0.13461495891E+03  0.13461495891E+03  0.00000000000E+00 0. -1.
         -6    2    1    2    0  503 -0.17343755515E+03 -0.10940263516E+03  0.98492996280E+02  0.28480103836E+03  0.17135121540E+03 0.  0.
        -24    2    3    3    0    0 -0.43351722300E+02  0.10112173687E+02  0.97086714906E+01  0.87036380827E+02  0.74158245680E+02 0.  0.
          6    2    1    2  501    0  0.17343755515E+03  0.10940263516E+03  0.39053348843E+03  0.47345536415E+03  0.17202922469E+03 0.  0.
         24    2    5    5    0    0  0.17790205554E+03  0.76249653266E+02  0.23777929002E+03  0.31701052690E+03  0.80582457234E+02 0.  0.
          5    1    5    5  501    0 -0.44645003952E+01  0.33152981897E+02  0.15275419841E+03  0.15644483725E+03  0.47000000000E+01 0. -1.
        -11    1    6    6    0    0  0.23294596417E+01 -0.12588282222E+02  0.16812697371E+02  0.21131919563E+02  0.00000000000E+00 0.  1.
         12    1    6    6    0    0  0.17557259590E+03  0.88837935488E+02  0.22096659265E+03  0.29587860734E+03  0.00000000000E+00 0. -1.
         -5    1    3    3    0  503 -0.13008583285E+03 -0.11951480885E+03  0.88784324789E+02  0.19776465754E+03  0.47000000000E+01 0.  1.
         13    1    4    4    0    0  0.75842823078E+01 -0.23417263006E+01 -0.23610835980E+02  0.24909367633E+02  0.00000000000E+00 0. -1.
        -14    1    4    4    0    0 -0.50936004608E+02  0.12453899988E+02  0.33319507471E+02  0.62127013194E+02  0.00000000000E+00 0.  1.
</event>
<event>
12    1  0.1594900E-001  0.1762946E+03  0.7818608E-02  0.1171746E+00
         21   -1    0    0  501  502  0.00000000000E+00  0.00000000000E+00  0.14619229856E+03  0.14619229856E+03  0.00000000000E+00 0.  1.
         21   -1    0    0  502  503 -0.00000000000E+00 -0.00000000000E+00 -0.47707428441E+03  0.47707428441E+03  0.00000000000E+00 0.  1.
         -6    2    1    2    0  503 -0.11205049674E+02 -0.35248609727E+02 -0.39786529686E+03  0.43467559468E+03  0.17110832983E+03 0.  0.
        -24    2    3    3    0    0  0.10441848501E+02 -0.28061015724E+02 -0.82956867957E+02  0.11890723290E+03  0.79753591082E+02 0.  0.
          6    2    1    2  501    0  0.11205049674E+02  0.35248609727E+02  0.66983311015E+02  0.18859098829E+03  0.17237105118E+03 0.  0.
         24    2    5    5    0    0 -0.40605752677E+01  0.89197394981E+02  0.45652954353E+02  0.12841969239E+03  0.80216965847E+02 0.  0.
          5    1    5    5  501    0  0.15265624942E+02 -0.53948785254E+02  0.21330356662E+02  0.60171295903E+02  0.47000000000E+01 0. -1.
        -11    1    6    6    0    0 -0.39322322979E+02  0.67587579544E+02  0.24343559907E+02  0.81895878419E+02  0.00000000000E+00 0.  1.
         12    1    6    6    0    0  0.35261747711E+02  0.21609815437E+02  0.21309394446E+02  0.46523813972E+02  0.00000000000E+00 0. -1.
         -5    1    3    3    0  503 -0.21646898175E+02 -0.71875940033E+01 -0.31490842890E+03  0.31576836178E+03  0.47000000000E+01 0.  1.
         13    1    4    4    0    0  0.34578565852E+02 -0.41871491924E+02 -0.68960862754E+02  0.87775279232E+02  0.00000000000E+00 0. -1.
        -14    1    4    4    0    0 -0.24136717352E+02  0.13810476200E+02 -0.13996005203E+02  0.31131953666E+02  0.00000000000E+00 0.  1.
</event>
<event>
12    1  0.1594900E-001  0.1982420E+03  0.7818608E-02  0.1151356E+00
         21   -1    0    0  503  502  0.00000000000E+00  0.00000000000E+00  0.84954128253E+02  0.84954128253E+02  0.00000000000E+00 0.  1.
         21   -1    0    0  501  503 -0.00000000000E+00 -0.00000000000E+00 -0.12178936001E+04  0.12178936001E+04  0.00000000000E+00 0.  1.
          6    2    1    2  501    0 -0.83707364583E+02 -0.49062349689E+02 -0.10796147123E+04  0.10975591449E+04  0.17220369522E+03 0.  0.
         24    2    3    3    0    0 -0.54381585811E+01  0.68714394622E+01 -0.23634436790E+03  0.24880616493E+03  0.77259673964E+02 0.  0.
         -6    2    1    2    0  502  0.83707364583E+02  0.49062349689E+02 -0.53324759600E+02  0.20528858344E+03  0.17287520198E+03 0.  0.
        -24    2    5    5    0    0  0.98025943149E+01 -0.34469923944E+02 -0.31973730798E+02  0.91633349341E+02  0.78038994985E+02 0.  0.
          5    1    3    3  501    0 -0.78269206002E+02 -0.55933789151E+02 -0.84327034436E+03  0.84875297999E+03  0.47000000000E+01 0. -1.
        -13    1    4    4    0    0 -0.10427876278E+02 -0.18637816420E+02 -0.21238312507E+03  0.21345421200E+03  0.00000000000E+00 0.  1.
         14    1    4    4    0    0  0.49897176971E+01  0.25509255882E+02 -0.23961242829E+02  0.35351952934E+02  0.00000000000E+00 0. -1.
         -5    1    5    5    0  502  0.73904770268E+02  0.83532273633E+02 -0.21351028802E+02  0.11365523410E+03  0.47000000000E+01 0.  1.
         11    1    6    6    0    0  0.17691150510E+02 -0.40030478066E+02  0.12984374544E+02  0.45650957962E+02  0.00000000000E+00 0. -1.
        -12    1    6    6    0    0 -0.78885561948E+01  0.55605541219E+01 -0.44958105342E+02  0.45982391379E+02  0.00000000000E+00 0.  1.
</event>
<event>
12    1  0.1594900E-001  0.1757452E+03  0.7818608E-02  0.1172453E+00
         21   -1    0    0  503  502  0.00000000000E+00  0.00000000000E+00  0.40779364901E+03  0.40779364901E+03  0.00000000000E+00 0.  1.
         21   -1    0    0  501  503 -0.00000000000E+00 -0.00000000000E+00 -0.15704889167E+03  0.15704889167E+03  0.00000000000E+00 0.  1.
          6    2    1    2  501    0 -0.52675088868E+01  0.22755296683E+02 -0.79153013609E+02  0.19105261095E+03  0.17230888082E+03 0.  0.
         24    2    3    3    0    0 -0.47104087128E+02  0.57350078497E+02 -0.20913637574E+02  0.11129665112E+03  0.80260437241E+02 0.  0.
         -6    2    1    2    0  502  0.52675088868E+01 -0.22755296683E+02  0.32989777094E+03  0.37378992973E+03  0.17418617085E+03 0.  0.
        -24    2    5    5    0    0  0.44145272701E+02  0.21913673222E+02  0.10235572709E+03  0.13862133252E+03  0.79436545656E+02 0.  0.
          5    1    3    3  501    0  0.41836578241E+02 -0.34594781814E+02 -0.58239376036E+02  0.79755959832E+02  0.47000000000E+01 0. -1.
        -11    1    4    4    0    0  0.16785471254E+02  0.34218488208E+02 -0.20649313637E+02  0.43348023417E+02  0.00000000000E+00 0.  1.
         12    1    4    4    0    0 -0.63889558382E+02  0.23131590289E+02 -0.26432393674E+00  0.67948627703E+02  0.00000000000E+00 0. -1.
         -5    1    5    5    0  502 -0.38877763814E+02 -0.44668969905E+02  0.22754204385E+03  0.23516859720E+03  0.47000000000E+01 0.  1.
         11    1    6    6    0    0  0.32621134339E+02  0.14899461249E+02  0.11479767774E+03  0.12026902829E+03  0.00000000000E+00 0. -1.
        -12    1    6    6    0    0  0.11524138362E+02  0.70142119732E+01 -0.12441950650E+02  0.18352304231E+02  0.00000000000E+00 0.  1.
</event>
<event>
12    1  0.1594900E-001  0.1910856E+03  0.7818608E-02  0.1158157E+00
         21   -1    0    0  501  502  0.00000000000E+00  0.00000000000E+00  0.12028378708E+03  0.12028378708E+03  0.00000000000E+00 0. -1.
         21   -1    0    0  502  503 -0.00000000000E+00 -0.00000000000E+00 -0.35373715364E+03  0.35373715364E+03  0.00000000000E+00 0. -1.
         -6    2    1    2    0  503 -0.76362204210E+02  0.18869240924E+02 -0.20930468810E+03  0.28141543423E+03  0.17087703087E+03 0.  0.
        -24    2    3    3    0    0 -0.29275206060E+02 -0.52239175911E+02 -0.91825077094E+02  0.13616688401E+03  0.80768845029E+02 0.  0.
          6    2    1    2  501    0  0.76362204210E+02 -0.18869240924E+02 -0.24148678457E+02  0.19260550648E+03  0.17414501994E+03 0.  0.
         24    2    5    5    0    0  0.33379704037E+02 -0.68757157401E+02  0.19579343258E+02  0.11341883201E+03  0.81478398585E+02 0.  0.
          5    1    5    5  501    0  0.42982500173E+02  0.49887916476E+02 -0.43728021715E+02  0.79186674476E+02  0.47000000000E+01 0. -1.
        -13    1    6    6    0    0 -0.73151769645E+01 -0.25745995504E+02 -0.27048007945E+02  0.38052106805E+02  0.00000000000E+00 0.  1.
         14    1    6    6    0    0  0.40694881001E+02 -0.43011161896E+02  0.46627351203E+02  0.75366725201E+02  0.00000000000E+00 0. -1.
         -5    1    3    3    0  503 -0.47086998150E+02  0.71108416835E+02 -0.11747961101E+03  0.14524855022E+03  0.47000000000E+01 0.  1.
         13    1    4    4    0    0  0.81328412676E+01 -0.19877657741E+02 -0.83237378903E+02  0.85963513370E+02  0.00000000000E+00 0. -1.
        -14    1    4    4    0    0 -0.37408047328E+02 -0.32361518170E+02 -0.85876981916E+01  0.50203370638E+02  0.00000000000E+00 0.  1.
</event>
<event>
12    1  0.1594900E-001  0.2527435E+03  0.7818608E-02  0.1111796E+00
         21   -1    0    0  503  502  0.00000000000E+00  0.00000000000E+00  0.54370498135E+03  0.54370498135E+03  0.00000000000E+00 0.  1.
         21   -1    0    0  501  503 -0.00000000000E+00 -0.00000000000E+00 -0.11936661764E+03  0.11936661764E+03  0.00000000000E+00 0.  1.
          6    2    1    2  501    0  0.15850278880E+03  0.91903183700E+02  0.16351823329E+03  0.29988236279E+03  0.17211010913E+03 0.  0.
         24    2    3    3    0    0  0.11433001873E+03  0.10554595331E+03  0.58346868023E+02  0.18490208253E+03  0.81074790611E+02 0.  0.
         -6    2    1    2    0  502 -0.15850278880E+03 -0.91903183700E+02  0.26082013042E+03  0.36318923620E+03  0.17409753481E+03 0.  0.
        -24    2    5    5    0    0 -0.77774023811E+02 -0.66256375121E+02  0.24464749808E+03  0.27682641825E+03  0.79635177519E+02 0.  0.
          5    1    3    3  501    0  0.44172770074E+02 -0.13642769610E+02  0.10517136526E+03  0.11498028027E+03  0.47000000000E+01 0. -1.
        -13    1    4    4    0    0  0.48060385819E+02  0.86881826287E+02  0.60045730633E+02  0.11603336672E+03  0.00000000000E+00 0.  1.
         14    1    4    4    0    0  0.66269632911E+02  0.18664127023E+02 -0.16988626098E+01  0.68868715813E+02  0.00000000000E+00 0. -1.
         -5    1    5    5    0  502 -0.80728764992E+02 -0.25646808579E+02  0.16172632336E+02  0.86362817949E+02  0.47000000000E+01 0.  1.
         11    1    6    6    0    0 -0.56293252290E+01 -0.34683579225E+02  0.14821805674E+03  0.15232607234E+03  0.00000000000E+00 0. -1.
        -12    1    6    6    0    0 -0.72144698582E+02 -0.31572795896E+02  0.96429441346E+02  0.12450034591E+03  0.00000000000E+00 0.  1.
</event>
<event>
12    1  0.1594900E-001  0.2363662E+03  0.7818608E-02  0.1122606E+00
         21   -1    0    0  503  502  0.00000000000E+00  0.00000000000E+00  0.39022590188E+03  0.39022590188E+03  0.00000000000E+00 0. -1.
         21   -1    0    0  501  503 -0.00000000000E+00 -0.00000000000E+00 -0.22253045311E+03  0.22253045311E+03  0.00000000000E+00 0. -1.
          6    2    1    2  501    0  0.15933545530E+03  0.78423543484E+01 -0.10036508462E+03  0.25679200258E+03  0.17441242084E+03 0.  0.
         24    2    3    3    0    0  0.12030546967E+03 -0.55927347112E+02 -0.45180170994E+02  0.16374696352E+03  0.84679076652E+02 0.  0.
         -6    2    1    2    0  502 -0.15933545530E+03 -0.78423543484E+01  0.26806053339E+03  0.35596435241E+03  0.17147851409E+03 0.  0.
        -24    2    5    5    0    0 -0.24791921094E+02 -0.13363767162E+02  0.16747990744E+03  0.18782452694E+03  0.80220345920E+02 0.  0.
          5    1    3    3  501    0  0.39029985624E+02  0.63769701461E+02 -0.55184913624E+02  0.93045039061E+02  0.47000000000E+01 0. -1.
        -13    1    4    4    0    0  0.16748160651E+02  0.18235179758E+02  0.75569724076E+01  0.25886878876E+02  0.00000000000E+00 0.  1.
         14    1    4    4    0    0  0.10355730902E+03 -0.74162526870E+02 -0.52737143401E+02  0.13786008464E+03  0.00000000000E+00 0. -1.
         -5    1    5    5    0  502 -0.13454353420E+03  0.55214128132E+01  0.10058062594E+03  0.16813982547E+03  0.47000000000E+01 0.  1.
         13    1    6    6    0    0  0.10613066650E+00  0.23343830584E+02  0.12231178653E+03  0.12451955194E+03  0.00000000000E+00 0. -1.
        -14    1    6    6    0    0 -0.24898051761E+02 -0.36707597746E+02  0.45168120914E+02  0.63304975007E+02  0.00000000000E+00 0.  1.
</event>
<event>
12    1  0.1594900E-001  0.1812777E+03  0.7818608E-02  0.1167492E+00
         21   -1    0    0  503  502  0.00000000000E+00  0.00000000000E+00  0.54508528556E+02  0.54508528556E+02  0.00000000000E+00 0. -1.
         21   -1    0    0  501  503 -0.00000000000E+00 -0.00000000000E+00 -0.59765763535E+03  0.59765763535E+03  0.00000000000E+00 0. -1.
          6    2    1    2  501    0 -0.36269733112E+02  0.49427913000E+02 -0.30485128372E+03  0.35275429989E+03  0.16656133639E+03 0.  0.
         24    2    3    3    0    0 -0.66791017748E+01 -0.34329953463E+02 -0.17338349965E+03  0.19401913080E+03  0.79739758340E+02 0.  0.
         -6    2    1    2    0  502  0.36269733112E+02 -0.49427913000E+02 -0.23829782308E+03  0.29941186402E+03  0.17059601317E+03 0.  0.
        -24    2    5    5    0    0 -0.38034473320E+02 -0.44103309993E+02 -0.85642635173E+02  0.12948493006E+03  0.77717199131E+02 0.  0.
          5    1    3    3  501    0 -0.29590631338E+02  0.83757866462E+02 -0.13146778407E+03  0.15873516909E+03  0.47000000000E+01 0. -1.
        -13    1    4    4    0    0 -0.40910876949E+02 -0.14477726759E+02 -0.60919454680E+02  0.74796285893E+02  0.00000000000E+00 0.  1.
         14    1    4    4    0    0  0.34231775174E+02 -0.19852226703E+02 -0.11246404497E+03  0.11922284490E+03  0.00000000000E+00 0. -1.
         -5    1    5    5    0  502  0.74304206432E+02 -0.53246030062E+01 -0.15265518791E+03  0.16992693396E+03  0.47000000000E+01 0.  1.
         13    1    6    6    0    0 -0.47728355304E+02 -0.60827234512E+02 -0.73365496618E+02  0.10658538574E+03  0.00000000000E+00 0. -1.
        -14    1    6    6    0    0  0.96938819845E+01  0.16723924519E+02 -0.12277138555E+02  0.22899544326E+02  0.00000000000E+00 0.  1.
</event>
<event>
12    1  0.1594900E-001  0.2588681E+03  0.7818608E-02  0.1107826E+00
         21   -1    0    0  501  502  0.00000000000E+00  0.00000000000E+00  0.80465942716E+03  0.80465942716E+03  0.00000000000E+00 0.  1.
         21   -1    0    0  502  503 -0.00000000000E+00 -0.00000000000E+00 -0.99716423546E+02  0.99716423546E+02  0.00000000000E+00 0. -1.
         -6    2    1    2    0  503  0.14623879207E+03  0.12687378355E+03  0.16887365783E+03  0.30907504188E+03  0.17183226690E+03 0.  0.
        -24    2    3    3    0    0  0.91898762068E+02  0.17672520313E+02  0.34464030277E+02  0.12751019745E+03  0.79456784657E+02 0.  0.
          6    2    1    2  501    0 -0.14623879207E+03 -0.12687378355E+03  0.53606934579E+03  0.59530080883E+03  0.17184285915E+03 0.  0.
         24    2    5    5    0    0 -0.60548505142E+02  0.61014029894E+01  0.17918108830E+03  0.20489519431E+03  0.78567357448E+02 0.  0.
          5    1    5    5  501    0 -0.85690286924E+02 -0.13297518654E+03  0.35688825749E+03  0.39040561451E+03  0.47000000000E+01 0. -1.
        -11    1    6    6    0    0 -0.66438798224E+02 -0.13365375792E+02  0.16914311053E+03  0.18221454118E+03  0.00000000000E+00 0.  1.
         12    1    6    6    0    0  0.58902930826E+01  0.19466778781E+02  0.10037977767E+02  0.22680653129E+02  0.00000000000E+00 0. -1.
         -5    1    3    3    0  503  0.54340029997E+02  0.10920126324E+03  0.13440962755E+03  0.18156484443E+03  0.47000000000E+01 0.  1.
         13    1    4    4    0    0  0.11896439027E+02 -0.27149969866E+02  0.28065072068E+00  0.29643294184E+02  0.00000000000E+00 0. -1.
        -14    1    4    4    0    0  0.80002323041E+02  0.44822490179E+02  0.34183379557E+02  0.97866903270E+02  0.00000000000E+00 0.  1.
</event>
<event>
12    1  0.1594900E-001  0.1809139E+03  0.7818608E-02  0.1167362E+00
         21   -1    0    0  501  502  0.00000000000E+00  0.00000000000E+00  0.25284896195E+03  0.25284896195E+03  0.00000000000E+00 0. -1.
         21   -1    0    0  502  503 -0.00000000000E+00 -0.00000000000E+00 -0.28102578687E+03  0.28102578687E+03  0.00000000000E+00 0. -1.
         -6    2    1    2    0  503  0.18120633781E+01 -0.55166920171E+02 -0.21100634854E+03  0.27794515861E+03  0.17228801297E+03 0.  0.
        -24    2    3    3    0    0 -0.25858265715E+02 -0.69299807084E+02 -0.21895958189E+03  0.24553020025E+03  0.82889490080E+02 0.  0.
          6    2    1    2  501    0 -0.18120633781E+01  0.55166920171E+02  0.18282952362E+03  0.25592959021E+03  0.17037208627E+03 0.  0.
         24    2    5    5    0    0 -0.57651003665E+01  0.85585849239E+02  0.66471960120E+02  0.13550488206E+03  0.81147258788E+02 0.  0.
          5    1    5    5  501    0  0.39530369884E+01 -0.30418929068E+02  0.11635756350E+03  0.12042470814E+03  0.47000000000E+01 0. -1.
        -13    1    6    6    0    0 -0.24867210875E+02  0.20474224370E+02 -0.95567368352E+01  0.33599155632E+02  0.00000000000E+00 0.  1.
         14    1    6    6    0    0  0.19102110508E+02  0.65111624869E+02  0.76028696955E+02  0.10190572643E+03  0.00000000000E+00 0. -1.
         -5    1    3    3    0  503  0.27670329093E+02  0.14132886913E+02  0.79532333460E+01  0.32414958356E+02  0.47000000000E+01 0.  1.
         13    1    4    4    0    0  0.19798422000E+02 -0.73710564992E+00 -0.12967440196E+02  0.23678584072E+02  0.00000000000E+00 0. -1.
        -14    1    4    4    0    0 -0.45656687715E+02 -0.68562701434E+02 -0.20599214169E+03  0.22185161618E+03  0.00000000000E+00 0.  1.
</event>
<event>
12    1  0.1594900E-001  0.1976062E+03  0.7818608E-02  0.1151955E+00
         21   -1    0    0  503  502  0.00000000000E+00  0.00000000000E+00  0.28291962530E+03  0.28291962530E+03  0.00000000000E+00 0.  1.
         21   -1    0    0  501  503 -0.00000000000E+00 -0.00000000000E+00 -0.27474875392E+03  0.27474875392E+03  0.00000000000E+00 0.  1.
          6    2    1    2  501    0  0.80265811764E+02  0.53346277647E+02  0.20120504770E+03  0.28142498601E+03  0.17154627846E+03 0.  0.
         24    2    3    3    0    0  0.93310680466E+02 -0.18415234155E+02  0.12492927122E+03  0.17578423983E+03  0.79036524645E+02 0.  0.
         -6    2    1    2    0  502 -0.80265811764E+02 -0.53346277647E+02 -0.19303417632E+03  0.27624339320E+03  0.17251026978E+03 0.  0.
        -24    2    5    5    0    0 -0.15365011170E+02  0.82544417613E+01  0.11028870091E+02  0.53374419445E+02  0.49223706672E+02 0.  0.
          5    1    3    3  501    0 -0.13044868702E+02  0.71761511802E+02  0.76275776482E+02  0.10564074618E+03  0.47000000000E+01 0. -1.
        -13    1    4    4    0    0  0.31387790444E+02  0.26645102119E+02  0.71153602790E+02  0.82206995115E+02  0.00000000000E+00 0.  1.
         14    1    4    4    0    0  0.61922890022E+02 -0.45060336275E+02  0.53775668432E+02  0.93577244718E+02  0.00000000000E+00 0. -1.
         -5    1    5    5    0  502 -0.64900800594E+02 -0.61600719409E+02 -0.20406304642E+03  0.22286897375E+03  0.47000000000E+01 0.  1.
         13    1    6    6    0    0  0.58180945621E+01  0.24100161351E+02  0.10475333881E+02  0.26914691553E+02  0.00000000000E+00 0. -1.
        -14    1    6    6    0    0 -0.21183105732E+02 -0.15845719590E+02  0.55353621009E+00  0.26459727892E+02  0.00000000000E+00 0.  1.
</event>
<event>
12    1  0.1594900E-001  0.3396571E+03  0.7818608E-02  0.1066971E+00
         21   -1    0    0  501  502  0.00000000000E+00  0.00000000000E+00  0.86606367589E+02  0.86606367589E+02  0.00000000000E+00 0.  1.
         21   -1    0    0  502  503 -0.00000000000E+00 -0.00000000000E+00 -0.20176332718E+04  0.20176332718E+04  0.00000000000E+00 0. -1.
         -6    2    1    2    0  503  0.21020658171E+03 -0.20400530966E+03 -0.15795345093E+04  0.16156411117E+04  0.17193592521E+03 0.  0.
        -24    2    3    3    0    0  0.91648728810E+02 -0.55474446548E+02 -0.92250109558E+03  0.93165837907E+03  0.74176547820E+02 0.  0.
          6    2    1    2  501    0 -0.21020658171E+03  0.20400530966E+03 -0.35149239482E+03  0.48859852760E+03  0.17139616155E+03 0.  0.
         24    2    5    5    0    0 -0.15828462176E+03  0.97974038670E+02 -0.29365594439E+03  0.35704752855E+03  0.81216933144E+02 0.  0.
          5    1    5    5  501    0 -0.51921959948E+02  0.10603127099E+03 -0.57836450431E+02  0.13155099905E+03  0.47000000000E+01 0. -1.
        -11    1    6    6    0    0 -0.76167768876E+02  0.43134131360E+02 -0.68365888646E+02  0.11106744363E+03  0.00000000000E+00 0.  1.
         12    1    6    6    0    0 -0.82116852886E+02  0.54839907310E+02 -0.22529005574E+03  0.24598008492E+03  0.00000000000E+00 0. -1.
         -5    1    3    3    0  503  0.11855785290E+03 -0.14853086311E+03 -0.65703341376E+03  0.68398273267E+03  0.47000000000E+01 0.  1.
         11    1    4    4    0    0  0.68142297212E+02 -0.73402337819E+02 -0.67296790650E+03  0.68038009895E+03  0.00000000000E+00 0. -1.
        -12    1    4    4    0    0  0.23506431598E+02  0.17927891271E+02 -0.24953318908E+03  0.25127828013E+03  0.00000000000E+00 0.  1.
</event>
<event>
12    1  0.1594900E-001  0.1728343E+03  0.7818608E-02  0.1175194E+00
         21   -1    0    0  503  502  0.00000000000E+00  0.00000000000E+00  0.23975892325E+03  0.23975892325E+03  0.00000000000E+00 0.  1.
         21   -1    0    0  501  503 -0.00000000000E+00 -0.00000000000E+00 -0.29506171827E+03  0.29506171827E+03  0.00000000000E+00 0.  1.
          6    2    1    2  501    0  0.13526287970E+02  0.10881642420E+02 -0.23139645712E+03  0.28881829290E+03  0.17196021439E+03 0.  0.
         24    2    3    3    0    0 -0.31978173589E+02  0.58928362345E+02 -0.18300117275E+03  0.20670046982E+03  0.68851285545E+02 0.  0.
         -6    2    1    2    0  502 -0.13526287970E+02 -0.10881642420E+02  0.17609366210E+03  0.24600234862E+03  0.17089999148E+03 0.  0.
        -24    2    5    5    0    0 -0.23851811199E+01  0.38600823748E+02  0.34656806807E+02  0.95672335800E+02  0.80351657707E+02 0.  0.
          5    1    3    3  501    0  0.45504461559E+02 -0.48046719925E+02 -0.48395284376E+02  0.82117823079E+02  0.47000000000E+01 0. -1.
        -13    1    4    4    0    0 -0.22492940894E+02  0.64784301231E+02 -0.18313330951E+03  0.19555241530E+03  0.00000000000E+00 0.  1.
         14    1    4    4    0    0 -0.94852326952E+01 -0.58559388860E+01  0.13213676144E+00  0.11148054523E+02  0.00000000000E+00 0. -1.
         -5    1    5    5    0  502 -0.11141106850E+02 -0.49482466168E+02  0.14143685530E+03  0.15033001282E+03  0.47000000000E+01 0.  1.
         13    1    6    6    0    0  0.25076245674E+02 -0.12127800758E+02 -0.97140911501E+00  0.27871944388E+02  0.00000000000E+00 0. -1.
        -14    1    6    6    0    0 -0.27461426793E+02  0.50728624506E+02  0.35628215922E+02  0.67800391412E+02  0.00000000000E+00 0.  1.
</event>
<event>
12    1  0.1594900E-001  0.1808985E+03  0.7818608E-02  0.1168451E+00
         21   -1    0    0  503  502  0.00000000000E+00  0.00000000000E+00  0.16959383893E+02  0.16959383893E+02  0.00000000000E+00 0. -1.
         21   -1    0    0  501  503 -0.00000000000E+00 -0.00000000000E+00 -0.22933336773E+04  0.22933336773E+04  0.00000000000E+00 0. -1.
          6    2    1    2  501    0  0.14718219245E+02  0.28673600185E+02 -0.65462113183E+03  0.67915616422E+03  0.17800412308E+03 0.  0.
         24    2    3    3    0    0 -0.30498638545E+02 -0.37970325665E+02 -0.43537620124E+03  0.44554022583E+03  0.81127946108E+02 0.  0.
         -6    2    1    2    0  502 -0.14718219245E+02 -0.28673600185E+02 -0.16217531615E+04  0.16311368969E+04  0.17171330252E+03 0.  0.
        -24    2    5    5    0    0  0.29940150374E+02  0.10961109028E+02 -0.13586332351E+04  0.13612860755E+04  0.78733431663E+02 0.  0.
          5    1    3    3  501    0  0.45216857790E+02  0.66643925850E+02 -0.21924493059E+03  0.23361593839E+03  0.47000000000E+01 0. -1.
        -11    1    4    4    0    0 -0.13904596204E+02 -0.52337339657E+02 -0.40175698266E+03  0.40539019233E+03  0.00000000000E+00 0.  1.
         12    1    4    4    0    0 -0.16594042341E+02  0.14367013993E+02 -0.33619218584E+02  0.40150033505E+02  0.00000000000E+00 0. -1.
         -5    1    5    5    0  502 -0.44658369619E+02 -0.39634709214E+02 -0.26311992643E+03  0.26985082145E+03  0.47000000000E+01 0.  1.
         13    1    6    6    0    0  0.22021979555E+02 -0.31956902809E+02 -0.80519266410E+03  0.80612743257E+03  0.00000000000E+00 0. -1.
        -14    1    6    6    0    0  0.79181708190E+01  0.42918011838E+02 -0.55344057101E+03  0.55515864292E+03  0.00000000000E+00 0.  1.
</event>
<event>
12    1  0.1594900E-001  0.2080998E+03  0.7818608E-02  0.1143948E+00
         21   -1    0    0  503  502  0.00000000000E+00  0.00000000000E+00  0.18140417374E+04  0.18140417374E+04  0.00000000000E+00 0. -1.
         21   -1    0    0  501  503 -0.00000000000E+00 -0.00000000000E+00 -0.23737253850E+02  0.23737253850E+02  0.00000000000E+00 0. -1.
          6    2    1    2  501    0 -0.10053625941E+03  0.44536033493E+02  0.79208584184E+03  0.81896612658E+03  0.17667636490E+03 0.  0.
         24    2    3    3    0    0 -0.92577321435E+02  0.26345288071E+02  0.28759575185E+03  0.31406357281E+03  0.81608679902E+02 0.  0.
         -6    2    1    2    0  502  0.10053625941E+03 -0.44536033493E+02  0.99821864168E+03  0.10188128646E+04  0.17160477503E+03 0.  0.
        -24    2    5    5    0    0  0.85392756309E+02  0.27908955337E+02  0.47249417087E+03  0.48788357434E+03  0.81907313343E+02 0.  0.
          5    1    3    3  501    0 -0.79589379776E+01  0.18190745422E+02  0.50449008999E+03  0.50490255377E+03  0.47000000000E+01 0. -1.
        -13    1    4    4    0    0  0.32861002663E+01  0.11736731906E+02  0.18693456446E+01  0.12330603551E+02  0.00000000000E+00 0.  1.
         14    1    4    4    0    0 -0.95863421701E+02  0.14608556165E+02  0.28572640621E+03  0.30173296926E+03  0.00000000000E+00 0. -1.
         -5    1    5    5    0  502  0.15143503104E+02 -0.72444988830E+02  0.52572447080E+03  0.53092929030E+03  0.47000000000E+01 0.  1.
         11    1    6    6    0    0  0.90408545846E+02  0.20083200373E+02  0.46883406155E+03  0.47789373021E+03  0.00000000000E+00 0. -1.
        -12    1    6    6    0    0 -0.50157895375E+01  0.78257549642E+01  0.36601093185E+01  0.99898441263E+01  0.00000000000E+00 0.  1.
</event>
<event>
12    1  0.1594900E-001  0.2432176E+03  0.7818608E-02  0.1117752E+00
         21   -1    0    0  501  502  0.00000000000E+00  0.00000000000E+00  0.22357357455E+03  0.22357357455E+03  0.00000000000E+00 0.  1.
         21   -1    0    0  502  503 -0.00000000000E+00 -0.00000000000E+00 -0.32645269545E+03  0.32645269545E+03  0.00000000000E+00 0. -1.
         -6    2    1    2    0  503 -0.16886938041E+03  0.31146602011E+02  0.68867380523E+02  0.25228198597E+03  0.17151240738E+03 0.  0.
        -24    2    3    3    0    0 -0.23324455521E+02  0.81917763545E+01  0.63275123699E+02  0.10475703039E+03  0.79744333413E+02 0.  0.
          6    2    1    2  501    0  0.16886938041E+03 -0.31146602011E+02 -0.17174650143E+03  0.29774428403E+03  0.17224348889E+03 0.  0.
         24    2    5    5    0    0  0.16111285294E+03 -0.31939673398E+02 -0.71503357582E+02  0.19708858092E+03  0.82180803506E+02 0.  0.
          5    1    5    5  501    0  0.77565274730E+01  0.79307138725E+00 -0.10024314385E+03  0.10065570311E+03  0.47000000000E+01 0. -1.
        -13    1    6    6    0    0  0.29656319049E+02  0.26016153932E+02 -0.21770709648E+02  0.45058865093E+02  0.00000000000E+00 0.  1.
         14    1    6    6    0    0  0.13145653389E+03 -0.57955827330E+02 -0.49732647934E+02  0.15202971582E+03  0.00000000000E+00 0. -1.
         -5    1    3    3    0  503 -0.14554492489E+03  0.22954825656E+02  0.55922568245E+01  0.14752495558E+03  0.47000000000E+01 0.  1.
         13    1    4    4    0    0  0.16307713361E+02  0.32672162594E+02  0.22825955427E+02  0.43063162504E+02  0.00000000000E+00 0. -1.
        -14    1    4    4    0    0 -0.39632168882E+02 -0.24480386240E+02  0.40449168271E+02  0.61693867885E+02  0.00000000000E+00 0.  1.
</event>
<event>
12    1  0.1594900E-001  0.1781960E+03  0.7818608E-02  0.1169594E+00
         21   -1    0    0  501  502  0.00000000000E+00  0.00000000000E+00  0.20126306135E+02  0.20126306135E+02  0.00000000000E+00 0.  1.
         21   -1    0    0  502  503 -0.00000000000E+00 -0.00000000000E+00 -0.15934472732E+04  0.15934472732E+04  0.00000000000E+00 0.  1.
         -6    2    1    2    0  503 -0.45701620659E+02  0.95287491657E+01 -0.87009840625E+03  0.88815822779E+03  0.17197199146E+03 0.  0.
        -24    2    3    3    0    0 -0.74367336538E+01  0.59621675392E+02 -0.69141364877E+03  0.69862238582E+03  0.80064693114E+02 0.  0.
          6    2    1    2  501    0  0.45701620659E+02 -0.95287491657E+01 -0.70322256078E+03  0.72541535151E+03  0.17183139125E+03 0.  0.
         24    2    5    5    0    0  0.13103799511E+02 -0.65967911032E+02 -0.53523912484E+03  0.54516962566E+03  0.78775155574E+02 0.  0.
          5    1    5    5  501    0  0.32597821149E+02  0.56439161866E+02 -0.16798343594E+03  0.18024572585E+03  0.47000000000E+01 0. -1.
        -13    1    6    6    0    0  0.32564514576E+02 -0.19489127499E+01 -0.11129701547E+03  0.11597961685E+03  0.00000000000E+00 0.  1.
         14    1    6    6    0    0 -0.19460715065E+02 -0.64018998282E+02 -0.42394210937E+03  0.42919000882E+03  0.00000000000E+00 0. -1.
         -5    1    3    3    0  503 -0.38264887006E+02 -0.50092926227E+02 -0.17868475748E+03  0.18953584197E+03  0.47000000000E+01 0.  1.
         11    1    4    4    0    0  0.27348842116E+02  0.45525088764E+02 -0.24798350100E+03  0.25360660409E+03  0.00000000000E+00 0. -1.
        -12    1    4    4    0    0 -0.34785575769E+02  0.14096586628E+02 -0.44343014777E+03  0.44501578173E+03  0.00000000000E+00 0.  1.
</event>
<event>
12    1  0.1594900E-001  0.1736789E+03  0.7818608E-02  0.1175962E+00
         21   -1    0    0  501  502  0.00000000000E+00  0.00000000000E+00  0.39623546695E+03  0.39623546695E+03  0.00000000000E+00 0.  1.
         21   -1    0    0  502  503 -0.00000000000E+00 -0.00000000000E+00 -0.18955265205E+03  0.18955265205E+03  0.00000000000E+00 0.  1.
         -6    2    1    2    0  503 -0.18949226282E+02  0.53853200274E+01 -0.12720949331E+03  0.20942600144E+03  0.16519358354E+03 0.  0.
        -24    2    3    3    0    0  0.36196683799E+02 -0.20665394295E+02 -0.11486691309E+03  0.14702295342E+03  0.81756239337E+02 0.  0.
          6    2    1    2  501    0  0.18949226282E+02 -0.53853200274E+01  0.33389230822E+03  0.37636211756E+03  0.17255809223E+03 0.  0.
         24    2    5    5    0    0  0.29781438057E+02  0.44266920823E+00  0.34739004957E+03  0.35750525430E+03  0.79012848983E+02 0.  0.
          5    1    5    5  501    0 -0.10832211775E+02 -0.58279892356E+01 -0.13497741347E+02  0.18856863258E+02  0.47000000000E+01 0. -1.
        -13    1    6    6    0    0  0.21446814493E+02  0.39194574206E+02  0.17439838482E+03  0.18003048944E+03  0.00000000000E+00 0.  1.
         14    1    6    6    0    0  0.83346235639E+01 -0.38751904997E+02  0.17299166474E+03  0.17747476486E+03  0.00000000000E+00 0. -1.
         -5    1    3    3    0  503 -0.55145910080E+02  0.26050714322E+02 -0.12342580223E+02  0.62403048017E+02  0.47000000000E+01 0.  1.
         13    1    4    4    0    0  0.32630896041E+02  0.54973412935E+01 -0.43261359036E+01  0.33372317714E+02  0.00000000000E+00 0. -1.
        -14    1    4    4    0    0  0.35657877578E+01 -0.26162735588E+02 -0.11054077719E+03  0.11365063571E+03  0.00000000000E+00 0.  1.
</event>
<event>
12    1  0.1594900E-001  0.2590137E+03  0.7818608E-02  0.1107939E+00
         21   -1    0    0  503  502  0.00000000000E+00  0.00000000000E+00  0.37411574559E+03  0.37411574559E+03  0.00000000000E+00 0.  1.
         21   -1    0    0  501  503 -0.00000000000E+00 -0.00000000000E+00 -0.24386347588E+03  0.24386347588E+03  0.00000000000E+00 0.  1.
          6    2    1    2  501    0 -0.92754861829E+02  0.16975657846E+03 -0.94837762133E+02  0.27583018248E+03  0.17224206258E+03 0.  0.
         24    2    3    3    0    0 -0.65948288151E+02  0.25678469177E+02 -0.93233122261E+01  0.10608948286E+03  0.78482442198E+02 0.  0.
         -6    2    1    2    0  502  0.92754861829E+02 -0.16975657846E+03  0.22509003184E+03  0.34214903899E+03  0.17023419788E+03 0.  0.
        -24    2    5    5    0    0  0.49117927826E+02 -0.25769601433E+02  0.14063020751E+03  0.16954549475E+03  0.76760512836E+02 0.  0.
          5    1    3    3  501    0 -0.26806573679E+02  0.14407810928E+03 -0.85514449906E+02  0.16974069962E+03  0.47000000000E+01 0. -1.
        -11    1    4    4    0    0  0.73718913155E+01  0.25485878673E+02 -0.18287967249E+02  0.32223043609E+02  0.00000000000E+00 0.  1.
         12    1    4    4    0    0 -0.73320179466E+02  0.19259050414E+00  0.89646550230E+01  0.73866439252E+02  0.00000000000E+00 0. -1.
         -5    1    5    5    0  502  0.43636934003E+02 -0.14398697702E+03  0.84459824327E+02  0.17260354425E+03  0.47000000000E+01 0.  1.
         11    1    6    6    0    0  0.31256818416E+02 -0.82613730796E+01  0.63398944118E+01  0.32945913916E+02  0.00000000000E+00 0. -1.
        -12    1    6    6    0    0  0.17861109411E+02 -0.17508228353E+02  0.13429031310E+03  0.13659958083E+03  0.00000000000E+00 0.  1.
</event>
<event>
12    1  0.1594900E-001  0.2908913E+03  0.7818608E-02  0.1089989E+00
         21   -1    0    0  503  502  0.00000000000E+00  0.00000000000E+00  0.20838850734E+03  0.20838850734E+03  0.00000000000E+00 0. -1.
         21   -1    0    0  501  503 -0.00000000000E+00 -0.00000000000E+00 -0.49610123865E+03  0.49610123865E+03  0.00000000000E+00 0. -1.
          6    2    1    2  501    0  0.22275808427E+03 -0.73752316275E+02 -0.29501409379E+03  0.41430794143E+03  0.17192203619E+03 0.  0.
         24    2    3    3    0    0  0.76377102183E+02 -0.89450761400E+02 -0.15833998450E+03  0.21337079890E+03  0.81367356343E+02 0.  0.
         -6    2    1    2    0  502 -0.22275808427E+03  0.73752316275E+02  0.73013624730E+01  0.29018180456E+03  0.17056260300E+03 0.  0.
        -24    2    5    5    0    0 -0.19788044559E+03  0.47680103280E+01 -0.14272171538E+02  0.21359695787E+03  0.78997220594E+02 0.  0.
          5    1    3    3  501    0  0.14638098209E+03  0.15698445125E+02 -0.13667410929E+03  0.20093714253E+03  0.47000000000E+01 0. -1.
        -11    1    4    4    0    0  0.22814269022E+02 -0.74895831876E+02 -0.53759150464E+02  0.94973273936E+02  0.00000000000E+00 0.  1.
         12    1    4    4    0    0  0.53562833161E+02 -0.14554929524E+02 -0.10458083404E+03  0.11839752496E+03  0.00000000000E+00 0. -1.
         -5    1    5    5    0  502 -0.24877638679E+02  0.68984305947E+02  0.21573534011E+02  0.76584846693E+02  0.47000000000E+01 0.  1.
         11    1    6    6    0    0 -0.11952504436E+03  0.18698323125E+02 -0.43869857726E+02  0.12868732623E+03  0.00000000000E+00 0. -1.
        -12    1    6    6    0    0 -0.78355401234E+02 -0.13930312797E+02  0.29597686188E+02  0.84909631637E+02  0.00000000000E+00 0.  1.
</event>
<event>
12    1  0.1594900E-001  0.1813541E+03  0.7818608E-02  0.1166839E+00
         21   -1    0    0  501  502  0.00000000000E+00  0.00000000000E+00  0.10188018199E+04  0.10188018199E+04  0.00000000000E+00 0.  1.
         21   -1    0    0  502  503 -0.00000000000E+00 -0.00000000000E+00 -0.32119470858E+02  0.32119470858E+02  0.00000000000E+00 0.  1.
         -6    2    1    2    0  503  0.47858779718E+02  0.25497744489E+02  0.52282347772E+03  0.55338386004E+03  0.17305695573E+03 0.  0.
        -24    2    3    3    0    0  0.42209011591E+02  0.60105573481E+02  0.18990013354E+03  0.21858591380E+03  0.79520188436E+02 0.  0.
          6    2    1    2  501    0 -0.47858779718E+02 -0.25497744489E+02  0.46385887133E+03  0.49753743073E+03  0.17157460388E+03 0.  0.
         24    2    5    5    0    0 -0.26646320788E+02  0.22070136969E+02  0.42073079125E+03  0.42975252790E+03  0.80471853302E+02 0.  0.
          5    1    5    5  501    0 -0.21212458930E+02 -0.47567881457E+02  0.43128080081E+02  0.67784902830E+02  0.47000000000E+01 0. -1.
        -13    1    6    6    0    0 -0.47916218650E+02  0.29781428508E+02  0.19815644865E+03  0.20603124917E+03  0.00000000000E+00 0.  1.
         14    1    6    6    0    0  0.21269897862E+02 -0.77112915392E+01  0.22257434260E+03  0.22372127873E+03  0.00000000000E+00 0. -1.
         -5    1    3    3    0  503  0.56497681267E+01 -0.34607828992E+02  0.33292334418E+03  0.33479794624E+03  0.47000000000E+01 0.  1.
         11    1    4    4    0    0  0.31368863829E+02  0.38671670245E+02  0.32723606977E+02  0.59584714072E+02  0.00000000000E+00 0. -1.
        -12    1    4    4    0    0  0.10840147762E+02  0.21433903235E+02  0.15717652657E+03  0.15900119973E+03  0.00000000000E+00 0.  1.
</event>
<event>
12    1  0.1594900E-001  0.1983799E+03  0.7818608E-02  0.1151187E+00
         21   -1    0    0  503  502  0.00000000000E+00  0.00000000000E+00  0.14575091541E+03  0.14575091541E+03  0.00000000000E+00 0. -1.
         21   -1    0    0  501  503 -0.00000000000E+00 -0.00000000000E+00 -0.33075771213E+03  0.33075771213E+03  0.00000000000E+00 0. -1.
          6    2    1    2  501    0  0.98261227103E+02  0.12197202733E+02 -0.19507110646E+03  0.27822172261E+03  0.17190273369E+03 0.  0.
         24    2    3    3    0    0  0.88184355272E+02 -0.30464011397E+02 -0.61398046973E+02  0.13746626314E+03  0.80141854394E+02 0.  0.
         -6    2    1    2    0  502 -0.98261227103E+02 -0.12197202733E+02  0.10064309728E+02  0.19828690493E+03  0.17150033770E+03 0.  0.
        -24    2    5    5    0    0 -0.12527229616E+03 -0.39752405900E+02  0.29314054123E+02  0.15491030142E+03  0.76579930514E+02 0.  0.
          5    1    3    3  501    0  0.10076871831E+02  0.42661214130E+02 -0.13367305948E+03  0.14075545946E+03  0.47000000000E+01 0. -1.
        -13    1    4    4    0    0 -0.89439259031E+01 -0.23339204163E+02 -0.18243236501E+02  0.30943948351E+02  0.00000000000E+00 0.  1.
         14    1    4    4    0    0  0.97128281175E+02 -0.71248072340E+01 -0.43154810471E+02  0.10652231479E+03  0.00000000000E+00 0. -1.
         -5    1    5    5    0  502  0.27011069054E+02  0.27555203166E+02 -0.19249744395E+02  0.43376603512E+02  0.47000000000E+01 0.  1.
         11    1    6    6    0    0 -0.35651749380E+02 -0.88514104637E+01 -0.26138491006E+02  0.45084536297E+02  0.00000000000E+00 0. -1.
        -12    1    6    6    0    0 -0.89620546776E+02 -0.30900995436E+02  0.55452545129E+02  0.10982576512E+03  0.00000000000E+00 0.  1.
</event>
<event>
12    1  0.1594900E-001  0.1833572E+03  0.7818608E-02  0.1166007E+00
         21   -1    0    0  501  502  0.00000000000E+00  0.00000000000E+00  0.92360552567E+03  0.92360552567E+03  0.00000000000E+00 0.  1.
         21   -1    0    0  502  503 -0.00000000000E+00 -0.00000000000E+00 -0.11773628686E+03  0.11773628686E+03  0.00000000000E+00 0.  1.
         -6    2    1    2    0  503 -0.59421193797E+02 -0.18434976902E+02 -0.34846462223E+02  0.18086359699E+03  0.16621262931E+03 0.  0.
        -24    2    3    3    0    0 -0.97829110259E+02 -0.37860801345E+02 -0.14079768443E+02  0.13284405646E+03  0.80282802421E+02 0.  0.
          6    2    1    2  501    0  0.59421193797E+02  0.18434976902E+02  0.84071570104E+03  0.86047821554E+03  0.17247939822E+03 0.  0.
         24    2    5    5    0    0  0.13415674193E+02 -0.36005949890E+02  0.66079874815E+03  0.66690000840E+03  0.81389353783E+02 0.  0.
          5    1    5    5  501    0  0.46005519603E+02  0.54440926792E+02  0.17991695289E+03  0.19357820714E+03  0.47000000000E+01 0. -1.
        -11    1    6    6    0    0  0.38162184812E+02 -0.48490992502E+02  0.48933896516E+03  0.49321430588E+03  0.00000000000E+00 0.  1.
         12    1    6    6    0    0 -0.24746510619E+02  0.12485042612E+02  0.17145978299E+03  0.17368570252E+03  0.00000000000E+00 0. -1.
         -5    1    3    3    0  503  0.38407916462E+02  0.19425824442E+02 -0.20766693780E+02  0.48019540531E+02  0.47000000000E+01 0.  1.
         11    1    4    4    0    0 -0.19316051621E+02  0.24947129597E+02 -0.35270042554E+01  0.31747580765E+02  0.00000000000E+00 0. -1.
        -12    1    4    4    0    0 -0.78513058638E+02 -0.62807930942E+02 -0.10552764187E+02  0.10109647569E+03  0.00000000000E+00 0.  1.
</event>
<event>
12    1  0.1594900E-001  0.2261144E+03  0.7818608E-02  0.1129431E+00
         21   -1    0    0  503  502  0.00000000000E+00  0.00000000000E+00  0.91316158852E+03  0.91316158852E+03  0.00000000000E+00 0.  1.
         21   -1    0    0  501  503 -0.00000000000E+00 -0.00000000000E+00 -0.58757494957E+02  0.58757494957E+02  0.00000000000E+00 0.  1.
          6    2    1    2  501    0 -0.85812745815E+02  0.11890364284E+03  0.53348996281E+03  0.57943010346E+03  0.17212147094E+03 0.  0.
         24    2    3    3    0    0 -0.26076514221E+02  0.43728174512E+02  0.42145705923E+03  0.43180480114E+03  0.78975918293E+02 0.  0.
         -6    2    1    2    0  502  0.85812745815E+02 -0.11890364284E+03  0.32091413076E+03  0.39248898001E+03  0.17192968472E+03 0.  0.
        -24    2    5    5    0    0  0.40287511197E+02  0.11349352899E+02  0.15804806673E+03  0.17898058510E+03  0.72821474017E+02 0.  0.
          5    1    3    3  501    0 -0.59736231594E+02  0.75175468324E+02  0.11203290357E+03  0.14762530232E+03  0.47000000000E+01 0. -1.
        -11    1    4    4    0    0 -0.19620216171E+02  0.55522169627E+02  0.16855132896E+03  0.17854191300E+03  0.00000000000E+00 0.  1.
         12    1    4    4    0    0 -0.64562980494E+01 -0.11793995115E+02  0.25290573027E+03  0.25326288814E+03  0.00000000000E+00 0. -1.
         -5    1    5    5    0  502  0.45525234618E+02 -0.13025299574E+03  0.16286606403E+03  0.21350839491E+03  0.47000000000E+01 0.  1.
         13    1    6    6    0    0 -0.14030737980E+02 -0.46923797426E+01  0.47247055760E+01  0.15530707604E+02  0.00000000000E+00 0. -1.
        -14    1    6    6    0    0  0.54318249177E+02  0.16041732641E+02  0.15332336115E+03  0.16344987750E+03  0.00000000000E+00 0.  1.
</event>
<event>
12    1  0.1594900E-001  0.2561957E+03  0.7818608E-02  0.1109512E+00
         21   -1    0    0  503  502  0.00000000000E+00  0.00000000000E+00  0.90450412437E+03  0.90450412437E+03  0.00000000000E+00 0. -1.
         21   -1    0    0  501  503 -0.00000000000E+00 -0.00000000000E+00 -0.73620613990E+02  0.73620613990E+02  0.00000000000E+00 0.  1.
          6    2    1    2  501    0 -0.11535357694E+02  0.19046085838E+03  0.35415841707E+03  0.43710915898E+03  0.17096148523E+03 0.  0.
         24    2    3    3    0    0  0.63618248890E+01  0.22152824973E+02  0.92987555047E+02  0.12585329571E+03  0.81615845132E+02 0.  0.
         -6    2    1    2    0  502  0.11535357694E+02 -0.19046085838E+03  0.47672509331E+03  0.54101557938E+03  0.17036032252E+03 0.  0.
        -24    2    5    5    0    0 -0.14706320230E+02 -0.31602904359E+02  0.22880162253E+03  0.24535933883E+03  0.81461667417E+02 0.  0.
          5    1    3    3  501    0 -0.17897182583E+02  0.16830803340E+03  0.26117086202E+03  0.31125586327E+03  0.47000000000E+01 0. -1.
        -11    1    4    4    0    0  0.11439663277E+02  0.42715974973E+02  0.17681373293E+02  0.47625112864E+02  0.00000000000E+00 0.  1.
         12    1    4    4    0    0 -0.50778383881E+01 -0.20563150000E+02  0.75306181754E+02  0.78228182843E+02  0.00000000000E+00 0. -1.
         -5    1    5    5    0  502  0.26241677924E+02 -0.15885795402E+03  0.24792347078E+03  0.29565624056E+03  0.47000000000E+01 0.  1.
         13    1    6    6    0    0  0.31530426394E+02 -0.24926991661E+02  0.82315759043E+02  0.91604622638E+02  0.00000000000E+00 0. -1.
        -14    1    6    6    0    0 -0.46236746623E+02 -0.66759126977E+01  0.14648586349E+03  0.15375471619E+03  0.00000000000E+00 0.  1.
</event>
<event>
12    1  0.1594900E-001  0.2357696E+03  0.7818608E-02  0.1122793E+00
         21   -1    0    0  501  502  0.00000000000E+00  0.00000000000E+00  0.25165301193E+03  0.25165301193E+03  0.00000000000E+00 0.  1.
         21   -1    0    0  502  503 -0.00000000000E+00 -0.00000000000E+00 -0.43196327856E+03  0.43196327856E+03  0.00000000000E+00 0.  1.
         -6    2    1    2    0  503  0.14736258495E+03  0.62396173117E+02 -0.32963551598E+03  0.40527382818E+03  0.17314239386E+03 0.  0.
        -24    2    3    3    0    0  0.35414410485E+01  0.31392593419E+02 -0.71151496819E+02  0.10781488724E+03  0.74588723573E+02 0.  0.
          6    2    1    2  501    0 -0.14736258495E+03 -0.62396173117E+02  0.14932524934E+03  0.27834246232E+03  0.17195197694E+03 0.  0.
         24    2    5    5    0    0 -0.76708947379E+02  0.32258594936E+02  0.80402617959E+02  0.14150723025E+03  0.81454500698E+02 0.  0.
          5    1    5    5  501    0 -0.70653637567E+02 -0.94654768053E+02  0.68922631385E+02  0.13683523206E+03  0.47000000000E+01 0. -1.
        -11    1    6    6    0    0 -0.67068525603E+02 -0.12844335466E+02  0.60655416416E+02  0.91335883533E+02  0.00000000000E+00 0.  1.
         12    1    6    6    0    0 -0.96404217762E+01  0.45102930403E+02  0.19747201543E+02  0.50171346720E+02  0.00000000000E+00 0. -1.
         -5    1    3    3    0  503  0.14382114390E+03  0.31003579698E+02 -0.25848401916E+03  0.29745894094E+03  0.47000000000E+01 0.  1.
         11    1    4    4    0    0 -0.25375467623E+02 -0.12269339004E+02 -0.30415639579E+02  0.41467603833E+02  0.00000000000E+00 0. -1.
        -12    1    4    4    0    0  0.28916908671E+02  0.43661932423E+02 -0.40735857240E+02  0.66347283404E+02  0.00000000000E+00 0.  1.
</event>
<event>
12    1  0.1594900E-001  0.1819938E+03  0.7818608E-02  0.1165967E+00
         21   -1    0    0  503  502  0.00000000000E+00  0.00000000000E+00  0.66318342618E+02  0.66318342618E+02  0.00000000000E+00 0.  1.
         21   -1    0    0  501  503 -0.00000000000E+00 -0.00000000000E+00 -0.64886089567E+03  0.64886089567E+03  0.00000000000E+00 0. -1.
          6    2    1    2  501    0  0.32680465449E+01 -0.55474842914E+02 -0.11893523155E+03  0.21712956055E+03  0.17294946786E+03 0.  0.
         24    2    3    3    0    0  0.20388168998E+02  0.33975590077E+02 -0.74375270306E+02  0.11563001029E+03  0.79174492679E+02 0.  0.
         -6    2    1    2    0  502 -0.32680465449E+01  0.55474842914E+02 -0.46360732150E+03  0.49804967774E+03  0.17330203296E+03 0.  0.
        -24    2    5    5    0    0 -0.42192443428E+02  0.23548060969E+01 -0.38875914944E+03  0.39824393721E+03  0.75357878485E+02 0.  0.
          5    1    3    3  501    0 -0.17120122453E+02 -0.89450432991E+02 -0.44559961247E+02  0.10149955025E+03  0.47000000000E+01 0. -1.
        -11    1    4    4    0    0  0.33765635279E+02  0.14511165524E+02  0.87312952838E+00  0.36762132770E+02  0.00000000000E+00 0.  1.
         12    1    4    4    0    0 -0.13377466281E+02  0.19464424553E+02 -0.75248399835E+02  0.78867877523E+02  0.00000000000E+00 0. -1.
         -5    1    5    5    0  502  0.38924396883E+02  0.53120036817E+02 -0.74848172052E+02  0.99805740535E+02  0.47000000000E+01 0.  1.
         11    1    6    6    0    0 -0.15433095302E+02  0.14316405604E+02 -0.34459955240E+03  0.34524193171E+03  0.00000000000E+00 0. -1.
        -12    1    6    6    0    0 -0.26759348127E+02 -0.11961599507E+02 -0.44159597048E+02  0.53002005494E+02  0.00000000000E+00 0.  1.
</event>
<event>
12    1  0.1594900E-001  0.1914062E+03  0.7818608E-02  0.1157375E+00
         21   -1    0    0  501  502  0.00000000000E+00  0.00000000000E+00  0.17842140584E+04  0.17842140584E+04  0.00000000000E+00 0.  1.
         21   -1    0    0  502  503 -0.00000000000E+00 -0.00000000000E+00 -0.26462669015E+02  0.26462669015E+02  0.00000000000E+00 0. -1.
         -6    2    1    2    0  503 -0.88341131239E+01  0.83048222655E+02  0.44590776874E+03  0.48494295730E+03  0.17135018171E+03 0.  0.
        -24    2    3    3    0    0  0.14993351370E+02  0.11380418983E+03  0.20885606901E+03  0.24467378340E+03  0.55391411912E+02 0.  0.
          6    2    1    2  501    0  0.88341131239E+01 -0.83048222655E+02  0.13118436206E+04  0.13257337701E+04  0.17222454920E+03 0.  0.
         24    2    5    5    0    0  0.26694566434E+02 -0.58069727130E+02  0.12670426577E+04  0.12712164580E+04  0.80681433897E+02 0.  0.
          5    1    5    5  501    0 -0.17860453310E+02 -0.24978495525E+02  0.44800962981E+02  0.54517312069E+02  0.47000000000E+01 0. -1.
        -13    1    6    6    0    0 -0.23278647919E+02  0.14022333947E+01  0.20125529056E+03  0.20260195874E+03  0.00000000000E+00 0.  1.
         14    1    6    6    0    0  0.49973214353E+02 -0.59471960525E+02  0.10657873671E+04  0.10686144993E+04  0.00000000000E+00 0. -1.
         -5    1    3    3    0  503 -0.23827464494E+02 -0.30755967177E+02  0.23705169973E+03  0.24026917390E+03  0.47000000000E+01 0.  1.
         11    1    4    4    0    0 -0.17830691754E+02  0.64925164648E+02  0.12831702074E+03  0.14490848279E+03  0.00000000000E+00 0. -1.
        -12    1    4    4    0    0  0.32824043124E+02  0.48879025185E+02  0.80539048265E+02  0.99765300609E+02  0.00000000000E+00 0.  1.
</event>
<event>
12    1  0.1594900E-001  0.2170601E+03  0.7818608E-02  0.1136359E+00
         21   -1    0    0  501  502  0.00000000000E+00  0.00000000000E+00  0.43294830325E+03  0.43294830325E+03  0.00000000000E+00 0. -1.
         21   -1    0    0  502  503 -0.00000000000E+00 -0.00000000000E+00 -0.25660874971E+03  0.25660874971E+03  0.00000000000E+00 0.  1.
         -6    2    1    2    0  503 -0.11323701690E+03  0.68251565824E+02 -0.17421497079E+03  0.27724218655E+03  0.17038625450E+03 0.  0.
        -24    2    3    3    0    0 -0.74159737520E+01  0.30063393590E+02 -0.17405449268E+02  0.84193628642E+02  0.76333564956E+02 0.  0.
          6    2    1    2  501    0  0.11323701690E+03 -0.68251565824E+02  0.35055452433E+03  0.41231486641E+03  0.17214579955E+03 0.  0.
         24    2    5    5    0    0  0.66236986805E+02 -0.61111167887E+02  0.96915863969E+02  0.15421672977E+03  0.79171976035E+02 0.  0.
          5    1    5    5  501    0  0.47000030098E+02 -0.71403979374E+01  0.25363866036E+03  0.25809813665E+03  0.47000000000E+01 0. -1.
        -13    1    6    6    0    0 -0.38991792975E+01  0.13810349691E+02  0.25252262729E+02  0.29044898532E+02  0.00000000000E+00 0.  1.
         14    1    6    6    0    0  0.70136166102E+02 -0.74921517578E+02  0.71663601240E+02  0.12517183123E+03  0.00000000000E+00 0. -1.
         -5    1    3    3    0  503 -0.10582104315E+03  0.38188172234E+02 -0.15680952152E+03  0.19304855791E+03  0.47000000000E+01 0.  1.
         13    1    4    4    0    0  0.25653232677E+02  0.31445244551E+02 -0.28156637726E+02  0.49393197909E+02  0.00000000000E+00 0. -1.
        -14    1    4    4    0    0 -0.33069206429E+02 -0.13818509608E+01  0.10751188458E+02  0.34800430733E+02  0.00000000000E+00 0.  1.
</event>
<event>
12    1  0.1594900E-001  0.2528614E+03  0.7818608E-02  0.1112526E+00
         21   -1    0    0  503  502  0.00000000000E+00  0.00000000000E+00  0.48757530406E+03  0.48757530406E+03  0.00000000000E+00 0.  1.
         21   -1    0    0  501  503 -0.00000000000E+00 -0.00000000000E+00 -0.12782033071E+03  0.12782033071E+03  0.00000000000E+00 0. -1.
          6    2    1    2  501    0 -0.13644092971E+03  0.12485704845E+03  0.18105150025E+03  0.31099605095E+03  0.17243401091E+03 0.  0.
         24    2    3    3    0    0 -0.12640073060E+03  0.11079407003E+03  0.69995702136E+02  0.19850581469E+03  0.79073949549E+02 0.  0.
         -6    2    1    2    0  502  0.13644092971E+03 -0.12485704845E+03  0.17870347310E+03  0.30439958382E+03  0.16284583350E+03 0.  0.
        -24    2    5    5    0    0  0.16219357486E+03 -0.99866192792E+02  0.16988574501E+03  0.26714929621E+03  0.78914941019E+02 0.  0.
          5    1    3    3  501    0 -0.10040199104E+02  0.14062978419E+02  0.11105579811E+03  0.11249023627E+03  0.47000000000E+01 0. -1.
        -11    1    4    4    0    0 -0.70532350285E+02  0.30113779534E+02  0.64512274822E+02  0.10021719292E+03  0.00000000000E+00 0.  1.
         12    1    4    4    0    0 -0.55868380318E+02  0.80680290493E+02  0.54834273136E+01  0.98288621765E+02  0.00000000000E+00 0. -1.
         -5    1    5    5    0  502 -0.25752645157E+02 -0.24990855654E+02  0.88177280887E+01  0.37250287617E+02  0.47000000000E+01 0.  1.
         11    1    6    6    0    0  0.15489753399E+03 -0.10751853899E+03  0.13829287164E+03  0.23383413055E+03  0.00000000000E+00 0. -1.
        -12    1    6    6    0    0  0.72960408687E+01  0.76523462005E+01  0.31592873371E+02  0.33315165654E+02  0.00000000000E+00 0.  1.
</event>
<event>
12    1  0.1594900E-001  0.2004344E+03  0.7818608E-02  0.1150530E+00
         21   -1    0    0  501  502  0.00000000000E+00  0.00000000000E+00  0.81999447153E+03  0.81999447153E+03  0.00000000000E+00 0.  1.
         21   -1    0    0  502  503 -0.00000000000E+00 -0.00000000000E+00 -0.13956768983E+03  0.13956768983E+03  0.00000000000E+00 0.  1.
         -6    2    1    2    0  503  0.44104804721E+02  0.80954337503E+02 -0.50670381667E+02  0.20148761917E+03  0.17184567070E+03 0.  0.
        -24    2    3    3    0    0  0.29270951860E+02 -0.24114646680E+01  0.38272080766E+02  0.78594365546E+02  0.62046098547E+02 0.  0.
          6    2    1    2  501    0 -0.44104804721E+02 -0.80954337503E+02  0.73109716337E+03  0.75807454220E+03  0.17797502828E+03 0.  0.
         24    2    5    5    0    0 -0.11694261912E+02 -0.85024171178E+02  0.70811816273E+03  0.71786097109E+03  0.80790939957E+02 0.  0.
          5    1    5    5  501    0 -0.32410542810E+02  0.40698336756E+01  0.22979000640E+02  0.40213571114E+02  0.47000000000E+01 0. -1.
        -13    1    6    6    0    0 -0.40560830643E+02 -0.41993314904E+02  0.24534528741E+03  0.25219621237E+03  0.00000000000E+00 0.  1.
         14    1    6    6    0    0  0.28866568732E+02 -0.43030856274E+02  0.46277287531E+03  0.46566475871E+03  0.00000000000E+00 0. -1.
         -5    1    3    3    0  503  0.14833852862E+02  0.83365802171E+02 -0.88942462432E+02  0.12289325362E+03  0.47000000000E+01 0.  1.
         13    1    4    4    0    0 -0.11202795667E+02  0.44336040497E+01  0.35458567876E+02  0.37449559563E+02  0.00000000000E+00 0. -1.
        -14    1    4    4    0    0  0.40473747527E+02 -0.68450687177E+01  0.28135128897E+01  0.41144805984E+02  0.00000000000E+00 0.  1.
</event>
<event>
12    1  0.1594900E-001  0.2083081E+03  0.7818608E-02  0.1143075E+00
         21   -1    0    0  501  502  0.00000000000E+00  0.00000000000E+00  0.96524053183E+03  0.96524053183E+03  0.00000000000E+00 0. -1.
         21   -1    0    0  502  503 -0.00000000000E+00 -0.00000000000E+00 -0.75423261267E+02  0.75423261267E+02  0.00000000000E+00 0. -1.
         -6    2    1    2    0  503 -0.11090257592E+03  0.35320992936E+02  0.11376495023E+03  0.23734936201E+03  0.17275792850E+03 0.  0.
        -24    2    3    3    0    0 -0.11166692418E+03  0.46340137874E+02  0.22464049426E+02  0.14526271656E+03  0.77328603842E+02 0.  0.
          6    2    1    2  501    0  0.11090257592E+03 -0.35320992936E+02  0.77605232034E+03  0.80331443109E+03  0.17178450862E+03 0.  0.
         24    2    5    5    0    0  0.14644269172E+02  0.17687279803E+01  0.17849690329E+03  0.19690213285E+03  0.81802948703E+02 0.  0.
          5    1    5    5  501    0  0.96258306751E+02 -0.37089720916E+02  0.59755541704E+03  0.60641229824E+03  0.47000000000E+01 0. -1.
        -13    1    6    6    0    0 -0.18830183197E+02 -0.28849762460E+02  0.10524524898E+03  0.11074044892E+03  0.00000000000E+00 0.  1.
         14    1    6    6    0    0  0.33474452369E+02  0.30618490441E+02  0.73251654308E+02  0.86161683927E+02  0.00000000000E+00 0. -1.
         -5    1    3    3    0  503  0.76434825537E+00 -0.11019144938E+02  0.91300900799E+02  0.92086645449E+02  0.47000000000E+01 0.  1.
         11    1    4    4    0    0 -0.12263549321E+02 -0.17909973322E+02 -0.78503391065E+01  0.23082235820E+02  0.00000000000E+00 0. -1.
        -12    1    4    4    0    0 -0.99403374858E+02  0.64250111196E+02  0.30314388533E+02  0.12218048074E+03  0.00000000000E+00 0.  1.
</event>
<event>
12    1  0.1594900E-001  0.1873567E+03  0.7818608E-02  0.1162105E+00
         21   -1    0    0  501  502  0.00000000000E+00  0.00000000000E+00  0.22627840408E+03  0.22627840408E+03  0.00000000000E+00 0. -1.
         21   -1    0    0  502  503 -0.00000000000E+00 -0.00000000000E+00 -0.17626917927E+03  0.17626917927E+03  0.00000000000E+00 0. -1.
         -6    2    1    2    0  503 -0.27610268719E+01  0.56423491188E+02 -0.51240386297E+02  0.19423727805E+03  0.17863736835E+03 0.  0.
        -24    2    3    3    0    0 -0.72065890337E+02  0.38809151627E+02 -0.19818901846E+02  0.11598877172E+03  0.79755648673E+02 0.  0.
          6    2    1    2  501    0  0.27610268719E+01 -0.56423491188E+02  0.10124961111E+03  0.20831030529E+03  0.17306202909E+03 0.  0.
         24    2    5    5    0    0  0.16867687601E+02 -0.81658096913E+02  0.13677783189E+02  0.11597018265E+03  0.79431969857E+02 0.  0.
          5    1    5    5  501    0 -0.14106660729E+02  0.25234605725E+02  0.87571827925E+02  0.92340122640E+02  0.47000000000E+01 0. -1.
        -13    1    6    6    0    0 -0.13997639870E+02 -0.11090265226E+02 -0.24249478394E+02  0.30115861387E+02  0.00000000000E+00 0.  1.
         14    1    6    6    0    0  0.30865327472E+02 -0.70567831687E+02  0.37927261583E+02  0.85854321267E+02  0.00000000000E+00 0. -1.
         -5    1    3    3    0  503  0.69304863465E+02  0.17614339561E+02 -0.31421484451E+02  0.78248506332E+02  0.47000000000E+01 0.  1.
         11    1    4    4    0    0 -0.18841333145E+02  0.53210587124E+02 -0.22543502721E+02  0.60782990480E+02  0.00000000000E+00 0. -1.
        -12    1    4    4    0    0 -0.53224557192E+02 -0.14401435497E+02  0.27246008746E+01  0.55205781243E+02  0.00000000000E+00 0.  1.
</event>
<event>
12    1  0.1594900E-001  0.1893726E+03  0.7818608E-02  0.1160595E+00
         21   -1    0    0  501  502  0.00000000000E+00  0.00000000000E+00  0.51646884737E+02  0.51646884737E+02  0.00000000000E+00 0. -1.
         21   -1    0    0  502  503 -0.00000000000E+00 -0.00000000000E+00 -0.11992706872E+04  0.11992706872E+04  0.00000000000E+00 0. -1.
         -6    2    1    2    0  503  0.62043710481E+02  0.47625105777E+02 -0.98354803427E+03  0.10003525480E+04  0.16498761142E+03 0.  0.
        -24    2    3    3    0    0  0.59881517465E+02 -0.35797949127E+02 -0.32918672652E+03  0.34067467797E+03  0.53179375665E+02 0.  0.
          6    2    1    2  501    0 -0.62043710481E+02 -0.47625105777E+02 -0.16407576820E+03  0.25056502392E+03  0.17246565104E+03 0.  0.
         24    2    5    5    0    0 -0.88464550268E+02 -0.15440664508E+02 -0.17328177974E+03  0.20766118163E+03  0.70938003854E+02 0.  0.
          5    1    5    5  501    0  0.26420839787E+02 -0.32184441270E+02  0.92060115360E+01  0.42903842290E+02  0.47000000000E+01 0. -1.
        -11    1    6    6    0    0  0.82381729022E+01  0.10704979126E+02 -0.29249926953E+02  0.32218353428E+02  0.00000000000E+00 0.  1.
         12    1    6    6    0    0 -0.96702723170E+02 -0.26145643634E+02 -0.14403185279E+03  0.17544282820E+03  0.00000000000E+00 0. -1.
         -5    1    3    3    0  503  0.21621930162E+01  0.83423054905E+02 -0.65436130774E+03  0.65967787006E+03  0.47000000000E+01 0.  1.
         11    1    4    4    0    0 -0.18518650123E+01  0.94745107522E+01 -0.61621865735E+02  0.62373472684E+02  0.00000000000E+00 0. -1.
        -12    1    4    4    0    0  0.61733382477E+02 -0.45272459880E+02 -0.26756486079E+03  0.27830120529E+03  0.00000000000E+00 0.  1.
</event>
<event>
12    1  0.1594900E-001  0.2790638E+03  0.7818608E-02  0.1096355E+00
         21   -1    0    0  503  502  0.00000000000E+00  0.00000000000E+00  0.56099186834E+03  0.56099186834E+03  0.00000000000E+00 0. -1.
         21   -1    0    0  501  503 -0.00000000000E+00 -0.00000000000E+00 -0.16383110778E+03  0.16383110778E+03  0.00000000000E+00 0. -1.
          6    2    1    2  501    0  0.21320736203E+03  0.50360441000E+02  0.55071344580E+02  0.28334617485E+03  0.17105159622E+03 0.  0.
         24    2    3    3    0    0  0.17804511374E+03 -0.72855890790E+01 -0.82492503796E+00  0.19556273994E+03  0.80566509268E+02 0.  0.
         -6    2    1    2    0  502 -0.21320736203E+03 -0.50360441000E+02  0.34208941597E+03  0.44147680127E+03  0.17286712902E+03 0.  0.
        -24    2    5    5    0    0 -0.14956172766E+03 -0.17182067087E+01  0.12849600550E+03  0.21330785349E+03  0.81347122367E+02 0.  0.
          5    1    3    3  501    0  0.35162248289E+02  0.57646030079E+02  0.55896269618E+02  0.87783434917E+02  0.47000000000E+01 0. -1.
        -11    1    4    4    0    0  0.91555852810E+02 -0.35603850404E+02  0.24211260296E+02  0.10117456930E+03  0.00000000000E+00 0.  1.
         12    1    4    4    0    0  0.86489260930E+02  0.28318261325E+02 -0.25036185334E+02  0.94388170640E+02  0.00000000000E+00 0. -1.
         -5    1    5    5    0  502 -0.63645634371E+02 -0.48642234291E+02  0.21359341048E+03  0.22816894778E+03  0.47000000000E+01 0.  1.
         13    1    6    6    0    0 -0.86450654462E+02  0.34216869110E+02  0.96324416483E+02  0.13387644677E+03  0.00000000000E+00 0. -1.
        -14    1    6    6    0    0 -0.63111073195E+02 -0.35935075818E+02  0.32171589013E+02  0.79431406720E+02  0.00000000000E+00 0.  1.
</event>
<event>
12    1  0.1594900E-001  0.3180403E+03  0.7818608E-02  0.1076794E+00
         21   -1    0    0  501  502  0.00000000000E+00  0.00000000000E+00  0.11826467460E+04  0.11826467460E+04  0.00000000000E+00 0.  1.
         21   -1    0    0  502  503 -0.00000000000E+00 -0.00000000000E+00 -0.92709069234E+02  0.92709069234E+02  0.00000000000E+00 0.  1.
         -6    2    1    2    0  503 -0.25700801771E+03  0.64761426772E+02  0.36242645664E+03  0.48218523350E+03  0.17579106737E+03 0.  0.
        -24    2    3    3    0    0 -0.77425362749E+02  0.33945264745E+01  0.62333360082E+02  0.12708836923E+03  0.79118873897E+02 0.  0.
          6    2    1    2  501    0  0.25700801771E+03 -0.64761426772E+02  0.72751122014E+03  0.79317058175E+03  0.17204601932E+03 0.  0.
         24    2    5    5    0    0  0.21765813621E+03 -0.25744490332E+02  0.68376076435E+03  0.72241094011E+03  0.79441428045E+02 0.  0.
          5    1    5    5  501    0  0.39349881500E+02 -0.39016936440E+02  0.43750455795E+02  0.70759641643E+02  0.47000000000E+01 0. -1.
        -13    1    6    6    0    0  0.88394964565E+02 -0.22924914870E+02  0.17398401493E+03  0.19649340684E+03  0.00000000000E+00 0.  1.
         14    1    6    6    0    0  0.12926317164E+03 -0.28195754620E+01  0.50977674942E+03  0.52591753327E+03  0.00000000000E+00 0. -1.
         -5    1    3    3    0  503 -0.17958265496E+03  0.61366900297E+02  0.30009309656E+03  0.35509686427E+03  0.47000000000E+01 0.  1.
         13    1    4    4    0    0 -0.40717492392E+02  0.23139643791E+02 -0.58261957614E+01  0.47194299004E+02  0.00000000000E+00 0. -1.
        -14    1    4    4    0    0 -0.36707870357E+02 -0.19745117316E+02  0.68159555843E+02  0.79894070222E+02  0.00000000000E+00 0.  1.
</event>
<event>
12    1  0.1594900E-001  0.2415061E+03  0.7818608E-02  0.1118967E+00
         21   -1    0    0  503  502  0.00000000000E+00  0.00000000000E+00  0.15689977672E+03  0.15689977672E+03  0.00000000000E+00 0. -1.
         21   -1    0    0  501  503 -0.00000000000E+00 -0.00000000000E+00 -0.37625452320E+03  0.37625452320E+03  0.00000000000E+00 0.  1.
          6    2    1    2  501    0 -0.16646572495E+03 -0.31265619004E+02 -0.14347736875E+03  0.28000895356E+03  0.17067771447E+03 0.  0.
         24    2    3    3    0    0 -0.16296138926E+03 -0.43993599566E+02 -0.61948692585E+02  0.19728473162E+03  0.81189738418E+02 0.  0.
         -6    2    1    2    0  502  0.16646572495E+03  0.31265619004E+02 -0.75877377724E+02  0.25314534636E+03  0.17215345893E+03 0.  0.
        -24    2    5    5    0    0  0.11671653994E+02  0.12594851196E+02 -0.45153324388E+01  0.81609829693E+02  0.79654995398E+02 0.  0.
          5    1    3    3  501    0 -0.35043356801E+01  0.12727980562E+02 -0.81528676167E+02  0.82724221938E+02  0.47000000000E+01 0. -1.
        -11    1    4    4    0    0  0.37705698034E+01  0.47524447363E+01 -0.16712874171E+02  0.17779850693E+02  0.00000000000E+00 0.  1.
         12    1    4    4    0    0 -0.16673195907E+03 -0.48746044302E+02 -0.45235818415E+02  0.17950488093E+03  0.00000000000E+00 0. -1.
         -5    1    5    5    0  502  0.15479407095E+03  0.18670767808E+02 -0.71362045286E+02  0.17153551667E+03  0.47000000000E+01 0.  1.
         13    1    6    6    0    0  0.12131605692E+02  0.43608980794E+02 -0.16752574439E+02  0.48265596577E+02  0.00000000000E+00 0. -1.
        -14    1    6    6    0    0 -0.45995169802E+00 -0.31014129598E+02  0.12237242001E+02  0.33344233116E+02  0.00000000000E+00 0.  1.
</event>
<event>
12    1  0.1594900E-001  0.2090726E+03  0.7818608E-02  0.1142369E+00
         21   -1    0    0  501  502  0.00000000000E+00  0.00000000000E+00  0.76849655746E+03  0.76849655746E+03  0.00000000000E+00 0. -1.
         21   -1    0    0  502  503 -0.00000000000E+00 -0.00000000000E+00 -0.72615868207E+02  0.72615868207E+02  0.00000000000E+00 0.  1.
         -6    2    1    2    0  503  0.97830885947E+01 -0.11819413343E+03  0.15181233825E+03  0.25837634523E+03  0.17217952181E+03 0.  0.
        -24    2    3    3    0    0  0.99481562473E+01  0.74887274971E+01  0.40084979615E+02  0.90146438720E+02  0.79777991770E+02 0.  0.
          6    2    1    2  501    0 -0.97830885947E+01  0.11819413343E+03  0.54406835100E+03  0.58273608043E+03  0.17177137969E+03 0.  0.
         24    2    5    5    0    0 -0.28622228299E+02  0.10107303226E+02  0.14092471951E+03  0.16490291557E+03  0.80073750155E+02 0.  0.
          5    1    5    5  501    0  0.18839139705E+02  0.10808683020E+03  0.40314363149E+03  0.41783316486E+03  0.47000000000E+01 0. -1.
        -13    1    6    6    0    0  0.24993561434E+02 -0.64595685595E+01  0.69036885667E+02  0.73705466023E+02  0.00000000000E+00 0.  1.
         14    1    6    6    0    0 -0.53615789734E+02  0.16566871785E+02  0.71887833845E+02  0.91197449550E+02  0.00000000000E+00 0. -1.
         -5    1    3    3    0  503 -0.16506765260E+00 -0.12568286092E+03  0.11172735864E+03  0.16822990651E+03  0.47000000000E+01 0.  1.
         11    1    4    4    0    0  0.18108892533E+02 -0.33027543617E+02  0.28470095965E+02  0.47215431698E+02  0.00000000000E+00 0. -1.
        -12    1    4    4    0    0 -0.81607362862E+01  0.40516271114E+02  0.11614883650E+02  0.42931007022E+02  0.00000000000E+00 0.  1.
</event>
<event>
12    1  0.1594900E-001  0.2268040E+03  0.7818608E-02  0.1129618E+00
         21   -1    0    0  501  502  0.00000000000E+00  0.00000000000E+00  0.75569692670E+02  0.75569692670E+02  0.00000000000E+00 0.  1.
         21   -1    0    0  502  503 -0.00000000000E+00 -0.00000000000E+00 -0.11706617721E+04  0.11706617721E+04  0.00000000000E+00 0. -1.
         -6    2    1    2    0  503 -0.13410943418E+03 -0.51191283293E+02 -0.95271920023E+03  0.97844402741E+03  0.17050792497E+03 0.  0.
        -24    2    3    3    0    0 -0.15853446746E+03 -0.17528926084E+02 -0.82137696781E+03  0.84059407797E+03  0.80609180968E+02 0.  0.
          6    2    1    2  501    0  0.13410943418E+03  0.51191283293E+02 -0.14237287924E+03  0.26778743739E+03  0.17559666016E+03 0.  0.
         24    2    5    5    0    0  0.88583441811E+01 -0.59659265667E+01 -0.89485308242E+02  0.12022739079E+03  0.79579787413E+02 0.  0.
          5    1    5    5  501    0  0.12525109000E+03  0.57157209860E+02 -0.52887570994E+02  0.14756004660E+03  0.47000000000E+01 0. -1.
        -11    1    6    6    0    0 -0.88323260418E+01 -0.29023604828E+02 -0.48267116546E+01  0.30719322354E+02  0.00000000000E+00 0.  1.
         12    1    6    6    0    0  0.17690670223E+02  0.23057678261E+02 -0.84658596588E+02  0.89508068441E+02  0.00000000000E+00 0. -1.
         -5    1    3    3    0  503  0.24425033282E+02 -0.33662357209E+02 -0.13134223242E+03  0.13784994944E+03  0.47000000000E+01 0.  1.
         11    1    4    4    0    0 -0.90488200546E+02 -0.72945583150E+01 -0.64348500058E+03  0.64985711582E+03  0.00000000000E+00 0. -1.
        -12    1    4    4    0    0 -0.68046266919E+02 -0.10234367769E+02 -0.17789196723E+03  0.19073696215E+03  0.00000000000E+00 0.  1.
</event>
<event>
12    1  0.1594900E-001  0.4200022E+03  0.7818608E-02  0.1037089E+00
         21   -1    0    0  501  502  0.00000000000E+00  0.00000000000E+00  0.24198202037E+03  0.24198202037E+03  0.00000000000E+00 0.  1.
         21   -1    0    0  502  503 -0.00000000000E+00 -0.00000000000E+00 -0.76662709878E+03  0.76662709878E+03  0.00000000000E+00 0. -1.
         -6    2    1    2    0  503 -0.13276792997E+03  0.35912628559E+03 -0.37471061115E+03  0.56264703735E+03  0.17194369515E+03 0.  0.
        -24    2    3    3    0    0 -0.14720709131E+03  0.27011778506E+03 -0.23058528319E+03  0.39257292790E+03  0.79437933985E+02 0.  0.
          6    2    1    2  501    0  0.13276792997E+03 -0.35912628559E+03 -0.14993446726E+03  0.44596208179E+03  0.17263493762E+03 0.  0.
         24    2    5    5    0    0  0.14743664516E+03 -0.23339731429E+03 -0.75247085965E+02  0.29891365318E+03  0.86460265205E+02 0.  0.
          5    1    5    5  501    0 -0.14668715194E+02 -0.12572897130E+03 -0.74687381293E+02  0.14704842860E+03  0.47000000000E+01 0. -1.
        -13    1    6    6    0    0  0.93430321676E+02 -0.20087431070E+03 -0.80359415732E+02  0.23566363615E+03  0.00000000000E+00 0.  1.
         14    1    6    6    0    0  0.54006323485E+02 -0.32523003591E+02  0.51123297674E+01  0.63250017032E+02  0.00000000000E+00 0. -1.
         -5    1    3    3    0  503  0.14439161343E+02  0.89008500530E+02 -0.14412532796E+03  0.17007410945E+03  0.47000000000E+01 0.  1.
         13    1    4    4    0    0 -0.50887635391E+02  0.14789009809E+03 -0.15257956314E+03  0.21849841106E+03  0.00000000000E+00 0. -1.
        -14    1    4    4    0    0 -0.96319455918E+02  0.12222768698E+03 -0.78005720051E+02  0.17407451684E+03  0.00000000000E+00 0.  1.
</event>
<event>
12    1  0.1594900E-001  0.3462134E+03  0.7818608E-02  0.1064299E+00
         21   -1    0    0  503  502  0.00000000000E+00  0.00000000000E+00  0.39372230111E+03  0.39372230111E+03  0.00000000000E+00 0.  1.
         21   -1    0    0  501  503 -0.00000000000E+00 -0.00000000000E+00 -0.33152418756E+03  0.33152418756E+03  0.00000000000E+00 0.  1.
          6    2    1    2  501    0  0.29548430875E+03  0.47032159144E+02  0.13669709098E+03  0.37222279658E+03  0.17418586310E+03 0.  0.
         24    2    3    3    0    0  0.26687715976E+03 -0.89862494216E+01  0.87831466693E+02  0.29243325900E+03  0.80614349511E+02 0.  0.
         -6    2    1    2    0  502 -0.29548430875E+03 -0.47032159144E+02 -0.74498977429E+02  0.35302369208E+03  0.17190878053E+03 0.  0.
        -24    2    5    5    0    0 -0.14722448458E+03 -0.79419204709E+02 -0.47506506090E+01  0.18594043357E+03  0.81048240061E+02 0.  0.
          5    1    3    3  501    0  0.28607148989E+02  0.56018408565E+02  0.48865624284E+02  0.79789537586E+02  0.47000000000E+01 0. -1.
        -11    1    4    4    0    0  0.22364070114E+03  0.17751188644E+02  0.89579728458E+02  0.24156737291E+03  0.00000000000E+00 0.  1.
         12    1    4    4    0    0  0.43236458624E+02 -0.26737438066E+02 -0.17482617642E+01  0.50865886092E+02  0.00000000000E+00 0. -1.
         -5    1    5    5    0  502 -0.14825982417E+03  0.32387045565E+02 -0.69748326820E+02  0.16708325852E+03  0.47000000000E+01 0.  1.
         13    1    6    6    0    0 -0.38468704976E+01 -0.17898472881E+02  0.20946605444E+02  0.27819310267E+02  0.00000000000E+00 0. -1.
        -14    1    6    6    0    0 -0.14337761408E+03 -0.61520731827E+02 -0.25697256053E+02  0.15812112330E+03  0.00000000000E+00 0.  1.
</event>
<event>
12    1  0.1594900E-001  0.1811516E+03  0.7818608E-02  0.1166907E+00
         21   -1    0    0  501  502  0.00000000000E+00  0.00000000000E+00  0.10680354361E+04  0.10680354361E+04  0.00000000000E+00 0. -1.
         21   -1    0    0  502  503 -0.00000000000E+00 -0.00000000000E+00 -0.33333958978E+02  0.33333958978E+02  0.00000000000E+00 0. -1.
         -6    2    1    2    0  503  0.32594057873E+02 -0.45030099707E+02  0.36009227151E+03  0.40309098657E+03  0.17241176575E+03 0.  0.
        -24    2    3    3    0    0  0.20022459910E+02 -0.87069702501E+02  0.33162755019E+03  0.35057714423E+03  0.70324035825E+02 0.  0.
          6    2    1    2  501    0 -0.32594057873E+02  0.45030099707E+02  0.67460920565E+03  0.69827840854E+03  0.17147907451E+03 0.  0.
         24    2    5    5    0    0  0.17460230191E+02  0.47987274962E+02  0.20631298862E+03  0.22728200354E+03  0.80525906777E+02 0.  0.
          5    1    5    5  501    0 -0.50054288063E+02 -0.29571752551E+01  0.46829621703E+03  0.47099640500E+03  0.47000000000E+01 0. -1.
        -11    1    6    6    0    0 -0.21312132445E+02  0.24922732065E+02  0.27291306484E+02  0.42663391480E+02  0.00000000000E+00 0.  1.
         12    1    6    6    0    0  0.38772362636E+02  0.23064542898E+02  0.17902168214E+03  0.18461861206E+03  0.00000000000E+00 0. -1.
         -5    1    3    3    0  503  0.12571597962E+02  0.42039602794E+02  0.28464721315E+02  0.52513842346E+02  0.47000000000E+01 0.  1.
         11    1    4    4    0    0  0.24573035062E+02 -0.12165203557E+01  0.11311511592E+03  0.11575985238E+03  0.00000000000E+00 0. -1.
        -12    1    4    4    0    0 -0.45505751519E+01 -0.85853182145E+02  0.21851243427E+03  0.23481729185E+03  0.00000000000E+00 0.  1.
</event>
<event>
12    1  0.1594900E-001  0.1769935E+03  0.7818608E-02  0.1170755E+00
         21   -1    0    0  501  502  0.00000000000E+00  0.00000000000E+00  0.69535967734E+03  0.69535967734E+03  0.00000000000E+00 0.  1.
         21   -1    0    0  502  503 -0.00000000000E+00 -0.00000000000E+00 -0.55883749386E+02  0.55883749386E+02  0.00000000000E+00 0.  1.
         -6    2    1    2    0  503  0.11235543290E+02  0.42923987686E+02  0.15425382273E+03  0.23474831597E+03  0.17130039075E+03 0.  0.
        -24    2    3    3    0    0 -0.42087874439E+02 -0.20511731501E+02  0.93293764410E+02  0.13176435577E+03  0.80411433709E+02 0.  0.
          6    2    1    2  501    0 -0.11235543290E+02 -0.42923987686E+02  0.48522210522E+03  0.51649511075E+03  0.17134176924E+03 0.  0.
         24    2    5    5    0    0 -0.56168688811E+02 -0.59841616196E+02  0.42042095141E+03  0.43570851993E+03  0.79700673321E+02 0.  0.
          5    1    5    5  501    0  0.44933145520E+02  0.16917628510E+02  0.64801153809E+02  0.80786590816E+02  0.47000000000E+01 0. -1.
        -11    1    6    6    0    0 -0.50684787947E+02 -0.42516712589E+02  0.14155595433E+03  0.15625206170E+03  0.00000000000E+00 0.  1.
         12    1    6    6    0    0 -0.54839008634E+01 -0.17324903606E+02  0.27886499708E+03  0.27945645824E+03  0.00000000000E+00 0. -1.
         -5    1    3    3    0  503  0.53323417729E+02  0.63435719187E+02  0.60960058323E+02  0.10298396020E+03  0.47000000000E+01 0.  1.
         13    1    4    4    0    0 -0.23218713911E+02 -0.39450695518E+02  0.94499281391E+02  0.10500276299E+03  0.00000000000E+00 0. -1.
        -14    1    4    4    0    0 -0.18869160528E+02  0.18938964017E+02 -0.12055169815E+01  0.26761592783E+02  0.00000000000E+00 0.  1.
</event>
<event>
12    1  0.1594900E-001  0.2183319E+03  0.7818608E-02  0.1135140E+00
         21   -1    0    0  501  502  0.00000000000E+00  0.00000000000E+00  0.11075285566E+03  0.11075285566E+03  0.00000000000E+00 0.  1.
         21   -1    0    0  502  503 -0.00000000000E+00 -0.00000000000E+00 -0.46799558533E+03  0.46799558533E+03  0.00000000000E+00 0. -1.
         -6    2    1    2    0  503  0.79056902011E+02  0.10895048349E+03 -0.96539730190E+02  0.23872314617E+03  0.17189711866E+03 0.  0.
        -24    2    3    3    0    0  0.66731159590E+02  0.13740572486E+03 -0.44299391180E+02  0.17779066134E+03  0.79458808918E+02 0.  0.
          6    2    1    2  501    0 -0.79056902011E+02 -0.10895048349E+03 -0.26070299947E+03  0.34002529482E+03  0.17184570282E+03 0.  0.
         24    2    5    5    0    0 -0.10484931265E+03 -0.33828490916E+02 -0.14056104485E+03  0.19592553259E+03  0.80570849749E+02 0.  0.
          5    1    5    5  501    0  0.25792410643E+02 -0.75121992573E+02 -0.12014195462E+03  0.14409976223E+03  0.47000000000E+01 0. -1.
        -11    1    6    6    0    0 -0.81219517901E+02 -0.48699544972E+02 -0.63649319143E+02  0.11410298680E+03  0.00000000000E+00 0.  1.
         12    1    6    6    0    0 -0.23629794754E+02  0.14871054055E+02 -0.76911725707E+02  0.81822545793E+02  0.00000000000E+00 0. -1.
         -5    1    3    3    0  503  0.12325742422E+02 -0.28455241373E+02 -0.52240339011E+02  0.60932484832E+02  0.47000000000E+01 0.  1.
         11    1    4    4    0    0 -0.65867062700E+01  0.31354043823E+02 -0.36587088701E+02  0.48632045229E+02  0.00000000000E+00 0. -1.
        -12    1    4    4    0    0  0.73317865860E+02  0.10605168104E+03 -0.77123024789E+01  0.12915861611E+03  0.00000000000E+00 0.  1.
</event>
<event>
12    1  0.1594900E-001  0.2377267E+03  0.7818608E-02  0.1121972E+00
         21   -1    0    0  503  502  0.00000000000E+00  0.00000000000E+00  0.88584398699E+03  0.88584398699E+03  0.00000000000E+00 0.  1.
         21   -1    0    0  501  503 -0.00000000000E+00 -0.00000000000E+00 -0.99133902508E+02  0.99133902508E+02  0.00000000000E+00 0.  1.
          6    2    1    2  501    0  0.15657170947E+03 -0.20266488566E+02  0.93038761485E+02  0.25170177056E+03  0.17254605009E+03 0.  0.
         24    2    3    3    0    0  0.41987378932E+02  0.45666988790E+02  0.29296862848E+02  0.10486202158E+03  0.79305255450E+02 0.  0.
         -6    2    1    2    0  502 -0.15657170947E+03  0.20266488566E+02  0.69367132300E+03  0.73327611894E+03  0.17773162771E+03 0.  0.
        -24    2    5    5    0    0 -0.42471146617E+02  0.67047656868E+02  0.35527817586E+03  0.37308252074E+03  0.81662711524E+02 0.  0.
          5    1    3    3  501    0  0.11458433053E+03 -0.65933477356E+02  0.63741898637E+02  0.14683974899E+03  0.47000000000E+01 0. -1.
        -11    1    4    4    0    0  0.48279584195E+02  0.19292720013E+01 -0.54832679630E+01  0.48628248663E+02  0.00000000000E+00 0.  1.
         12    1    4    4    0    0 -0.62922052631E+01  0.43737716788E+02  0.34780130811E+02  0.56233772914E+02  0.00000000000E+00 0. -1.
         -5    1    5    5    0  502 -0.11410056285E+03 -0.46781168302E+02  0.33839314714E+03  0.36019359820E+03  0.47000000000E+01 0.  1.
         13    1    6    6    0    0  0.61522662048E+01  0.18391148644E+02  0.11620152505E+02  0.22607801134E+02  0.00000000000E+00 0. -1.
        -14    1    6    6    0    0 -0.48623412822E+02  0.48656508224E+02  0.34365802335E+03  0.35047471960E+03  0.00000000000E+00 0.  1.
</event>
<event>
12    1  0.1594900E-001  0.2028924E+03  0.7818608E-02  0.1148355E+00
         21   -1    0    0  501  502  0.00000000000E+00  0.00000000000E+00  0.11592809129E+03  0.11592809129E+03  0.00000000000E+00 0. -1.
         21   -1    0    0  502  503 -0.00000000000E+00 -0.00000000000E+00 -0.69939370305E+03  0.69939370305E+03  0.00000000000E+00 0. -1.
         -6    2    1    2    0  503 -0.72989839546E+02 -0.61869033087E+02 -0.58306175169E+03  0.61735430336E+03  0.17891348651E+03 0.  0.
        -24    2    3    3    0    0  0.26536390528E+02 -0.11133645411E+02 -0.15968624632E+03  0.17946338248E+03  0.76676399925E+02 0.  0.
          6    2    1    2  501    0  0.72989839546E+02  0.61869033087E+02 -0.40386006477E+00  0.19796749099E+03  0.17330802189E+03 0.  0.
         24    2    5    5    0    0  0.61910178937E+02 -0.26058725172E+02  0.18824627391E+02  0.10716069454E+03  0.81345684851E+02 0.  0.
          5    1    5    5  501    0  0.11079660609E+02  0.87927758259E+02 -0.19228487456E+02  0.90806796450E+02  0.47000000000E+01 0. -1.
        -13    1    6    6    0    0  0.68560916393E+02  0.90495464039E+01  0.69375455340E+01  0.69502684011E+02  0.00000000000E+00 0.  1.
         14    1    6    6    0    0 -0.66507374556E+01 -0.35108271576E+02  0.11887081857E+02  0.37658010527E+02  0.00000000000E+00 0. -1.
         -5    1    3    3    0  503 -0.99526230074E+02 -0.50735387676E+02 -0.42337550537E+03  0.43789092088E+03  0.47000000000E+01 0.  1.
         11    1    4    4    0    0 -0.30092129358E+01 -0.29570336022E+02 -0.13104230452E+03  0.13437092583E+03  0.00000000000E+00 0. -1.
        -12    1    4    4    0    0  0.29545603464E+02  0.18436690611E+02 -0.28643941794E+02  0.45092456644E+02  0.00000000000E+00 0.  1.
</event>
<event>
12    1  0.1594900E-001  0.2256462E+03  0.7818608E-02  0.1129796E+00
         21   -1    0    0  501  502  0.00000000000E+00  0.00000000000E+00  0.54566493446E+03  0.54566493446E+03  0.00000000000E+00 0. -1.
         21   -1    0    0  502  503 -0.00000000000E+00 -0.00000000000E+00 -0.15133475896E+03  0.15133475896E+03  0.00000000000E+00 0. -1.
         -6    2    1    2    0  503 -0.85927465691E+02  0.11891073162E+03 -0.18935072897E+02  0.22614477030E+03  0.17105446119E+03 0.  0.
        -24    2    3    3    0    0 -0.75385272990E+01  0.84190908588E+02 -0.60011823226E+02  0.13096241274E+03  0.80029970260E+02 0.  0.
          6    2    1    2  501    0  0.85927465691E+02 -0.11891073162E+03  0.41326524839E+03  0.47085492312E+03  0.17144358152E+03 0.  0.
         24    2    5    5    0    0  0.94589352341E+02 -0.33857357794E+02  0.15723244670E+03  0.20088457249E+03  0.74425149745E+02 0.  0.
          5    1    5    5  501    0 -0.86618866501E+01 -0.85053373830E+02  0.25603280169E+03  0.26997035063E+03  0.47000000000E+01 0. -1.
        -13    1    6    6    0    0  0.33826702015E+01  0.68345954243E+01 -0.58769863452E+01  0.96277266687E+01  0.00000000000E+00 0.  1.
         14    1    6    6    0    0  0.91206682139E+02 -0.40691953218E+02  0.16310943305E+03  0.19125684582E+03  0.00000000000E+00 0. -1.
         -5    1    3    3    0  503 -0.78388938392E+02  0.34719823036E+02  0.41076750329E+02  0.95182357564E+02  0.47000000000E+01 0.  1.
         13    1    4    4    0    0 -0.29830915174E+02  0.87753222456E+02 -0.40593488003E+02  0.10118469657E+03  0.00000000000E+00 0. -1.
        -14    1    4    4    0    0  0.22292387875E+02 -0.35623138676E+01 -0.19418335222E+02  0.29777716166E+02  0.00000000000E+00 0.  1.
</event>
<event>
12    1  0.1594900E-001  0.2419777E+03  0.7818608E-02  0.1118503E+00
         21   -1    0    0  503  502  0.00000000000E+00  0.00000000000E+00  0.27983179169E+03  0.27983179169E+03  0.00000000000E+00 0.  1.
         21   -1    0    0  501  503 -0.00000000000E+00 -0.00000000000E+00 -0.23211789715E+03  0.23211789715E+03  0.00000000000E+00 0. -1.
          6    2    1    2  501    0  0.13816388238E+03  0.99698997585E+02  0.10439780999E+03  0.26342152032E+03  0.17164744717E+03 0.  0.
         24    2    3    3    0    0  0.32686850761E+02 -0.14597279773E+02  0.37082029932E+02  0.93885248496E+02  0.78471983228E+02 0.  0.
         -6    2    1    2    0  502 -0.13816388238E+03 -0.99698997585E+02 -0.56683915447E+02  0.24852816853E+03  0.17182559694E+03 0.  0.
        -24    2    5    5    0    0 -0.25814216162E+02 -0.94180541774E+02 -0.14096019306E+02  0.12815907053E+03  0.81790594775E+02 0.  0.
          5    1    3    3  501    0  0.10547703162E+03  0.11429627736E+03  0.67315780055E+02  0.16953627182E+03  0.47000000000E+01 0. -1.
        -11    1    4    4    0    0  0.22067606471E+02  0.30611817235E+02  0.26898906674E+02  0.46342354170E+02  0.00000000000E+00 0.  1.
         12    1    4    4    0    0  0.10619244290E+02 -0.45209097008E+02  0.10183123258E+02  0.47542894326E+02  0.00000000000E+00 0. -1.
         -5    1    5    5    0  502 -0.11234966622E+03 -0.55184558109E+01 -0.42587896141E+02  0.12036909800E+03  0.47000000000E+01 0.  1.
         13    1    6    6    0    0 -0.12030630789E+02 -0.29712943223E+02 -0.45080687663E+02  0.55316032688E+02  0.00000000000E+00 0. -1.
        -14    1    6    6    0    0 -0.13783585372E+02 -0.64467598551E+02  0.30984668357E+02  0.72843037841E+02  0.00000000000E+00 0.  1.
</event>
<event>
12    1  0.1594900E-001  0.1767215E+03  0.7818608E-02  0.1171120E+00
         21   -1    0    0  503  502  0.00000000000E+00  0.00000000000E+00  0.29926352853E+02  0.29926352853E+02  0.00000000000E+00 0.  1.
         21   -1    0    0  501  503 -0.00000000000E+00 -0.00000000000E+00 -0.11295189128E+04  0.11295189128E+04  0.00000000000E+00 0.  1.
          6    2    1    2  501    0  0.39172386813E+02 -0.11473460642E+02 -0.71265002938E+03  0.73423466298E+03  0.17194289677E+03 0.  0.
         24    2    3    3    0    0 -0.41103818836E+02 -0.17730736862E+02 -0.29500934717E+03  0.30887686990E+03  0.79815430112E+02 0.  0.
         -6    2    1    2    0  502 -0.39172386813E+02  0.11473460642E+02 -0.38694253057E+03  0.42521060269E+03  0.17150340662E+03 0.  0.
        -24    2    5    5    0    0  0.41588664471E+00  0.69255409665E+02 -0.25401062991E+03  0.27488108049E+03  0.79004579469E+02 0.  0.
          5    1    3    3  501    0  0.80276205649E+02  0.62572762201E+01 -0.41764068221E+03  0.42535779308E+03  0.47000000000E+01 0. -1.
        -11    1    4    4    0    0 -0.17393786009E+02  0.26244938632E+01 -0.66132601882E+01  0.18792737163E+02  0.00000000000E+00 0.  1.
         12    1    4    4    0    0 -0.23710032827E+02 -0.20355230725E+02 -0.28839608699E+03  0.29008413273E+03  0.00000000000E+00 0. -1.
         -5    1    5    5    0  502 -0.39588273458E+02 -0.57781949023E+02 -0.13293190066E+03  0.15032952219E+03  0.47000000000E+01 0.  1.
         11    1    6    6    0    0 -0.34211223048E+02  0.59965190078E+02 -0.15957007509E+03  0.17386443187E+03  0.00000000000E+00 0. -1.
        -12    1    6    6    0    0  0.34627109693E+02  0.92902195869E+01 -0.94440554815E+02  0.10101664863E+03  0.00000000000E+00 0.  1.
</event>
<event>
12    1  0.1594900E-001  0.1984981E+03  0.7818608E-02  0.1151128E+00
         21   -1    0    0  501  502  0.00000000000E+00  0.00000000000E+00  0.73917537942E+03  0.73917537942E+03  0.00000000000E+00 0. -1.
         21   -1    0    0  502  503 -0.00000000000E+00 -0.00000000000E+00 -0.19110395582E+03  0.19110395582E+03  0.00000000000E+00 0.  1.
         -6    2    1    2    0  503  0.76287191149E+02 -0.62436220817E+02 -0.12104572261E+03  0.23249418918E+03  0.17228889644E+03 0.  0.
        -24    2    3    3    0    0  0.24075298613E+02 -0.96607964790E+02 -0.92557879250E+02  0.16373782927E+03  0.91271007775E+02 0.  0.
          6    2    1    2  501    0 -0.76287191149E+02  0.62436220817E+02  0.66911714622E+03  0.69778514606E+03  0.17166344253E+03 0.  0.
         24    2    5    5    0    0  0.49397997636E+01 -0.16882114355E+02  0.33938024703E+03  0.34901912847E+03  0.79536108480E+02 0.  0.
          5    1    5    5  501    0 -0.81226990913E+02  0.79318335171E+02  0.32973689918E+03  0.34876601760E+03  0.47000000000E+01 0. -1.
        -13    1    6    6    0    0  0.22685659667E+02  0.25442915862E+02  0.17825440606E+03  0.18148447427E+03  0.00000000000E+00 0.  1.
         14    1    6    6    0    0 -0.17745859903E+02 -0.42325030216E+02  0.16112584097E+03  0.16753465419E+03  0.00000000000E+00 0. -1.
         -5    1    3    3    0  503  0.52211892537E+02  0.34171743973E+02 -0.28487843362E+02  0.68756359908E+02  0.47000000000E+01 0.  1.
         11    1    4    4    0    0  0.58172860065E+02 -0.67806467598E+02 -0.51667651059E+02  0.10320535288E+03  0.00000000000E+00 0. -1.
        -12    1    4    4    0    0 -0.34097561452E+02 -0.28801497191E+02 -0.40890228191E+02  0.60532476399E+02  0.00000000000E+00 0.  1.
</event>
<event>
12    1  0.1594900E-001  0.2263791E+03  0.7818608E-02  0.1129278E+00
         21   -1    0    0  503  502  0.00000000000E+00  0.00000000000E+00  0.28608496224E+03  0.28608496224E+03  0.00000000000E+00 0.  1.
         21   -1    0    0  501  503 -0.00000000000E+00 -0.00000000000E+00 -0.18106576907E+03  0.18106576907E+03  0.00000000000E+00 0. -1.
          6    2    1    2  501    0 -0.14324132051E+03  0.31059286271E+02  0.78290998333E+02  0.23919922859E+03  0.17205823251E+03 0.  0.
         24    2    3    3    0    0 -0.16971857776E+03  0.11072539730E+02  0.48422203189E+02  0.19431326072E+03  0.80535313713E+02 0.  0.
         -6    2    1    2    0  502  0.14324132051E+03 -0.31059286271E+02  0.26728194832E+02  0.22795150271E+03  0.17252459542E+03 0.  0.
        -24    2    5    5    0    0  0.11894097525E+03 -0.84847968900E+02  0.18319909492E+02  0.16814750267E+03  0.81190086529E+02 0.  0.
          5    1    3    3  501    0  0.26477257251E+02  0.19986746542E+02  0.29868795144E+02  0.44885967877E+02  0.47000000000E+01 0. -1.
        -13    1    4    4    0    0 -0.87694841060E+02 -0.27357169527E+02  0.48184283867E+02  0.10373295082E+03  0.00000000000E+00 0.  1.
         14    1    4    4    0    0 -0.82023736702E+02  0.38429709256E+02  0.23791932163E+00  0.90580309901E+02  0.00000000000E+00 0. -1.
         -5    1    5    5    0  502  0.24300345258E+02  0.53788682628E+02  0.84082853400E+01  0.59804000041E+02  0.47000000000E+01 0.  1.
         11    1    6    6    0    0  0.10489992070E+03 -0.96167114136E+02 -0.18148367028E+00  0.14231001419E+03  0.00000000000E+00 0. -1.
        -12    1    6    6    0    0  0.14041054556E+02  0.11319145236E+02  0.18501393162E+02  0.25837488479E+02  0.00000000000E+00 0.  1.
</event>
<event>
12    1  0.1594900E-001  0.2020686E+03  0.7818608E-02  0.1148099E+00
         21   -1    0    0  503  502  0.00000000000E+00  0.00000000000E+00  0.13356825241E+04  0.13356825241E+04  0.00000000000E+00 0.  1.
         21   -1    0    0  501  503 -0.00000000000E+00 -0.00000000000E+00 -0.35385437472E+02  0.35385437472E+02  0.00000000000E+00 0. -1.
          6    2    1    2  501    0 -0.52795522947E+02 -0.89916859445E+02  0.90543157854E+03  0.92770580103E+03  0.17308755293E+03 0.  0.
         24    2    3    3    0    0 -0.61190063394E+02 -0.95967095454E+02  0.42113100587E+03  0.44327189599E+03  0.78643133165E+02 0.  0.
         -6    2    1    2    0  502  0.52795522947E+02  0.89916859445E+02  0.39486550812E+03  0.44336216058E+03  0.17256542839E+03 0.  0.
        -24    2    5    5    0    0  0.71208189635E+02  0.47865883675E+02  0.13331405832E+03  0.17777119359E+03  0.80425182820E+02 0.  0.
          5    1    3    3  501    0  0.83945404476E+01  0.60502360094E+01  0.48430057267E+03  0.48443390504E+03  0.47000000000E+01 0. -1.
        -13    1    4    4    0    0 -0.43742853163E+02 -0.35508019949E+01  0.11860854031E+03  0.12646751058E+03  0.00000000000E+00 0.  1.
         14    1    4    4    0    0 -0.17447210231E+02 -0.92416293459E+02  0.30252246557E+03  0.31680438541E+03  0.00000000000E+00 0. -1.
         -5    1    5    5    0  502 -0.18412666689E+02  0.42050975770E+02  0.26155144979E+03  0.26559096699E+03  0.47000000000E+01 0.  1.
         13    1    6    6    0    0  0.49095308769E+02 -0.37369684004E+01  0.10254006811E+03  0.11374875755E+03  0.00000000000E+00 0. -1.
        -14    1    6    6    0    0  0.22112880866E+02  0.51602852075E+02  0.30773990211E+02  0.64022436036E+02  0.00000000000E+00 0.  1.
</event>
<event>
12    1  0.1594900E-001  0.6194486E+03  0.7818608E-02  0.9866047E-01
         21   -1    0    0  501  502  0.00000000000E+00  0.00000000000E+00  0.47416250181E+03  0.47416250181E+03  0.00000000000E+00 0. -1.
         21   -1    0    0  502  503 -0.00000000000E+00 -0.00000000000E+00 -0.81569351080E+03  0.81569351080E+03  0.00000000000E+00 0.  1.
         -6    2    1    2    0  503  0.27275124190E+03 -0.52881114598E+03 -0.23028922250E+03  0.66087043260E+03  0.17228503884E+03 0.  0.
        -24    2    3    3    0    0  0.19636124859E+03 -0.48468648210E+03 -0.17753316056E+03  0.55797383833E+03  0.79611904141E+02 0.  0.
          6    2    1    2  501    0 -0.27275124190E+03  0.52881114598E+03 -0.11124178648E+03  0.62898558000E+03  0.17092003018E+03 0.  0.
         24    2    5    5    0    0 -0.22293965539E+03  0.32801417052E+03 -0.27338210540E+02  0.40568640946E+03  0.80862222727E+02 0.  0.
          5    1    5    5  501    0 -0.49811586511E+02  0.20079697547E+03 -0.83903575942E+02  0.22329917054E+03  0.47000000000E+01 0. -1.
        -13    1    6    6    0    0 -0.72128556514E+02  0.10529940454E+03 -0.46961845162E+02  0.13599966236E+03  0.00000000000E+00 0.  1.
         14    1    6    6    0    0 -0.15081109887E+03  0.22271476598E+03  0.19623634621E+02  0.26968674710E+03  0.00000000000E+00 0. -1.
         -5    1    3    3    0  503  0.76389993310E+02 -0.44124663881E+02 -0.52756061948E+02  0.10289659427E+03  0.47000000000E+01 0.  1.
         13    1    4    4    0    0  0.38251157653E+02 -0.17760937384E+03 -0.38904607734E+02  0.18580045544E+03  0.00000000000E+00 0. -1.
        -14    1    4    4    0    0  0.15811009094E+03 -0.30707710826E+03 -0.13862855282E+03  0.37217338289E+03  0.00000000000E+00 0.  1.
</event>
<event>
12    1  0.1594900E-001  0.1908661E+03  0.7818608E-02  0.1157780E+00
         21   -1    0    0  501  502  0.00000000000E+00  0.00000000000E+00  0.88411834187E+02  0.88411834187E+02  0.00000000000E+00 0.  1.
         21   -1    0    0  502  503 -0.00000000000E+00 -0.00000000000E+00 -0.43816331129E+03  0.43816331129E+03  0.00000000000E+00 0.  1.
         -6    2    1    2    0  503  0.59639421612E+02  0.57909873998E+02 -0.24010812193E+03  0.30645809685E+03  0.17133079347E+03 0.  0.
        -24    2    3    3    0    0 -0.59935459716E+01 -0.25399640351E+02 -0.94811668853E+02  0.12651001853E+03  0.79589370609E+02 0.  0.
          6    2    1    2  501    0 -0.59639421612E+02 -0.57909873998E+02 -0.10964335517E+03  0.22011704863E+03  0.17181221041E+03 0.  0.
         24    2    5    5    0    0 -0.99623951852E+02 -0.35096072297E+02 -0.11272468982E+03  0.17374014889E+03  0.79511744826E+02 0.  0.
          5    1    5    5  501    0  0.39984530240E+02 -0.22813801701E+02  0.30813346501E+01  0.46376899743E+02  0.47000000000E+01 0. -1.
        -11    1    6    6    0    0 -0.68287659039E+02 -0.19078838761E+01 -0.10808019527E+03  0.12785997422E+03  0.00000000000E+00 0.  1.
         12    1    6    6    0    0 -0.31336292813E+02 -0.33188188421E+02 -0.46444945588E+01  0.45880174669E+02  0.00000000000E+00 0. -1.
         -5    1    3    3    0  503  0.65632967584E+02  0.83309514350E+02 -0.14529645307E+03  0.17994807832E+03  0.47000000000E+01 0.  1.
         11    1    4    4    0    0  0.29944081414E+02 -0.12629007429E+02 -0.10798999771E+02  0.34245557908E+02  0.00000000000E+00 0. -1.
        -12    1    4    4    0    0 -0.35937627385E+02 -0.12770632923E+02 -0.84012669081E+02  0.92264460620E+02  0.00000000000E+00 0.  1.
</event>
<event>
12    1  0.1594900E-001  0.2194351E+03  0.7818608E-02  0.1134393E+00
         21   -1    0    0  501  502  0.00000000000E+00  0.00000000000E+00  0.19455464517E+04  0.19455464517E+04  0.00000000000E+00 0.  1.
         21   -1    0    0  502  503 -0.00000000000E+00 -0.00000000000E+00 -0.27572111042E+02  0.27572111042E+02  0.00000000000E+00 0. -1.
         -6    2    1    2    0  503  0.11178707548E+03  0.78240654263E+02  0.12784884429E+04  0.12971832768E+04  0.17185402163E+03 0.  0.
        -24    2    3    3    0    0 -0.78696043602E+01  0.17401450476E+02  0.58168723878E+03  0.58755440351E+03  0.80593995848E+02 0.  0.
          6    2    1    2  501    0 -0.11178707548E+03 -0.78240654263E+02  0.63948589784E+03  0.67593528603E+03  0.17125521053E+03 0.  0.
         24    2    5    5    0    0 -0.88826553848E+02 -0.69008106463E+02  0.63671653658E+03  0.65059391956E+03  0.72195739404E+02 0.  0.
          5    1    5    5  501    0 -0.22960521636E+02 -0.92325478002E+01  0.27693612630E+01  0.25341366468E+02  0.47000000000E+01 0. -1.
        -13    1    6    6    0    0  0.63541207668E+00 -0.12777395545E+02  0.23064597068E+03  0.23100049649E+03  0.00000000000E+00 0.  1.
         14    1    6    6    0    0 -0.89461965925E+02 -0.56230710919E+02  0.40607056590E+03  0.41959342307E+03  0.00000000000E+00 0. -1.
         -5    1    3    3    0  503  0.11965667984E+03  0.60839203787E+02  0.69680120408E+03  0.70962887326E+03  0.47000000000E+01 0.  1.
         11    1    4    4    0    0 -0.28165124714E+01 -0.16435139693E+02  0.26471202516E+02  0.31285317992E+02  0.00000000000E+00 0. -1.
        -12    1    4    4    0    0 -0.50530918888E+01  0.33836590169E+02  0.55521603627E+03  0.55626908552E+03  0.00000000000E+00 0.  1.
</event>
<event>
12    1  0.1594900E-001  0.1818563E+03  0.7818608E-02  0.1167486E+00
         21   -1    0    0  503  502  0.00000000000E+00  0.00000000000E+00  0.57088681558E+02  0.57088681558E+02  0.00000000000E+00 0.  1.
         21   -1    0    0  501  503 -0.00000000000E+00 -0.00000000000E+00 -0.80327868265E+03  0.80327868265E+03  0.00000000000E+00 0.  1.
          6    2    1    2  501    0  0.13535098757E+02  0.37485344946E+02 -0.60530618874E+03  0.63032398922E+03  0.17124368388E+03 0.  0.
         24    2    3    3    0    0 -0.32510040954E+02 -0.94541610369E+01 -0.46140015921E+03  0.47203783237E+03  0.93719391525E+02 0.  0.
         -6    2    1    2    0  502 -0.13535098757E+02 -0.37485344946E+02 -0.14088381235E+03  0.23004337499E+03  0.17743549761E+03 0.  0.
        -24    2    5    5    0    0 -0.75502444481E+02 -0.33082064765E+01 -0.97447113630E+02  0.14687567979E+03  0.79780711985E+02 0.  0.
          5    1    3    3  501    0  0.46045139711E+02  0.46939505983E+02 -0.14390602953E+03  0.15828615685E+03  0.47000000000E+01 0. -1.
        -13    1    4    4    0    0  0.32793662677E+02 -0.55255793899E+01 -0.12586696617E+03  0.13018621091E+03  0.00000000000E+00 0.  1.
         14    1    4    4    0    0 -0.65303703631E+02 -0.39285816470E+01 -0.33553319304E+03  0.34185162146E+03  0.00000000000E+00 0. -1.
         -5    1    5    5    0  502  0.61967345724E+02 -0.34177138469E+02 -0.43436698717E+02  0.83167695203E+02  0.47000000000E+01 0.  1.
         13    1    6    6    0    0  0.16819912095E+01 -0.88922394452E+01 -0.60408182813E+02  0.61082317961E+02  0.00000000000E+00 0. -1.
        -14    1    6    6    0    0 -0.77184435690E+02  0.55840329687E+01 -0.37038930818E+02  0.85793361824E+02  0.00000000000E+00 0.  1.
</event>
<event>
12    1  0.1594900E-001  0.2062216E+03  0.7818608E-02  0.1144934E+00
         21   -1    0    0  501  502  0.00000000000E+00  0.00000000000E+00  0.11093973638E+03  0.11093973638E+03  0.00000000000E+00 0. -1.
         21   -1    0    0  502  503 -0.00000000000E+00 -0.00000000000E+00 -0.38578428035E+03  0.38578428035E+03  0.00000000000E+00 0. -1.
         -6    2    1    2    0  503 -0.10685837908E+03 -0.41955293940E+02 -0.16666013274E+03  0.26384801727E+03  0.16929623889E+03 0.  0.
        -24    2    3    3    0    0 -0.14269428414E+03 -0.42587852240E+02 -0.14626812559E+03  0.22234456949E+03  0.76598688853E+02 0.  0.
          6    2    1    2  501    0  0.10685837908E+03  0.41955293940E+02 -0.10818441124E+03  0.23287599946E+03  0.17131376016E+03 0.  0.
         24    2    5    5    0    0  0.13996768348E+03  0.53105751821E+02 -0.92616056461E+02  0.19434001083E+03  0.82335488091E+02 0.  0.
          5    1    5    5  501    0 -0.33109304406E+02 -0.11150457881E+02 -0.15568354780E+02  0.38535988631E+02  0.47000000000E+01 0. -1.
        -13    1    6    6    0    0  0.16843073865E+02 -0.13955165117E+02 -0.38058150445E+02  0.43895997380E+02  0.00000000000E+00 0.  1.
         14    1    6    6    0    0  0.12312460962E+03  0.67060916938E+02 -0.54557906015E+02  0.15044401345E+03  0.00000000000E+00 0. -1.
         -5    1    3    3    0  503  0.35835905062E+02  0.63255829983E+00 -0.20392007145E+02  0.41503447772E+02  0.47000000000E+01 0.  1.
         11    1    4    4    0    0 -0.93640210966E+02 -0.15150831446E+02 -0.13504232492E+03  0.16502868334E+03  0.00000000000E+00 0. -1.
        -12    1    4    4    0    0 -0.49054073175E+02 -0.27437020794E+02 -0.11225800667E+02  0.57315886155E+02  0.00000000000E+00 0.  1.
</event>
<event>
12    1  0.1594900E-001  0.1747216E+03  0.7818608E-02  0.1173687E+00
         21   -1    0    0  503  502  0.00000000000E+00  0.00000000000E+00  0.27648541250E+03  0.27648541250E+03  0.00000000000E+00 0.  1.
         21   -1    0    0  501  503 -0.00000000000E+00 -0.00000000000E+00 -0.25330053625E+03  0.25330053625E+03  0.00000000000E+00 0.  1.
          6    2    1    2  501    0 -0.56855267171E+00  0.31814249242E+02 -0.18856016050E+03  0.25526161419E+03  0.16908899386E+03 0.  0.
         24    2    3    3    0    0  0.54911736496E+02 -0.16294651492E+02 -0.10336536078E+03  0.14268820385E+03  0.79966938395E+02 0.  0.
         -6    2    1    2    0  502  0.56855267171E+00 -0.31814249242E+02  0.21174503675E+03  0.27452433455E+03  0.17179982528E+03 0.  0.
        -24    2    5    5    0    0  0.57697943270E+02 -0.31160977817E+02  0.82289662249E+02  0.13294404630E+03  0.81255595117E+02 0.  0.
          5    1    3    3  501    0 -0.55480289167E+02  0.48108900735E+02 -0.85194799720E+02  0.11257341034E+03  0.47000000000E+01 0. -1.
        -13    1    4    4    0    0  0.45528480910E+02 -0.36908999745E+01 -0.11460272579E+03  0.12337037763E+03  0.00000000000E+00 0.  1.
         14    1    4    4    0    0  0.93832555860E+01 -0.12603751518E+02  0.11237365009E+02  0.19317826225E+02  0.00000000000E+00 0. -1.
         -5    1    5    5    0  502 -0.57129390598E+02 -0.65327142588E+00  0.12945537450E+03  0.14158028825E+03  0.47000000000E+01 0.  1.
         11    1    6    6    0    0  0.19670085728E+02  0.27823383413E+02  0.23480366874E+02  0.41380920310E+02  0.00000000000E+00 0. -1.
        -12    1    6    6    0    0  0.38027857542E+02 -0.58984361230E+02  0.58809295375E+02  0.91563125992E+02  0.00000000000E+00 0.  1.
</event>
<event>
12    1  0.1594900E-001  0.1800406E+03  0.7818608E-02  0.1167787E+00
         21   -1    0    0  503  502  0.00000000000E+00  0.00000000000E+00  0.15840416486E+04  0.15840416486E+04  0.00000000000E+00 0. -1.
         21   -1    0    0  501  503 -0.00000000000E+00 -0.00000000000E+00 -0.20452816909E+02  0.20452816909E+02  0.00000000000E+00 0. -1.
          6    2    1    2  501    0  0.15412292078E+02 -0.51717541101E+02  0.77896904741E+03  0.79950447714E+03  0.17176259585E+03 0.  0.
         24    2    3    3    0    0  0.43686468952E+02  0.46088442164E+01  0.64173100041E+03  0.64841356971E+03  0.81803004158E+02 0.  0.
         -6    2    1    2    0  502 -0.15412292078E+02  0.51717541101E+02  0.78461978427E+03  0.80498998837E+03  0.17166371979E+03 0.  0.
        -24    2    5    5    0    0 -0.12818760477E+02  0.10173257372E+03  0.58764724776E+03  0.60169586638E+03  0.78706992335E+02 0.  0.
          5    1    3    3  501    0 -0.28274176874E+02 -0.56326385317E+02  0.13723804700E+03  0.15109090742E+03  0.47000000000E+01 0. -1.
        -13    1    4    4    0    0  0.24610876850E+01  0.94395337053E+01  0.62654362182E+01  0.11593853551E+02  0.00000000000E+00 0.  1.
         14    1    4    4    0    0  0.41225381267E+02 -0.48306894889E+01  0.63546556419E+03  0.63681971616E+03  0.00000000000E+00 0. -1.
         -5    1    5    5    0  502 -0.25935316009E+01 -0.50015032617E+02  0.19697253652E+03  0.20329412199E+03  0.47000000000E+01 0.  1.
         11    1    6    6    0    0 -0.11942277318E+02  0.74679005500E+02  0.21219855273E+03  0.22527271835E+03  0.00000000000E+00 0. -1.
        -12    1    6    6    0    0 -0.87648315873E+00  0.27053568218E+02  0.37544869503E+03  0.37642314803E+03  0.00000000000E+00 0.  1.
</event>
<event>
12    1  0.1594900E-001  0.1918320E+03  0.7818608E-02  0.1157226E+00
         21   -1    0    0  501  502  0.00000000000E+00  0.00000000000E+00  0.12101171817E+03  0.12101171817E+03  0.00000000000E+00 0. -1.
         21   -1    0    0  502  503 -0.00000000000E+00 -0.00000000000E+00 -0.70778318880E+03  0.70778318880E+03  0.00000000000E+00 0. -1.
         -6    2    1    2    0  503 -0.73952594701E+02  0.43213500064E+02 -0.60804848379E+03  0.63759113840E+03  0.17164821084E+03 0.  0.
        -24    2    3    3    0    0 -0.45475520254E+02 -0.18227058195E+02 -0.50457047836E+03  0.51383462917E+03  0.83871389151E+02 0.  0.
          6    2    1    2  501    0  0.73952594701E+02 -0.43213500064E+02  0.21277013162E+02  0.19120376857E+03  0.16961655867E+03 0.  0.
         24    2    5    5    0    0  0.10682972349E+03 -0.65824305326E+02  0.44869247554E+01  0.14765895049E+03  0.77702021684E+02 0.  0.
          5    1    5    5  501    0 -0.32877128792E+02  0.22610805263E+02  0.16790088406E+02  0.43544818072E+02  0.47000000000E+01 0. -1.
        -13    1    6    6    0    0  0.73541671106E+02 -0.13527739410E+02  0.30070308087E+02  0.80595288641E+02  0.00000000000E+00 0.  1.
         14    1    6    6    0    0  0.33288052386E+02 -0.52296565916E+02 -0.25583383332E+02  0.67063661852E+02  0.00000000000E+00 0. -1.
         -5    1    3    3    0  503 -0.28477074448E+02  0.61440558259E+02 -0.10347800543E+03  0.12375650923E+03  0.47000000000E+01 0.  1.
         13    1    4    4    0    0  0.54448850966E+01 -0.36593300479E+02 -0.12299461361E+03  0.12843827853E+03  0.00000000000E+00 0. -1.
        -14    1    4    4    0    0 -0.50920405350E+02  0.18366242284E+02 -0.38157586475E+03  0.38539635065E+03  0.00000000000E+00 0.  1.
</event>
<event>
12    1  0.1594900E-001  0.2538268E+03  0.7818608E-02  0.1111067E+00
         21   -1    0    0  501  502  0.00000000000E+00  0.00000000000E+00  0.76739038703E+03  0.76739038703E+03  0.00000000000E+00 0. -1.
         21   -1    0    0  502  503 -0.00000000000E+00 -0.00000000000E+00 -0.88082672270E+02  0.88082672270E+02  0.00000000000E+00 0.  1.
         -6    2    1    2    0  503 -0.18754005150E+03  0.13453733453E+01  0.24405646168E+03  0.35212439090E+03  0.17104078237E+03 0.  0.
        -24    2    3    3    0    0 -0.92485527658E+02 -0.23153869787E+02  0.21756947566E+03  0.25034410869E+03  0.79031775307E+02 0.  0.
          6    2    1    2  501    0  0.18754005150E+03 -0.13453733453E+01  0.43525125308E+03  0.50334866840E+03  0.16953804211E+03 0.  0.
         24    2    5    5    0    0  0.16064125846E+03 -0.24606485044E+02  0.43023547769E+03  0.46712888945E+03  0.81827501916E+02 0.  0.
          5    1    5    5  501    0  0.26898793045E+02  0.23261111698E+02  0.50157753957E+01  0.36219778954E+02  0.47000000000E+01 0. -1.
        -11    1    6    6    0    0  0.18857900647E+02 -0.24168106838E+02  0.31583142185E+02  0.44013778243E+02  0.00000000000E+00 0.  1.
         12    1    6    6    0    0  0.14178335781E+03 -0.43837820569E+00  0.39865233550E+03  0.42311511120E+03  0.00000000000E+00 0. -1.
         -5    1    3    3    0  503 -0.95054523846E+02  0.24499243133E+02  0.26486986024E+02  0.10178028221E+03  0.47000000000E+01 0.  1.
         11    1    4    4    0    0 -0.74384741641E+01 -0.30390291888E+02  0.26222078811E+02  0.40822765170E+02  0.00000000000E+00 0. -1.
        -12    1    4    4    0    0 -0.85047053494E+02  0.72364221009E+01  0.19134739685E+03  0.20952134352E+03  0.00000000000E+00 0.  1.
</event>
<event>
12    1  0.1594900E-001  0.1769661E+03  0.7818608E-02  0.1171119E+00
         21   -1    0    0  503  502  0.00000000000E+00  0.00000000000E+00  0.30268239863E+04  0.30268239863E+04  0.00000000000E+00 0. -1.
         21   -1    0    0  501  503 -0.00000000000E+00 -0.00000000000E+00 -0.11581139167E+03  0.11581139167E+03  0.00000000000E+00 0. -1.
          6    2    1    2  501    0 -0.41753830228E+02 -0.23930069831E+01 -0.45068866448E+02  0.18126160619E+03  0.17051527303E+03 0.  0.
         24    2    3    3    0    0 -0.91413272933E+02 -0.34928006001E+01 -0.13911836919E+02  0.12243881907E+03  0.80181912453E+02 0.  0.
         -6    2    1    2    0  502  0.41753830228E+02  0.23930069831E+01  0.29560814611E+04  0.29613737717E+04  0.17195319935E+03 0.  0.
        -24    2    5    5    0    0  0.72038840733E+02 -0.39757693956E+02  0.24216150099E+04  0.24243725233E+04  0.81194868210E+02 0.  0.
          5    1    3    3  501    0  0.49659442705E+02  0.10997936170E+01 -0.31157029529E+02  0.58822787122E+02  0.47000000000E+01 0. -1.
        -11    1    4    4    0    0 -0.63934721661E+02 -0.24616906324E+02  0.22556008179E+02  0.72127763142E+02  0.00000000000E+00 0.  1.
         12    1    4    4    0    0 -0.27478551272E+02  0.21124105724E+02 -0.36467845098E+02  0.50311055929E+02  0.00000000000E+00 0. -1.
         -5    1    5    5    0  502 -0.30285010504E+02  0.42150700939E+02  0.53446645115E+03  0.53700124847E+03  0.47000000000E+01 0.  1.
         11    1    6    6    0    0  0.59507435165E+02 -0.44432366760E+02  0.10224493897E+04  0.10251429777E+04  0.00000000000E+00 0. -1.
        -12    1    6    6    0    0  0.12531405567E+02  0.46746728041E+01  0.13991656202E+04  0.13992295456E+04  0.00000000000E+00 0.  1.
</event>
<event>
12    1  0.1594900E-001  0.2004166E+03  0.7818608E-02  0.1149463E+00
         21   -1    0    0  501  502  0.00000000000E+00  0.00000000000E+00  0.89127216000E+03  0.89127216000E+03  0.00000000000E+00 0. -1.
         21   -1    0    0  502  503 -0.00000000000E+00 -0.00000000000E+00 -0.46349466578E+02  0.46349466578E+02  0.00000000000E+00 0. -1.
         -6    2    1    2    0  503 -0.56276715793E+02 -0.87835786741E+02  0.50248349973E+03  0.54084536254E+03  0.17070982545E+03 0.  0.
        -24    2    3    3    0    0 -0.55757696459E+02 -0.12669845556E+03  0.38431731107E+03  0.41636277519E+03  0.80602392169E+02 0.  0.
          6    2    1    2  501    0  0.56276715793E+02  0.87835786741E+02  0.34243919368E+03  0.39677626403E+03  0.17112746172E+03 0.  0.
         24    2    5    5    0    0  0.21324843303E+02 -0.52886110573E+01  0.24216740448E+03  0.25545992185E+03  0.78307097595E+02 0.  0.
          5    1    5    5  501    0  0.34951872489E+02  0.93124397799E+02  0.10027178921E+03  0.14131634218E+03  0.47000000000E+01 0. -1.
        -11    1    6    6    0    0  0.34206226966E+02 -0.34943385422E+02  0.13950849092E+03  0.14783005509E+03  0.00000000000E+00 0.  1.
         12    1    6    6    0    0 -0.12881383663E+02  0.29654774365E+02  0.10265891356E+03  0.10762986677E+03  0.00000000000E+00 0. -1.
         -5    1    3    3    0  503 -0.51901933321E+00  0.38862668824E+02  0.11816618867E+03  0.12448258735E+03  0.47000000000E+01 0.  1.
         11    1    4    4    0    0 -0.42270398383E+02 -0.31047773043E+02  0.21619421605E+03  0.22246503061E+03  0.00000000000E+00 0. -1.
        -12    1    4    4    0    0 -0.13487298076E+02 -0.95650682522E+02  0.16812309501E+03  0.19389774458E+03  0.00000000000E+00 0.  1.
</event>
<event>
12    1  0.1594900E-001  0.1844697E+03  0.7818608E-02  0.1163611E+00
         21   -1    0    0  503  502  0.00000000000E+00  0.00000000000E+00  0.60816331027E+03  0.60816331027E+03  0.00000000000E+00 0. -1.
         21   -1    0    0  501  503 -0.00000000000E+00 -0.00000000000E+00 -0.65213394558E+02  0.65213394558E+02  0.00000000000E+00 0.  1.
          6    2    1    2  501    0 -0.52052399402E+02 -0.38768703346E+02  0.14385273319E+03  0.23370905506E+03  0.17237705453E+03 0.  0.
         24    2    3    3    0    0 -0.78097809698E+02 -0.52579900766E+02  0.15853261664E+03  0.20044193090E+03  0.78615922558E+02 0.  0.
         -6    2    1    2    0  502  0.52052399402E+02  0.38768703346E+02  0.39909718252E+03  0.43966764976E+03  0.17267488674E+03 0.  0.
        -24    2    5    5    0    0 -0.19363529790E+02  0.38554590414E+02  0.14613277089E+03  0.17677344226E+03  0.89625110503E+02 0.  0.
          5    1    3    3  501    0  0.26045410296E+02  0.13811197420E+02 -0.14679883454E+02  0.33267124160E+02  0.47000000000E+01 0. -1.
        -11    1    4    4    0    0 -0.27835887280E+02 -0.35953105045E+02  0.15683294551E+02  0.48098109225E+02  0.00000000000E+00 0.  1.
         12    1    4    4    0    0 -0.50261922419E+02 -0.16626795722E+02  0.14284932209E+03  0.15234382168E+03  0.00000000000E+00 0. -1.
         -5    1    5    5    0  502  0.71415929192E+02  0.21411293211E+00  0.25296441163E+03  0.26289420750E+03  0.47000000000E+01 0.  1.
         13    1    6    6    0    0  0.19674344387E+02  0.18655503907E+02  0.12540248966E+03  0.12830000805E+03  0.00000000000E+00 0. -1.
        -14    1    6    6    0    0 -0.39037874178E+02  0.19899086507E+02  0.20730281229E+02  0.48473434208E+02  0.00000000000E+00 0.  1.
</event>
<event>
12    1  0.1594900E-001  0.2357489E+03  0.7818608E-02  0.1122717E+00
         21   -1    0    0  501  502  0.00000000000E+00  0.00000000000E+00  0.31942025707E+03  0.31942025707E+03  0.00000000000E+00 0.  1.
         21   -1    0    0  502  503 -0.00000000000E+00 -0.00000000000E+00 -0.17614781227E+03  0.17614781227E+03  0.00000000000E+00 0. -1.
         -6    2    1    2    0  503  0.12891194829E+03 -0.94946783776E+02  0.42610256901E+02  0.23922759660E+03  0.17257180193E+03 0.  0.
        -24    2    3    3    0    0  0.97574090905E+02 -0.53522473924E+02 -0.38243558355E+02  0.14301187962E+03  0.81267887425E+02 0.  0.
          6    2    1    2  501    0 -0.12891194829E+03  0.94946783776E+02  0.10066218789E+03  0.25634047274E+03  0.17304444438E+03 0.  0.
         24    2    5    5    0    0 -0.16103903816E+03  0.66855432728E+02  0.74336912888E+02  0.20597794687E+03  0.80608419425E+02 0.  0.
          5    1    5    5  501    0  0.32127089875E+02  0.28091351048E+02  0.26325275005E+02  0.50362525866E+02  0.47000000000E+01 0. -1.
        -13    1    6    6    0    0 -0.57083666337E+02  0.60048274540E+01 -0.10887566195E+02  0.58422102093E+02  0.00000000000E+00 0.  1.
         14    1    6    6    0    0 -0.10395537183E+03  0.60850605274E+02  0.85224479084E+02  0.14755584478E+03  0.00000000000E+00 0. -1.
         -5    1    3    3    0  503  0.31337857384E+02 -0.41424309853E+02  0.80853815256E+02  0.96215716978E+02  0.47000000000E+01 0.  1.
         11    1    4    4    0    0  0.36033147095E+02 -0.27627195314E+02 -0.57741824270E+02  0.73455890714E+02  0.00000000000E+00 0. -1.
        -12    1    4    4    0    0  0.61540943810E+02 -0.25895278609E+02  0.19498265915E+02  0.69555988908E+02  0.00000000000E+00 0.  1.
</event>
<event>
12    1  0.1594900E-001  0.2951077E+03  0.7818608E-02  0.1087813E+00
         21   -1    0    0  503  502  0.00000000000E+00  0.00000000000E+00  0.73302046538E+03  0.73302046538E+03  0.00000000000E+00 0.  1.
         21   -1    0    0  501  503 -0.00000000000E+00 -0.00000000000E+00 -0.11933138188E+03  0.11933138188E+03  0.00000000000E+00 0. -1.
          6    2    1    2  501    0 -0.22790895280E+03 -0.73945854951E+02  0.27144441738E+03  0.40096211063E+03  0.17227321963E+03 0.  0.
         24    2    3    3    0    0 -0.75731090646E+02  0.16322972434E+00  0.16857199785E+03  0.20283315550E+03  0.83603503369E+02 0.  0.
         -6    2    1    2    0  502  0.22790895280E+03  0.73945854951E+02  0.34224466612E+03  0.45138973662E+03  0.17091168072E+03 0.  0.
        -24    2    5    5    0    0  0.20363918327E+03  0.32553009186E+01  0.24574674987E+03  0.32924181817E+03  0.80803439350E+02 0.  0.
          5    1    3    3  501    0 -0.15217786216E+03 -0.74109084676E+02  0.10287241953E+03  0.19812895513E+03  0.47000000000E+01 0. -1.
        -11    1    4    4    0    0 -0.11147137536E+02 -0.31406263920E+02  0.23040493231E+02  0.40515138121E+02  0.00000000000E+00 0.  1.
         12    1    4    4    0    0 -0.64583953111E+02  0.31569493644E+02  0.14553150462E+03  0.16231801738E+03  0.00000000000E+00 0. -1.
         -5    1    5    5    0  502  0.24269769533E+02  0.70690554033E+02  0.96497916248E+02  0.12214791846E+03  0.47000000000E+01 0.  1.
         11    1    6    6    0    0  0.15972904263E+03  0.32888596065E+02  0.16007358980E+03  0.22851385289E+03  0.00000000000E+00 0. -1.
        -12    1    6    6    0    0  0.43910140636E+02 -0.29633295147E+02  0.85673160074E+02  0.10072796528E+03  0.00000000000E+00 0.  1.
</event>
<event>
12    1  0.1594900E-001  0.1766488E+03  0.7818608E-02  0.1172462E+00
         21   -1    0    0  503  502  0.00000000000E+00  0.00000000000E+00  0.69147568731E+03  0.69147568731E+03  0.00000000000E+00 0. -1.
         21   -1    0    0  501  503 -0.00000000000E+00 -0.00000000000E+00 -0.44793486383E+02  0.44793486383E+02  0.00000000000E+00 0. -1.
          6    2    1    2  501    0 -0.45902269503E+01 -0.72989978439E+01  0.38462132973E+03  0.42324739243E+03  0.17643821117E+03 0.  0.
         24    2    3    3    0    0  0.60671931973E+02  0.83825622199E+01  0.15350054020E+03  0.18253185478E+03  0.77486201925E+02 0.  0.
         -6    2    1    2    0  502  0.45902269503E+01  0.72989978439E+01  0.26206087120E+03  0.31302178127E+03  0.17097482207E+03 0.  0.
        -24    2    5    5    0    0  0.24853539088E+02  0.67192008536E+02  0.15137958699E+03  0.18546704312E+03  0.79685508789E+02 0.  0.
          5    1    3    3  501    0 -0.65262158924E+02 -0.15681560064E+02  0.23112078952E+03  0.24071553765E+03  0.47000000000E+01 0. -1.
        -13    1    4    4    0    0  0.23923906984E+02  0.23889681724E+02  0.12577527477E+02  0.36073042784E+02  0.00000000000E+00 0.  1.
         14    1    4    4    0    0  0.36748024989E+02 -0.15507119504E+02  0.14092301273E+03  0.14645881200E+03  0.00000000000E+00 0. -1.
         -5    1    5    5    0  502 -0.20263312138E+02 -0.59893010693E+02  0.11068128421E+03  0.12755473814E+03  0.47000000000E+01 0.  1.
         13    1    6    6    0    0 -0.26792485862E+02  0.22759972630E+02  0.76744062790E+02  0.84412705360E+02  0.00000000000E+00 0. -1.
        -14    1    6    6    0    0  0.51646024950E+02  0.44432035907E+02  0.74635524199E+02  0.10105433776E+03  0.00000000000E+00 0.  1.
</event>
<event>
12    1  0.1594900E-001  0.1945595E+03  0.7818608E-02  0.1154503E+00
         21   -1    0    0  503  502  0.00000000000E+00  0.00000000000E+00  0.87221951684E+02  0.87221951684E+02  0.00000000000E+00 0. -1.
         21   -1    0    0  501  503 -0.00000000000E+00 -0.00000000000E+00 -0.50335510289E+03  0.50335510289E+03  0.00000000000E+00 0. -1.
          6    2    1    2  501    0 -0.75115482816E+02 -0.48471907189E+02 -0.31822351215E+03  0.37277053697E+03  0.17233632235E+03 0.  0.
         24    2    3    3    0    0 -0.57858790036E+02  0.60378407487E+01 -0.79041809033E+02  0.12680492317E+03  0.80298106199E+02 0.  0.
         -6    2    1    2    0  502  0.75115482816E+02  0.48471907189E+02 -0.97909639058E+02  0.21780651761E+03  0.17280486147E+03 0.  0.
        -24    2    5    5    0    0  0.11147874946E+03  0.47629214253E+01 -0.76657441891E+02  0.15692541642E+03  0.79366402969E+02 0.  0.
          5    1    3    3  501    0 -0.17256692780E+02 -0.54509747938E+02 -0.23918170311E+03  0.24596561380E+03  0.47000000000E+01 0. -1.
        -11    1    4    4    0    0  0.15706031115E+02 -0.99067557931E-01 -0.40690920858E+02  0.43616972247E+02  0.00000000000E+00 0.  1.
         12    1    4    4    0    0 -0.73564821151E+02  0.61369083066E+01 -0.38350888175E+02  0.83187950921E+02  0.00000000000E+00 0. -1.
         -5    1    5    5    0  502 -0.36363266642E+02  0.43708985764E+02 -0.21252197168E+02  0.60881101187E+02  0.47000000000E+01 0.  1.
         13    1    6    6    0    0  0.11062786022E+03  0.13135263186E+02 -0.88582260189E+02  0.14233016341E+03  0.00000000000E+00 0. -1.
        -14    1    6    6    0    0  0.85088924059E+00 -0.83723417609E+01  0.11924818299E+02  0.14595253013E+02  0.00000000000E+00 0.  1.
</event>
<event>
12    1  0.1594900E-001  0.1738569E+03  0.7818608E-02  0.1174611E+00
         21   -1    0    0  501  502  0.00000000000E+00  0.00000000000E+00  0.27752956548E+02  0.27752956548E+02  0.00000000000E+00 0. -1.
         21   -1    0    0  502  503 -0.00000000000E+00 -0.00000000000E+00 -0.11061560600E+04  0.11061560600E+04  0.00000000000E+00 0. -1.
         -6    2    1    2    0  503 -0.70207556441E+01  0.18119255636E+02 -0.64405034195E+03  0.66710349493E+03  0.17276756510E+03 0.  0.
        -24    2    3    3    0    0  0.52944941147E+02 -0.13661010342E+02 -0.25799025497E+03  0.27509539444E+03  0.78286105938E+02 0.  0.
          6    2    1    2  501    0  0.70207556441E+01 -0.18119255636E+02 -0.43435276152E+03  0.46680552163E+03  0.16990431175E+03 0.  0.
         24    2    5    5    0    0  0.32127382891E+02  0.30432559038E+02 -0.37512284070E+03  0.38607204060E+03  0.79850895637E+02 0.  0.
          5    1    5    5  501    0 -0.25106627247E+02 -0.48551814674E+02 -0.59229920818E+02  0.80733481035E+02  0.47000000000E+01 0. -1.
        -13    1    6    6    0    0  0.51216648674E+02 -0.40041177816E+01 -0.23297821544E+03  0.23857499225E+03  0.00000000000E+00 0.  1.
         14    1    6    6    0    0 -0.19089265783E+02  0.34436676819E+02 -0.14214462527E+03  0.14749704835E+03  0.00000000000E+00 0. -1.
         -5    1    3    3    0  503 -0.59965696791E+02  0.31780265979E+02 -0.38606008697E+03  0.39200810049E+03  0.47000000000E+01 0.  1.
         11    1    4    4    0    0  0.13665279938E+02 -0.21166997814E+02 -0.21465213158E+03  0.21612570246E+03  0.00000000000E+00 0. -1.
        -12    1    4    4    0    0  0.39279661209E+02  0.75059874719E+01 -0.43338123394E+02  0.58969691977E+02  0.00000000000E+00 0.  1.
</event>
<event>
12    1  0.1594900E-001  0.1796424E+03  0.7818608E-02  0.1168423E+00
         21   -1    0    0  501  502  0.00000000000E+00  0.00000000000E+00  0.21358748153E+03  0.21358748153E+03  0.00000000000E+00 0.  1.
         21   -1    0    0  502  503 -0.00000000000E+00 -0.00000000000E+00 -0.21157583649E+03  0.21157583649E+03  0.00000000000E+00 0.  1.
         -6    2    1    2    0  503 -0.39760361099E+02  0.29918471035E+02 -0.11353565574E+03  0.21251291139E+03  0.17261341535E+03 0.  0.
        -24    2    3    3    0    0 -0.54934297538E+02 -0.11641895837E+02 -0.13205922389E+03  0.16431825382E+03  0.80047105767E+02 0.  0.
          6    2    1    2  501    0  0.39760361099E+02 -0.29918471035E+02  0.11554730078E+03  0.21265040662E+03  0.17144391355E+03 0.  0.
         24    2    5    5    0    0 -0.39521825727E+02 -0.11898256928E+02  0.32076316124E+02  0.96031846588E+02  0.80558564265E+02 0.  0.
          5    1    5    5  501    0  0.79282186826E+02 -0.18020214107E+02  0.83470984658E+02  0.11661856003E+03  0.47000000000E+01 0. -1.
        -11    1    6    6    0    0  0.22559444209E+01 -0.17069730386E+02  0.48022717938E+02  0.51016138807E+02  0.00000000000E+00 0.  1.
         12    1    6    6    0    0 -0.41777770148E+02  0.51714734586E+01 -0.15946401813E+02  0.45015707781E+02  0.00000000000E+00 0. -1.
         -5    1    3    3    0  503  0.15173936439E+02  0.41560366872E+02  0.18523568140E+02  0.48194657570E+02  0.47000000000E+01 0.  1.
         13    1    4    4    0    0  0.70410802003E+01 -0.24003754642E+02 -0.10137183824E+02  0.26991101185E+02  0.00000000000E+00 0. -1.
        -14    1    4    4    0    0 -0.61975377739E+02  0.12361858805E+02 -0.12192204006E+03  0.13732715264E+03  0.00000000000E+00 0.  1.
</event>
<event>
12    1  0.1594900E-001  0.1804576E+03  0.7818608E-02  0.1168330E+00
         21   -1    0    0  503  502  0.00000000000E+00  0.00000000000E+00  0.25960388462E+03  0.25960388462E+03  0.00000000000E+00 0. -1.
         21   -1    0    0  501  503 -0.00000000000E+00 -0.00000000000E+00 -0.17670677405E+03  0.17670677405E+03  0.00000000000E+00 0. -1.
          6    2    1    2  501    0 -0.44325117665E+02 -0.17236832342E+02 -0.78834845466E+02  0.19692605908E+03  0.17407790050E+03 0.  0.
         24    2    3    3    0    0 -0.67221290121E+02 -0.59051187956E+02 -0.86582181901E+02  0.14839991901E+03  0.80748480448E+02 0.  0.
         -6    2    1    2    0  502  0.44325117665E+02  0.17236832342E+02  0.16173195603E+03  0.23938459959E+03  0.16995863165E+03 0.  0.
        -24    2    5    5    0    0  0.73493700518E+02  0.53379437241E+02  0.79769921360E+02  0.14506090563E+03  0.80179409154E+02 0.  0.
          5    1    3    3  501    0  0.22896172456E+02  0.41814355615E+02  0.77473364347E+01  0.48526140074E+02  0.47000000000E+01 0. -1.
        -13    1    4    4    0    0  0.54516754460E+01 -0.25680310784E+02  0.50987474249E+01  0.26743155245E+02  0.00000000000E+00 0.  1.
         14    1    4    4    0    0 -0.72672965567E+02 -0.33370877172E+02 -0.91680929325E+02  0.12165676376E+03  0.00000000000E+00 0. -1.
         -5    1    5    5    0  502 -0.29168582853E+02 -0.36142604899E+02  0.81962034670E+02  0.94323693958E+02  0.47000000000E+01 0.  1.
         11    1    6    6    0    0  0.54020488638E+02 -0.73568047429E+01  0.52522400540E+02  0.75702961152E+02  0.00000000000E+00 0. -1.
        -12    1    6    6    0    0  0.19473211880E+02  0.60736241984E+02  0.27247520819E+02  0.69357944477E+02  0.00000000000E+00 0.  1.
</event>
<event>
12    1  0.1594900E-001  0.2916568E+03  0.7818608E-02  0.1089504E+00
         21   -1    0    0  501  502  0.00000000000E+00  0.00000000000E+00  0.25034809155E+03  0.25034809155E+03  0.00000000000E+00 0.  1.
         21   -1    0    0  502  503 -0.00000000000E+00 -0.00000000000E+00 -0.38677829328E+03  0.38677829328E+03  0.00000000000E+00 0. -1.
         -6    2    1    2    0  503 -0.13620207946E+03 -0.19215775195E+03 -0.17942457347E+03  0.34231760385E+03  0.17179218916E+03 0.  0.
        -24    2    3    3    0    0 -0.14150312974E+02 -0.13319897222E+03 -0.75071824215E+02  0.17119087395E+03  0.75685791099E+02 0.  0.
          6    2    1    2  501    0  0.13620207946E+03  0.19215775195E+03  0.42994371729E+02  0.29480878098E+03  0.17201189860E+03 0.  0.
         24    2    5    5    0    0  0.16758932942E+02  0.12799520783E+03  0.11173966017E+02  0.15545984651E+03  0.85902685055E+02 0.  0.
          5    1    5    5  501    0  0.11944314652E+03  0.64162544122E+02  0.31820405712E+02  0.13934893447E+03  0.47000000000E+01 0. -1.
        -11    1    6    6    0    0  0.14333353185E+02  0.59224923823E+02  0.47855799396E+02  0.77480411404E+02  0.00000000000E+00 0.  1.
         12    1    6    6    0    0  0.24255797562E+01  0.68770284003E+02 -0.36681833379E+02  0.77979435103E+02  0.00000000000E+00 0. -1.
         -5    1    3    3    0  503 -0.12205176649E+03 -0.58958779728E+02 -0.10435274925E+03  0.17112672990E+03  0.47000000000E+01 0.  1.
         13    1    4    4    0    0 -0.42721435381E+02 -0.51223187566E+02 -0.27002344165E+02  0.71958756075E+02  0.00000000000E+00 0. -1.
        -14    1    4    4    0    0  0.28571122407E+02 -0.81975784653E+02 -0.48069480049E+02  0.99232117872E+02  0.00000000000E+00 0.  1.
</event>
<event>
12    1  0.1594900E-001  0.1862326E+03  0.7818608E-02  0.1162798E+00
         21   -1    0    0  501  502  0.00000000000E+00  0.00000000000E+00  0.52878988367E+02  0.52878988367E+02  0.00000000000E+00 0. -1.
         21   -1    0    0  502  503 -0.00000000000E+00 -0.00000000000E+00 -0.72753038744E+03  0.72753038744E+03  0.00000000000E+00 0. -1.
         -6    2    1    2    0  503  0.67327295802E+02 -0.17962022872E+02 -0.47381402801E+03  0.50909951081E+03  0.17270489205E+03 0.  0.
        -24    2    3    3    0    0  0.80100635163E+02 -0.27988335146E+02 -0.47786193680E+03  0.49171674056E+03  0.78954820281E+02 0.  0.
          6    2    1    2  501    0 -0.67327295802E+02  0.17962022872E+02 -0.20083737105E+03  0.27130986499E+03  0.16857578178E+03 0.  0.
         24    2    5    5    0    0 -0.99566799213E+02 -0.13385170306E+02 -0.11177454550E+03  0.17142839026E+03  0.82470804977E+02 0.  0.
          5    1    5    5  501    0  0.32239503411E+02  0.31347193177E+02 -0.89062825550E+02  0.99881474735E+02  0.47000000000E+01 0. -1.
        -11    1    6    6    0    0  0.14175511889E+02  0.16249005598E+01 -0.19686180782E+02  0.24313188868E+02  0.00000000000E+00 0.  1.
         12    1    6    6    0    0 -0.11374231110E+03 -0.15010070865E+02 -0.92088364722E+02  0.14711520139E+03  0.00000000000E+00 0. -1.
         -5    1    3    3    0  503 -0.12773339361E+02  0.10026312274E+02  0.40479087818E+01  0.17382770256E+02  0.47000000000E+01 0.  1.
         11    1    4    4    0    0 -0.14045141325E+02  0.37459979422E+01 -0.36013233209E+02  0.38836213276E+02  0.00000000000E+00 0. -1.
        -12    1    4    4    0    0  0.94145776489E+02 -0.31734333088E+02 -0.44184870359E+03  0.45288052728E+03  0.00000000000E+00 0.  1.
</event>
<event>
12    1  0.1594900E-001  0.2208840E+03  0.7818608E-02  0.1134640E+00
         21   -1    0    0  503  502  0.00000000000E+00  0.00000000000E+00  0.10838135532E+04  0.10838135532E+04  0.00000000000E+00 0. -1.
         21   -1    0    0  501  503 -0.00000000000E+00 -0.00000000000E+00 -0.43777132235E+02  0.43777132235E+02  0.00000000000E+00 0. -1.
          6    2    1    2  501    0 -0.12485758563E+03 -0.82911758111E+01  0.46651211607E+03  0.51300150967E+03  0.17285495132E+03 0.  0.
         24    2    3    3    0    0 -0.11551421850E+03 -0.24022999578E+02  0.47238046615E+03  0.49321979282E+03  0.78751635197E+02 0.  0.
         -6    2    1    2    0  502  0.12485758563E+03  0.82911758111E+01  0.57352430485E+03  0.61458917572E+03  0.18202078555E+03 0.  0.
        -24    2    5    5    0    0  0.12905294633E+03  0.62211346856E+02  0.35996844417E+03  0.39424131091E+03  0.72965853624E+02 0.  0.
          5    1    3    3  501    0 -0.93433671381E+01  0.15731823767E+02 -0.58683500861E+01  0.19781716843E+02  0.47000000000E+01 0. -1.
        -13    1    4    4    0    0 -0.43370152377E+02  0.27847621392E+02  0.14068357147E+03  0.14982765905E+03  0.00000000000E+00 0.  1.
         14    1    4    4    0    0 -0.72144066119E+02 -0.51870620970E+02  0.33169689468E+03  0.34339213377E+03  0.00000000000E+00 0. -1.
         -5    1    5    5    0  502 -0.41953606940E+01 -0.53920171045E+02  0.21355586068E+03  0.22034786482E+03  0.47000000000E+01 0.  1.
         13    1    6    6    0    0  0.13074046657E+03  0.38500514361E+02  0.31864129406E+03  0.34656548225E+03  0.00000000000E+00 0. -1.
        -14    1    6    6    0    0 -0.16875202453E+01  0.23710832495E+02  0.41327150107E+02  0.47675828657E+02  0.00000000000E+00 0.  1.
</event>
<event>
12    1  0.1594900E-001  0.1786087E+03  0.7818608E-02  0.1169546E+00
         21   -1    0    0  501  502  0.00000000000E+00  0.00000000000E+00  0.14217583008E+04  0.14217583008E+04  0.00000000000E+00 0.  1.
         21   -1    0    0  502  503 -0.00000000000E+00 -0.00000000000E+00 -0.24031633693E+02  0.24031633693E+02  0.00000000000E+00 0.  1.
         -6    2    1    2    0  503  0.47158765304E+02 -0.25468923110E+01  0.50431238962E+03  0.53500659989E+03  0.17225167577E+03 0.  0.
        -24    2    3    3    0    0  0.39146398772E+02 -0.60535378764E+02  0.22515444758E+03  0.24973811376E+03  0.80483710037E+02 0.  0.
          6    2    1    2  501    0 -0.47158765304E+02  0.25468923110E+01  0.89341427752E+03  0.91078333463E+03  0.17060707944E+03 0.  0.
         24    2    5    5    0    0 -0.81948389692E+01 -0.95690694585E+01  0.83839829715E+03  0.84212598119E+03  0.78139241459E+02 0.  0.
          5    1    5    5  501    0 -0.38963926335E+02  0.12115961770E+02  0.55015980370E+02  0.68657353438E+02  0.47000000000E+01 0. -1.
        -11    1    6    6    0    0  0.56867940383E+00  0.25535277187E+01 -0.84516676835E+00  0.27492193330E+01  0.00000000000E+00 0.  1.
         12    1    6    6    0    0 -0.87635183730E+01 -0.12122597177E+02  0.83924346392E+03  0.83937676186E+03  0.00000000000E+00 0. -1.
         -5    1    3    3    0  503  0.80123665324E+01  0.57988486453E+02  0.27915794203E+03  0.28526848613E+03  0.47000000000E+01 0.  1.
         13    1    4    4    0    0  0.47263194641E+02 -0.49340471025E+01  0.68990686162E+02  0.83772723279E+02  0.00000000000E+00 0. -1.
        -14    1    4    4    0    0 -0.81167958695E+01 -0.55601331662E+02  0.15616376142E+03  0.16596539049E+03  0.00000000000E+00 0.  1.
</event>
<event>
12    1  0.1594900E-001  0.2144752E+03  0.7818608E-02  0.1138840E+00
         21   -1    0    0  503  502  0.00000000000E+00  0.00000000000E+00  0.89966643479E+02  0.89966643479E+02  0.00000000000E+00 0.  1.
         21   -1    0    0  501  503 -0.00000000000E+00 -0.00000000000E+00 -0.98019915369E+03  0.98019915369E+03  0.00000000000E+00 0.  1.
          6    2    1    2  501    0 -0.12313253887E+02 -0.12795679952E+03 -0.82100314587E+03  0.84855511776E+03  0.17168303232E+03 0.  0.
         24    2    3    3    0    0 -0.71463225685E+02 -0.57727403729E+02 -0.47629510831E+03  0.49179664434E+03  0.81039887841E+02 0.  0.
         -6    2    1    2    0  502  0.12313253887E+02  0.12795679952E+03 -0.69229364345E+02  0.22161067941E+03  0.16671541493E+03 0.  0.
        -24    2    5    5    0    0  0.23496041558E+02  0.15736960126E+03 -0.46968306113E+02  0.18278011980E+03  0.76715676652E+02 0.  0.
          5    1    3    3  501    0  0.59149971798E+02 -0.70229395792E+02 -0.34470803756E+03  0.35675847342E+03  0.47000000000E+01 0. -1.
        -11    1    4    4    0    0 -0.12528501019E+02 -0.61675318079E+02 -0.26784025512E+03  0.27513489502E+03  0.00000000000E+00 0.  1.
         12    1    4    4    0    0 -0.58934724666E+02  0.39479143506E+01 -0.20845485319E+03  0.21666174932E+03  0.00000000000E+00 0. -1.
         -5    1    5    5    0  502 -0.11182787671E+02 -0.29412801740E+02 -0.22261058232E+02  0.38830559614E+02  0.47000000000E+01 0.  1.
         11    1    6    6    0    0  0.22017888198E+02  0.31357628811E+02  0.16454998611E+02  0.41699583507E+02  0.00000000000E+00 0. -1.
        -12    1    6    6    0    0  0.14781533602E+01  0.12601197245E+03 -0.63423304724E+02  0.14108053629E+03  0.00000000000E+00 0.  1.
</event>
<event>
12    1  0.1594900E-001  0.2143907E+03  0.7818608E-02  0.1138408E+00
         21   -1    0    0  501  502  0.00000000000E+00  0.00000000000E+00  0.21366765704E+03  0.21366765704E+03  0.00000000000E+00 0. -1.
         21   -1    0    0  502  503 -0.00000000000E+00 -0.00000000000E+00 -0.21400103311E+03  0.21400103311E+03  0.00000000000E+00 0. -1.
         -6    2    1    2    0  503 -0.12006252707E+03  0.36073606467E+02  0.78054713738E+01  0.21453278579E+03  0.17391686320E+03 0.  0.
        -24    2    3    3    0    0 -0.12682858886E+03  0.79632776148E+02  0.10095203314E+02  0.17014231691E+03  0.80122561635E+02 0.  0.
          6    2    1    2  501    0  0.12006252707E+03 -0.36073606467E+02 -0.81388474478E+01  0.21313590436E+03  0.17217536815E+03 0.  0.
         24    2    5    5    0    0  0.14967330982E+02  0.19251086029E+02 -0.36272518433E+02  0.90990845991E+02  0.79806097202E+02 0.  0.
          5    1    5    5  501    0  0.10509519609E+03 -0.55324692496E+02  0.28133670985E+02  0.12214505837E+03  0.47000000000E+01 0. -1.
        -11    1    6    6    0    0 -0.31559546717E+02  0.19158474922E+02 -0.16354197330E+02  0.40379597827E+02  0.00000000000E+00 0.  1.
         12    1    6    6    0    0  0.46526877699E+02  0.92611106902E-01 -0.19918321103E+02  0.50611248164E+02  0.00000000000E+00 0. -1.
         -5    1    3    3    0  503  0.67660617925E+01 -0.43559169680E+02 -0.22897319397E+01  0.44390468885E+02  0.47000000000E+01 0.  1.
         11    1    4    4    0    0 -0.99733776821E+02  0.65512726490E+02 -0.26739231009E+02  0.12228544495E+03  0.00000000000E+00 0. -1.
        -12    1    4    4    0    0 -0.27094812038E+02  0.14120049658E+02  0.36834434322E+02  0.47856871958E+02  0.00000000000E+00 0.  1.
</event>
<event>
12    1  0.1594900E-001  0.1773095E+03  0.7818608E-02  0.1170526E+00
         21   -1    0    0  503  502  0.00000000000E+00  0.00000000000E+00  0.30589616813E+03  0.30589616813E+03  0.00000000000E+00 0. -1.
         21   -1    0    0  501  503 -0.00000000000E+00 -0.00000000000E+00 -0.10474857700E+03  0.10474857700E+03  0.00000000000E+00 0. -1.
          6    2    1    2  501    0 -0.12623646444E+02  0.38070598483E+02  0.70760268491E+02  0.19055494126E+03  0.17232365805E+03 0.  0.
         24    2    3    3    0    0  0.21160350498E+02  0.35284791378E+02  0.10658123016E+03  0.14101353974E+03  0.82658833962E+02 0.  0.
         -6    2    1    2    0  502  0.12623646444E+02 -0.38070598483E+02  0.13038732264E+03  0.22008980387E+03  0.17271346486E+03 0.  0.
        -24    2    5    5    0    0  0.64971722025E+02 -0.42962114809E+02  0.47702203393E+02  0.12199206234E+03  0.80867144709E+02 0.  0.
          5    1    3    3  501    0 -0.33783996942E+02  0.27858071046E+01 -0.35820961665E+02  0.49541401527E+02  0.47000000000E+01 0. -1.
        -13    1    4    4    0    0  0.11020982443E+02 -0.12005650696E+02  0.87525381432E+02  0.89029714689E+02  0.00000000000E+00 0.  1.
         14    1    4    4    0    0  0.10139368055E+02  0.47290442074E+02  0.19055848724E+02  0.51983825049E+02  0.00000000000E+00 0. -1.
         -5    1    5    5    0  502 -0.52348075581E+02  0.48915163266E+01  0.82685119246E+02  0.98097741532E+02  0.47000000000E+01 0.  1.
         11    1    6    6    0    0  0.59018735953E+02 -0.64796940183E+02  0.46762548141E+02  0.99340779941E+02  0.00000000000E+00 0. -1.
        -12    1    6    6    0    0  0.59529860719E+01  0.21834825374E+02  0.93965525207E+00  0.22651282398E+02  0.00000000000E+00 0.  1.
</event>
<event>
12    1  0.1594900E-001  0.1775360E+03  0.7818608E-02  0.1170693E+00
         21   -1    0    0  501  502  0.00000000000E+00  0.00000000000E+00  0.10312662114E+03  0.10312662114E+03  0.00000000000E+00 0. -1.
         21   -1    0    0  502  503 -0.00000000000E+00 -0.00000000000E+00 -0.62355721708E+03  0.62355721708E+03  0.00000000000E+00 0. -1.
         -6    2    1    2    0  503 -0.13462706337E+02 -0.30892949295E+02 -0.52171443429E+03  0.55109434942E+03  0.17430838257E+03 0.  0.
        -24    2    3    3    0    0 -0.43443112660E+02  0.22960753323E+02 -0.43298090097E+03  0.44295196187E+03  0.79495155117E+02 0.  0.
          6    2    1    2  501    0  0.13462706337E+02  0.30892949295E+02  0.12838383563E+01  0.17558948880E+03  0.17232063590E+03 0.  0.
         24    2    5    5    0    0 -0.14671819211E+01  0.86456304307E+02 -0.62203079735E+01  0.11737789034E+03  0.79133000271E+02 0.  0.
          5    1    5    5  501    0  0.14929888258E+02 -0.55563355011E+02  0.75041463298E+01  0.58211598463E+02  0.47000000000E+01 0. -1.
        -11    1    6    6    0    0 -0.53605417343E+01  0.15915960956E+02 -0.36757792823E+02  0.40412727625E+02  0.00000000000E+00 0.  1.
         12    1    6    6    0    0  0.38933598132E+01  0.70540343351E+02  0.30537484849E+02  0.76965162714E+02  0.00000000000E+00 0. -1.
         -5    1    3    3    0  503  0.29980406323E+02 -0.53853702618E+02 -0.88733533317E+02  0.10814238754E+03  0.47000000000E+01 0.  1.
         13    1    4    4    0    0 -0.26688536533E+02 -0.25899385499E+02 -0.25253731014E+03  0.25526094328E+03  0.00000000000E+00 0. -1.
        -14    1    4    4    0    0 -0.16754576127E+02  0.48860138822E+02 -0.18044359083E+03  0.18769101859E+03  0.00000000000E+00 0.  1.
</event>
<event>
12    1  0.1594900E-001  0.2416403E+03  0.7818608E-02  0.1119180E+00
         21   -1    0    0  501  502  0.00000000000E+00  0.00000000000E+00  0.50531917797E+03  0.50531917797E+03  0.00000000000E+00 0. -1.
         21   -1    0    0  502  503 -0.00000000000E+00 -0.00000000000E+00 -0.13847498629E+03  0.13847498629E+03  0.00000000000E+00 0. -1.
         -6    2    1    2    0  503 -0.92379160451E+02  0.13672141248E+03  0.31732757526E+03  0.39713261561E+03  0.17260031993E+03 0.  0.
        -24    2    3    3    0    0 -0.12949415502E+03  0.10671479400E+03  0.20293868983E+03  0.27309702763E+03  0.72395381260E+02 0.  0.
          6    2    1    2  501    0  0.92379160451E+02 -0.13672141248E+03  0.49516616415E+02  0.24666154865E+03  0.17653149964E+03 0.  0.
         24    2    5    5    0    0  0.12804688248E+03 -0.11971599011E+03  0.69422354642E+02  0.20216773785E+03  0.72968544620E+02 0.  0.
          5    1    5    5  501    0 -0.35667722028E+02 -0.17005422370E+02 -0.19905738227E+02  0.44493810794E+02  0.47000000000E+01 0. -1.
        -13    1    6    6    0    0  0.49549301677E+02 -0.98849031694E+01  0.35575479540E+00  0.50526935083E+02  0.00000000000E+00 0.  1.
         14    1    6    6    0    0  0.78497580801E+02 -0.10983108694E+03  0.69066599847E+02  0.15164080277E+03  0.00000000000E+00 0. -1.
         -5    1    3    3    0  503  0.37114994567E+02  0.30006618480E+02  0.11438888543E+03  0.12403558797E+03  0.47000000000E+01 0.  1.
         13    1    4    4    0    0 -0.15857804499E+02  0.22525915680E+02  0.23265403073E+01  0.27645969518E+02  0.00000000000E+00 0. -1.
        -14    1    4    4    0    0 -0.11363635052E+03  0.84188878323E+02  0.20061214953E+03  0.24545105812E+03  0.00000000000E+00 0.  1.
</event>
<event>
12    1  0.1594900E-001  0.2446967E+03  0.7818608E-02  0.1116789E+00
         21   -1    0    0  503  502  0.00000000000E+00  0.00000000000E+00  0.12171592483E+04  0.12171592483E+04  0.00000000000E+00 0. -1.
         21   -1    0    0  501  503 -0.00000000000E+00 -0.00000000000E+00 -0.78340579426E+02  0.78340579426E+02  0.00000000000E+00 0.  1.
          6    2    1    2  501    0 -0.90684804457E+02 -0.14751301486E+03  0.17397312557E+03  0.30023841534E+03  0.17289486491E+03 0.  0.
         24    2    3    3    0    0  0.16142992455E+02 -0.10180900996E+03  0.98093469066E+02  0.16138292741E+03  0.76134419758E+02 0.  0.
         -6    2    1    2    0  502  0.90684804457E+02  0.14751301486E+03  0.96484554330E+03  0.99526141238E+03  0.17214683628E+03 0.  0.
        -24    2    5    5    0    0  0.45323621527E+02  0.54709552668E+01  0.44290542891E+03  0.45241967060E+03  0.80213324149E+02 0.  0.
          5    1    3    3  501    0 -0.10682779691E+03 -0.45704004894E+02  0.75879656505E+02  0.13885548793E+03  0.47000000000E+01 0. -1.
        -11    1    4    4    0    0 -0.27287831884E+02 -0.48876443859E+02  0.25242539214E+02  0.61406174928E+02  0.00000000000E+00 0.  1.
         12    1    4    4    0    0  0.43430824339E+02 -0.52932566102E+02  0.72850929852E+02  0.99976752484E+02  0.00000000000E+00 0. -1.
         -5    1    5    5    0  502  0.45361182930E+02  0.14204205959E+03  0.52194011439E+03  0.54284174178E+03  0.47000000000E+01 0.  1.
         11    1    6    6    0    0  0.54570793653E+02 -0.11025566806E+02  0.41495111970E+03  0.41866928044E+03  0.00000000000E+00 0. -1.
        -12    1    6    6    0    0 -0.92471721264E+01  0.16496522073E+02  0.27954309211E+02  0.33750390165E+02  0.00000000000E+00 0.  1.
</event>
<event>
12    1  0.1594900E-001  0.1752431E+03  0.7818608E-02  0.1172755E+00
         21   -1    0    0  503  502  0.00000000000E+00  0.00000000000E+00  0.15703556529E+04  0.15703556529E+04  0.00000000000E+00 0. -1.
         21   -1    0    0  501  503 -0.00000000000E+00 -0.00000000000E+00 -0.67854834792E+02  0.67854834792E+02  0.00000000000E+00 0. -1.
          6    2    1    2  501    0  0.28224279873E+02  0.27690586258E+01  0.59997628915E+02  0.18522916222E+03  0.17293307781E+03 0.  0.
         24    2    3    3    0    0 -0.73328807730E+01  0.42394670382E+02 -0.15019701603E+02  0.93119495742E+02  0.81206956806E+02 0.  0.
         -6    2    1    2    0  502 -0.28224279873E+02 -0.27690586258E+01  0.14425031892E+04  0.14529813255E+04  0.17185750984E+03 0.  0.
        -24    2    5    5    0    0 -0.34508976997E+02 -0.52110158458E+02  0.58811278157E+03  0.59713139693E+03  0.82358504400E+02 0.  0.
          5    1    3    3  501    0  0.35557160646E+02 -0.39625611756E+02  0.75017330518E+02  0.92109666476E+02  0.47000000000E+01 0. -1.
        -13    1    4    4    0    0 -0.99017832245E+01 -0.23258005403E+02  0.16597820528E+01  0.25332489077E+02  0.00000000000E+00 0.  1.
         14    1    4    4    0    0  0.25689024514E+01  0.65652675785E+02 -0.16679483656E+02  0.67787006665E+02  0.00000000000E+00 0. -1.
         -5    1    5    5    0  502  0.62846971240E+01  0.49341099833E+02  0.85439040767E+03  0.85584992859E+03  0.47000000000E+01 0.  1.
         11    1    6    6    0    0  0.32563987371E+00 -0.57061917062E+02  0.48134397164E+03  0.48471454224E+03  0.00000000000E+00 0. -1.
        -12    1    6    6    0    0 -0.34834616871E+02  0.49517586033E+01  0.10676880992E+03  0.11241685469E+03  0.00000000000E+00 0.  1.
</event>
<event>
12    1  0.1594900E-001  0.2519624E+03  0.7818608E-02  0.1112227E+00
         21   -1    0    0  503  502  0.00000000000E+00  0.00000000000E+00  0.22886911041E+03  0.22886911041E+03  0.00000000000E+00 0. -1.
         21   -1    0    0  501  503 -0.00000000000E+00 -0.00000000000E+00 -0.30923528320E+03  0.30923528320E+03  0.00000000000E+00 0. -1.
          6    2    1    2  501    0 -0.16932957299E+03  0.71510276925E+02 -0.12806818996E+03  0.28264203297E+03  0.17233349508E+03 0.  0.
         24    2    3    3    0    0 -0.13628099025E+03 -0.14481128894E+02 -0.93062843948E+02  0.18398000914E+03  0.80035863480E+02 0.  0.
         -6    2    1    2    0  502  0.16932957299E+03 -0.71510276925E+02  0.47702017173E+02  0.25546236064E+03  0.17087805963E+03 0.  0.
        -24    2    5    5    0    0  0.26354244616E+02 -0.49505567221E+01 -0.15045300130E+02  0.85664078235E+02  0.79955731644E+02 0.  0.
          5    1    3    3  501    0 -0.33048582741E+02  0.85991405819E+02 -0.35005346010E+02  0.98662023825E+02  0.47000000000E+01 0. -1.
        -11    1    4    4    0    0 -0.34551124803E+02 -0.28190427447E+02  0.12102857756E+01  0.44608802007E+02  0.00000000000E+00 0.  1.
         12    1    4    4    0    0 -0.10172986545E+03  0.13709298553E+02 -0.94273129724E+02  0.13937120714E+03  0.00000000000E+00 0. -1.
         -5    1    5    5    0  502  0.14297532838E+03 -0.66559720203E+02  0.62747317303E+02  0.16979828240E+03  0.47000000000E+01 0.  1.
         13    1    6    6    0    0  0.30574225602E+02  0.33250041304E+02 -0.25155190164E+01  0.45240207270E+02  0.00000000000E+00 0. -1.
        -14    1    6    6    0    0 -0.42199809863E+01 -0.38200598026E+02 -0.12529781114E+02  0.40423870965E+02  0.00000000000E+00 0.  1.
</event>
<event>
12    1  0.1594900E-001  0.1753759E+03  0.7818608E-02  0.1172405E+00
         21   -1    0    0  501  502  0.00000000000E+00  0.00000000000E+00  0.16530030244E+03  0.16530030244E+03  0.00000000000E+00 0. -1.
         21   -1    0    0  502  503 -0.00000000000E+00 -0.00000000000E+00 -0.18618762294E+03  0.18618762294E+03  0.00000000000E+00 0. -1.
         -6    2    1    2    0  503  0.14456826924E+02  0.31957404242E+02 -0.29897487548E+01  0.17540136402E+03  0.17183254747E+03 0.  0.
        -24    2    3    3    0    0 -0.50536982986E+02  0.36884794171E+02 -0.24750494780E+02  0.10652397610E+03  0.82585082206E+02 0.  0.
          6    2    1    2  501    0 -0.14456826924E+02 -0.31957404242E+02 -0.17897571741E+02  0.17608656137E+03  0.17162714963E+03 0.  0.
         24    2    5    5    0    0 -0.22304273866E+02  0.46622505235E+02 -0.14534706192E+02  0.96904597121E+02  0.80672824619E+02 0.  0.
          5    1    5    5  501    0  0.78474469420E+01 -0.78579909477E+02 -0.33628655486E+01  0.79181964244E+02  0.47000000000E+01 0. -1.
        -11    1    6    6    0    0 -0.28623721905E+02  0.41597693385E+01 -0.38175291341E+02  0.47895448695E+02  0.00000000000E+00 0.  1.
         12    1    6    6    0    0  0.63194480389E+01  0.42462735896E+02  0.23640585149E+02  0.49009148427E+02  0.00000000000E+00 0. -1.
         -5    1    3    3    0  503  0.64993809910E+02 -0.49273899286E+01  0.21760746025E+02  0.68877387913E+02  0.47000000000E+01 0.  1.
         13    1    4    4    0    0 -0.28900112428E+02 -0.98204221207E+01 -0.42280786380E+02  0.52147119632E+02  0.00000000000E+00 0. -1.
        -14    1    4    4    0    0 -0.21636870558E+02  0.46705216291E+02  0.17530291599E+02  0.54376856473E+02  0.00000000000E+00 0.  1.
</event>
<event>
12    1  0.1594900E-001  0.1743215E+03  0.7818608E-02  0.1173733E+00
         21   -1    0    0  503  502  0.00000000000E+00  0.00000000000E+00  0.10197568921E+03  0.10197568921E+03  0.00000000000E+00 0.  1.
         21   -1    0    0  501  503 -0.00000000000E+00 -0.00000000000E+00 -0.80741042116E+03  0.80741042116E+03  0.00000000000E+00 0.  1.
          6    2    1    2  501    0  0.33001829464E+02  0.91235112409E+01 -0.71510877687E+03  0.73604927300E+03  0.17092574507E+03 0.  0.
         24    2    3    3    0    0  0.27266994589E+02  0.34868738390E+02 -0.19914872132E+03  0.21939409401E+03  0.80710825635E+02 0.  0.
         -6    2    1    2    0  502 -0.33001829464E+02 -0.91235112409E+01  0.96740449199E+01  0.17333683736E+03  0.16964584533E+03 0.  0.
        -24    2    5    5    0    0 -0.84659954710E+02 -0.19241263864E+02  0.19697282396E+02  0.11954570323E+03  0.79785074171E+02 0.  0.
          5    1    3    3  501    0  0.57348348757E+01 -0.25745227149E+02 -0.51596005555E+03  0.51665517899E+03  0.47000000000E+01 0. -1.
        -11    1    4    4    0    0  0.11478961554E+02  0.24196161670E+02 -0.19852891087E+03  0.20032710563E+03  0.00000000000E+00 0.  1.
         12    1    4    4    0    0  0.15788033034E+02  0.10672576720E+02 -0.61981044317E+00  0.19066988381E+02  0.00000000000E+00 0. -1.
         -5    1    5    5    0  502  0.51658125245E+02  0.10117752623E+02 -0.10023237476E+02  0.53791134135E+02  0.47000000000E+01 0.  1.
         13    1    6    6    0    0 -0.23882982670E+01 -0.31703882687E+02  0.17532280346E+02  0.36307313315E+02  0.00000000000E+00 0. -1.
        -14    1    6    6    0    0 -0.82271656443E+02  0.12462618823E+02  0.21650020499E+01  0.83238389915E+02  0.00000000000E+00 0.  1.
</event>
<event>
12    1  0.1594900E-001  0.2612291E+03  0.7818608E-02  0.1106610E+00
         21   -1    0    0  501  502  0.00000000000E+00  0.00000000000E+00  0.21530305321E+03  0.21530305321E+03  0.00000000000E+00 0. -1.
         21   -1    0    0  502  503 -0.00000000000E+00 -0.00000000000E+00 -0.55281997359E+03  0.55281997359E+03  0.00000000000E+00 0.  1.
         -6    2    1    2    0  503  0.18364565536E+03 -0.68472106674E+02 -0.42024724818E+03  0.49410673314E+03  0.17064453702E+03 0.  0.
        -24    2    3    3    0    0  0.13548232028E+03 -0.68291787658E+02 -0.41055400774E+03  0.44475302740E+03  0.78939437157E+02 0.  0.
          6    2    1    2  501    0 -0.18364565536E+03  0.68472106674E+02  0.82730327803E+02  0.27401629365E+03  0.17270340450E+03 0.  0.
         24    2    5    5    0    0 -0.17076578595E+02  0.56493465359E+02  0.21762746978E+01  0.88544488108E+02  0.65971729081E+02 0.  0.
          5    1    5    5  501    0 -0.16656907676E+03  0.11978641315E+02  0.80554053105E+02  0.18547180555E+03  0.47000000000E+01 0. -1.
        -13    1    6    6    0    0 -0.36523521872E+02  0.58195048711E+02 -0.12844615281E+01  0.68718856115E+02  0.00000000000E+00 0.  1.
         14    1    6    6    0    0  0.19446943277E+02 -0.17015833516E+01  0.34607362258E+01  0.19825631993E+02  0.00000000000E+00 0. -1.
         -5    1    3    3    0  503  0.48163335073E+02 -0.18031901670E+00 -0.96932404321E+01  0.49353705741E+02  0.47000000000E+01 0.  1.
         13    1    4    4    0    0 -0.10429256753E+02 -0.53810929764E+01 -0.36769015658E+02  0.38596451527E+02  0.00000000000E+00 0. -1.
        -14    1    4    4    0    0  0.14591157703E+03 -0.62910694681E+02 -0.37378499209E+03  0.40615657588E+03  0.00000000000E+00 0.  1.
</event>
<event>
12    1  0.1594900E-001  0.1784577E+03  0.7818608E-02  0.1169664E+00
         21   -1    0    0  501  502  0.00000000000E+00  0.00000000000E+00  0.26808334801E+03  0.26808334801E+03  0.00000000000E+00 0. -1.
         21   -1    0    0  502  503 -0.00000000000E+00 -0.00000000000E+00 -0.13690272922E+03  0.13690272922E+03  0.00000000000E+00 0. -1.
         -6    2    1    2    0  503  0.46986620049E+02 -0.16502315917E+02 -0.10233907030E+02  0.17729063489E+03  0.16984453913E+03 0.  0.
        -24    2    3    3    0    0  0.53865564046E+02  0.49024557457E+02  0.89018067880E+01  0.10852031754E+03  0.79953179625E+02 0.  0.
          6    2    1    2  501    0 -0.46986620049E+02  0.16502315917E+02  0.14141452581E+03  0.22769544234E+03  0.17136825102E+03 0.  0.
         24    2    5    5    0    0 -0.72600028033E+02  0.14417685465E+02  0.30959541266E+02  0.11419308129E+03  0.81258432758E+02 0.  0.
          5    1    5    5  501    0  0.25613407985E+02  0.20846304513E+01  0.11045498455E+03  0.11350236105E+03  0.47000000000E+01 0. -1.
        -13    1    6    6    0    0 -0.71454873371E+01  0.16209784198E+02 -0.23219560494E+02  0.29205531712E+02  0.00000000000E+00 0.  1.
         14    1    6    6    0    0 -0.65454540696E+02 -0.17920987327E+01  0.54179101760E+02  0.84987549577E+02  0.00000000000E+00 0. -1.
         -5    1    3    3    0  503 -0.68789439976E+01 -0.65526873373E+02 -0.19135713818E+02  0.68770317347E+02  0.47000000000E+01 0.  1.
         13    1    4    4    0    0  0.19298581799E+02 -0.91631622989E+01 -0.24949314099E+02  0.32846112050E+02  0.00000000000E+00 0. -1.
        -14    1    4    4    0    0  0.34566982247E+02  0.58187719755E+02  0.33851120887E+02  0.75674205495E+02  0.00000000000E+00 0.  1.
</event>
<event>
12    1  0.1594900E-001  0.1768613E+03  0.7818608E-02  0.1171301E+00
         21   -1    0    0  503  502  0.00000000000E+00  0.00000000000E+00  0.27387108441E+03  0.27387108441E+03  0.00000000000E+00 0.  1.
         21   -1    0    0  501  503 -0.00000000000E+00 -0.00000000000E+00 -0.12101471151E+03  0.12101471151E+03  0.00000000000E+00 0.  1.
          6    2    1    2  501    0  0.21712145476E+02  0.25083347723E+02  0.26326330054E+02  0.17880996471E+03  0.17372200848E+03 0.  0.
         24    2    3    3    0    0  0.45952831802E+02  0.82094902179E+01  0.77506256513E+02  0.11953254225E+03  0.78113701599E+02 0.  0.
         -6    2    1    2    0  502 -0.21712145476E+02 -0.25083347723E+02  0.12653004285E+03  0.21607583121E+03  0.17198349193E+03 0.  0.
        -24    2    5    5    0    0 -0.55254303435E+02 -0.45768437544E+02  0.13758440133E+03  0.17487828101E+03  0.80654558187E+02 0.  0.
          5    1    3    3  501    0 -0.24240686326E+02  0.16873857505E+02 -0.51179926460E+02  0.59277422456E+02  0.47000000000E+01 0. -1.
        -13    1    4    4    0    0  0.23764146505E+01  0.38066620340E+02  0.34125095270E+02  0.51178482372E+02  0.00000000000E+00 0.  1.
         14    1    4    4    0    0  0.43576417152E+02 -0.29857130122E+02  0.43381161243E+02  0.68354059877E+02  0.00000000000E+00 0. -1.
         -5    1    5    5    0  502  0.33542157959E+02  0.20685089821E+02 -0.11054358476E+02  0.41197550204E+02  0.47000000000E+01 0.  1.
         11    1    6    6    0    0 -0.17085440731E+01  0.11103310256E+02  0.72036922542E+02  0.72907618469E+02  0.00000000000E+00 0. -1.
        -12    1    6    6    0    0 -0.53545759362E+02 -0.56871747800E+02  0.65547478785E+02  0.10197066254E+03  0.00000000000E+00 0.  1.
</event>
<event>
12    1  0.1594900E-001  0.3266397E+03  0.7818608E-02  0.1072680E+00
         21   -1    0    0  501  502  0.00000000000E+00  0.00000000000E+00  0.66170257125E+03  0.66170257125E+03  0.00000000000E+00 0. -1.
         21   -1    0    0  502  503 -0.00000000000E+00 -0.00000000000E+00 -0.27961220833E+03  0.27961220833E+03  0.00000000000E+00 0.  1.
         -6    2    1    2    0  503  0.27278245021E+03  0.47932544733E+02  0.49747298219E+03  0.59489502882E+03  0.17237439868E+03 0.  0.
        -24    2    3    3    0    0  0.28698108983E+03  0.28820285585E+02  0.47466088244E+03  0.56158794681E+03  0.83001890986E+02 0.  0.
          6    2    1    2  501    0 -0.27278245021E+03 -0.47932544733E+02 -0.11538261927E+03  0.34641975076E+03  0.17316379789E+03 0.  0.
         24    2    5    5    0    0 -0.21811369158E+03  0.58882589261E+01 -0.13158713914E+03  0.26787022154E+03  0.82650023311E+02 0.  0.
          5    1    5    5  501    0 -0.54668758624E+02 -0.53820803659E+02  0.16204519865E+02  0.78549529216E+02  0.47000000000E+01 0. -1.
        -13    1    6    6    0    0 -0.92303250646E+02  0.20100068433E+02 -0.14793922706E+02  0.95617796356E+02  0.00000000000E+00 0.  1.
         14    1    6    6    0    0 -0.12581044094E+03 -0.14211809507E+02 -0.11679321643E+03  0.17225242519E+03  0.00000000000E+00 0. -1.
         -5    1    3    3    0  503 -0.14198639620E+02  0.19112259148E+02  0.22812099755E+02  0.33307082010E+02  0.47000000000E+01 0.  1.
         13    1    4    4    0    0  0.24321956501E+03  0.50463331888E+02  0.42274958112E+03  0.49032592528E+03  0.00000000000E+00 0. -1.
        -14    1    4    4    0    0  0.43761524815E+02 -0.21643046303E+02  0.51911301320E+02  0.71262021527E+02  0.00000000000E+00 0.  1.
</event>
<event>
12    1  0.1594900E-001  0.1976868E+03  0.7818608E-02  0.1153373E+00
         21   -1    0    0  501  502  0.00000000000E+00  0.00000000000E+00  0.15142976596E+03  0.15142976596E+03  0.00000000000E+00 0.  1.
         21   -1    0    0  502  503 -0.00000000000E+00 -0.00000000000E+00 -0.25106048894E+03  0.25106048894E+03  0.00000000000E+00 0.  1.
         -6    2    1    2    0  503  0.68409369978E+02 -0.42257209858E+02 -0.70264185039E+02  0.20263416587E+03  0.17221508585E+03 0.  0.
        -24    2    3    3    0    0  0.97027623591E+02 -0.49953906816E+02 -0.92774410883E+02  0.16512358268E+03  0.82152015781E+02 0.  0.
          6    2    1    2  501    0 -0.68409369978E+02  0.42257209858E+02 -0.29366537940E+02  0.19985608902E+03  0.18059498632E+03 0.  0.
         24    2    5    5    0    0  0.25642075804E+02  0.36024790052E+02  0.16861097127E+02  0.94767546574E+02  0.82105357545E+02 0.  0.
          5    1    5    5  501    0 -0.94051445782E+02  0.62324198063E+01 -0.46227635067E+02  0.10508854245E+03  0.47000000000E+01 0. -1.
        -13    1    6    6    0    0  0.98457056170E+01  0.59602905651E+02 -0.24165412129E+01  0.60458944355E+02  0.00000000000E+00 0.  1.
         14    1    6    6    0    0  0.15796370187E+02 -0.23578115599E+02  0.19277638340E+02  0.34308602219E+02  0.00000000000E+00 0. -1.
         -5    1    3    3    0  503 -0.28618253613E+02  0.76966969580E+01  0.22510225844E+02  0.37510583193E+02  0.47000000000E+01 0.  1.
         11    1    4    4    0    0 -0.58970461737E+01  0.26194642984E+01 -0.35600514812E+02  0.36180566630E+02  0.00000000000E+00 0. -1.
        -12    1    4    4    0    0  0.10292466976E+03 -0.52573371114E+02 -0.57173896071E+02  0.12894301605E+03  0.00000000000E+00 0.  1.
</event>
<event>
12    1  0.1594900E-001  0.2250770E+03  0.7818608E-02  0.1130265E+00
         21   -1    0    0  501  502  0.00000000000E+00  0.00000000000E+00  0.41996458589E+03  0.41996458589E+03  0.00000000000E+00 0.  1.
         21   -1    0    0  502  503 -0.00000000000E+00 -0.00000000000E+00 -0.12117344033E+03  0.12117344033E+03  0.00000000000E+00 0. -1.
         -6    2    1    2    0  503  0.95676319914E+02  0.10920374937E+03  0.12620664913E+03  0.25750963831E+03  0.17118317227E+03 0.  0.
        -24    2    3    3    0    0  0.82939744671E+02  0.36278102133E+02  0.12400438798E+02  0.12166298254E+03  0.80330619927E+02 0.  0.
          6    2    1    2  501    0 -0.95676319914E+02 -0.10920374937E+03  0.17258449643E+03  0.28362838790E+03  0.17198906054E+03 0.  0.
         24    2    5    5    0    0 -0.84516265809E+02 -0.27499056313E+01  0.94821562527E+02  0.15124209124E+03  0.82051692698E+02 0.  0.
          5    1    5    5  501    0 -0.11160054105E+02 -0.10645384374E+03  0.77762933903E+02  0.13238629666E+03  0.47000000000E+01 0. -1.
        -11    1    6    6    0    0 -0.71579493938E+02 -0.31428899612E+02  0.39471294267E+02  0.87575012158E+02  0.00000000000E+00 0.  1.
         12    1    6    6    0    0 -0.12936771871E+02  0.28678993981E+02  0.55350268259E+02  0.63667079080E+02  0.00000000000E+00 0. -1.
         -5    1    3    3    0  503  0.12736575244E+02  0.72925647239E+02  0.11380621033E+03  0.13584665577E+03  0.47000000000E+01 0.  1.
         11    1    4    4    0    0 -0.29407859526E+01 -0.80847698416E+01 -0.18317811499E+02  0.20237439154E+02  0.00000000000E+00 0. -1.
        -12    1    4    4    0    0  0.85880530623E+02  0.44362871975E+02  0.30718250296E+02  0.10142554339E+03  0.00000000000E+00 0.  1.
</event>
<event>
12    1  0.1594900E-001  0.2218140E+03  0.7818608E-02  0.1133262E+00
         21   -1    0    0  503  502  0.00000000000E+00  0.00000000000E+00  0.53896905382E+03  0.53896905382E+03  0.00000000000E+00 0.  1.
         21   -1    0    0  501  503 -0.00000000000E+00 -0.00000000000E+00 -0.10494243108E+03  0.10494243108E+03  0.00000000000E+00 0.  1.
          6    2    1    2  501    0 -0.65562884748E+02 -0.11784270258E+03  0.95935097768E+02  0.24167129567E+03  0.17611382047E+03 0.  0.
         24    2    3    3    0    0 -0.76091339868E+02 -0.70334543824E+01  0.48124797335E+02  0.12043824456E+03  0.79686969769E+02 0.  0.
         -6    2    1    2    0  502  0.65562884748E+02  0.11784270258E+03  0.33809152497E+03  0.40224018923E+03  0.17118964971E+03 0.  0.
        -24    2    5    5    0    0 -0.11882602014E+02  0.11305542906E+03  0.22365766112E+03  0.26390031572E+03  0.81840704957E+02 0.  0.
          5    1    3    3  501    0  0.10528455120E+02 -0.11080924820E+03  0.47810300433E+02  0.12123305111E+03  0.47000000000E+01 0. -1.
        -13    1    4    4    0    0 -0.32574081790E+02  0.19815219922E+00 -0.20768091514E+02  0.38631899952E+02  0.00000000000E+00 0.  1.
         14    1    4    4    0    0 -0.43517258078E+02 -0.72316065816E+01  0.68892888849E+02  0.81806344609E+02  0.00000000000E+00 0. -1.
         -5    1    5    5    0  502  0.77445486762E+02  0.47872735206E+01  0.11443386385E+03  0.13833987352E+03  0.47000000000E+01 0.  1.
         13    1    6    6    0    0 -0.24141841218E+01  0.78883207606E+02  0.67752394747E+02  0.10401334396E+03  0.00000000000E+00 0. -1.
        -14    1    6    6    0    0 -0.94684178924E+01  0.34172221458E+02  0.15590526637E+03  0.15988697176E+03  0.00000000000E+00 0.  1.
</event>
<event>
12    1  0.1594900E-001  0.2292434E+03  0.7818608E-02  0.1127484E+00
         21   -1    0    0  501  502  0.00000000000E+00  0.00000000000E+00  0.69508465509E+03  0.69508465509E+03  0.00000000000E+00 0.  1.
         21   -1    0    0  502  503 -0.00000000000E+00 -0.00000000000E+00 -0.76961694572E+02  0.76961694572E+02  0.00000000000E+00 0. -1.
         -6    2    1    2    0  503  0.12764350097E+03  0.76257619519E+02  0.24673262264E+03  0.33560240790E+03  0.17217404346E+03 0.  0.
        -24    2    3    3    0    0  0.78268039971E+02  0.11816374692E+03  0.17559666145E+03  0.23928795085E+03  0.79598861444E+02 0.  0.
          6    2    1    2  501    0 -0.12764350097E+03 -0.76257619519E+02  0.37139033788E+03  0.43644394176E+03  0.17448336125E+03 0.  0.
         24    2    5    5    0    0 -0.10294924539E+03 -0.10663832952E+03  0.20223828102E+03  0.26275657279E+03  0.78551981430E+02 0.  0.
          5    1    5    5  501    0 -0.24694255579E+02  0.30380710002E+02  0.16915205686E+03  0.17368736897E+03  0.47000000000E+01 0. -1.
        -13    1    6    6    0    0 -0.10633874044E+03 -0.63348573161E+02  0.15874306726E+03  0.20129662403E+03  0.00000000000E+00 0.  1.
         14    1    6    6    0    0  0.33894950552E+01 -0.43289756360E+02  0.43495213751E+02  0.61459948761E+02  0.00000000000E+00 0. -1.
         -5    1    3    3    0  503  0.49375460995E+02 -0.41906127404E+02  0.71135961187E+02  0.96314457049E+02  0.47000000000E+01 0.  1.
         13    1    4    4    0    0  0.74558307523E+02  0.87549503171E+02  0.17379754836E+03  0.20839732374E+03  0.00000000000E+00 0. -1.
        -14    1    4    4    0    0  0.37097324480E+01  0.30614243752E+02  0.17991130871E+01  0.30890627110E+02  0.00000000000E+00 0.  1.
</event>
<event>
12    1  0.1594900E-001  0.2471365E+03  0.7818608E-02  0.1115165E+00
         21   -1    0    0  501  502  0.00000000000E+00  0.00000000000E+00  0.92532176778E+02  0.92532176778E+02  0.00000000000E+00 0.  1.
         21   -1    0    0  502  503 -0.00000000000E+00 -0.00000000000E+00 -0.82989128011E+03  0.82989128011E+03  0.00000000000E+00 0. -1.
         -6    2    1    2    0  503 -0.14308293276E+03  0.10594965178E+03 -0.57756541499E+03  0.62812692184E+03  0.17106597265E+03 0.  0.
        -24    2    3    3    0    0 -0.30177576886E+02 -0.10289691070E+02 -0.22287753534E+03  0.23814642723E+03  0.77606450468E+02 0.  0.
          6    2    1    2  501    0  0.14308293276E+03 -0.10594965178E+03 -0.15979368835E+03  0.29429653504E+03  0.17140120578E+03 0.  0.
         24    2    5    5    0    0  0.32099717223E+02 -0.18900215144E+02 -0.11865352728E+03  0.14729489763E+03  0.78927291557E+02 0.  0.
          5    1    5    5  501    0  0.11098321554E+03 -0.87049436636E+02 -0.41140161062E+02  0.14700163741E+03  0.47000000000E+01 0. -1.
        -11    1    6    6    0    0 -0.14249677018E+01  0.75119489426E+01  0.95155047549E+01  0.12206749797E+02  0.00000000000E+00 0.  1.
         12    1    6    6    0    0  0.33524684925E+02 -0.26412164087E+02 -0.12816903204E+03  0.13508814783E+03  0.00000000000E+00 0. -1.
         -5    1    3    3    0  503 -0.11290535588E+03  0.11623934285E+03 -0.35468787964E+03  0.38998049461E+03  0.47000000000E+01 0.  1.
         11    1    4    4    0    0 -0.52374220129E+02 -0.22531533926E+02 -0.17373710433E+03  0.18285324819E+03  0.00000000000E+00 0. -1.
        -12    1    4    4    0    0  0.22196643243E+02  0.12241842857E+02 -0.49140431015E+02  0.55293179038E+02  0.00000000000E+00 0.  1.
</event>
<event>
12    1  0.1594900E-001  0.1960739E+03  0.7818608E-02  0.1153469E+00
         21   -1    0    0  501  502  0.00000000000E+00  0.00000000000E+00  0.38545853903E+03  0.38545853903E+03  0.00000000000E+00 0.  1.
         21   -1    0    0  502  503 -0.00000000000E+00 -0.00000000000E+00 -0.14069697939E+03  0.14069697939E+03  0.00000000000E+00 0.  1.
         -6    2    1    2    0  503  0.37880990834E+02  0.82522116747E+02 -0.21448672779E+02  0.19553057903E+03  0.17183507370E+03 0.  0.
        -24    2    3    3    0    0  0.34550520576E+02  0.71581032401E+02  0.49889664162E+02  0.12312859234E+03  0.79712539731E+02 0.  0.
          6    2    1    2  501    0 -0.37880990834E+02 -0.82522116747E+02  0.26621023242E+03  0.33062493939E+03  0.17378174093E+03 0.  0.
         24    2    5    5    0    0 -0.48928315579E+02 -0.12155858282E+03  0.19635245339E+03  0.24970468013E+03  0.81410516530E+02 0.  0.
          5    1    5    5  501    0  0.11047324745E+02  0.39036466074E+02  0.69857779031E+02  0.80920259260E+02  0.47000000000E+01 0. -1.
        -13    1    6    6    0    0  0.34489727055E+01  0.65336702770E+01  0.40970191175E+02  0.41631007974E+02  0.00000000000E+00 0.  1.
         14    1    6    6    0    0 -0.52377288285E+02 -0.12809225310E+03  0.15538226222E+03  0.20807367215E+03  0.00000000000E+00 0. -1.
         -5    1    3    3    0  503  0.33304702581E+01  0.10941084347E+02 -0.71338336941E+02  0.72401986688E+02  0.47000000000E+01 0.  1.
         11    1    4    4    0    0  0.23910350959E+02  0.64387328851E+02 -0.29534106524E+01  0.68747040911E+02  0.00000000000E+00 0. -1.
        -12    1    4    4    0    0  0.10640169617E+02  0.71937035500E+01  0.52843074815E+02  0.54381551432E+02  0.00000000000E+00 0.  1.
</event>
<event>
12    1  0.1594900E-001  0.1772944E+03  0.7818608E-02  0.1170470E+00
         21   -1    0    0  503  502  0.00000000000E+00  0.00000000000E+00  0.13828983330E+03  0.13828983330E+03  0.00000000000E+00 0.  1.
         21   -1    0    0  501  503 -0.00000000000E+00 -0.00000000000E+00 -0.56326407309E+03  0.56326407309E+03  0.00000000000E+00 0.  1.
          6    2    1    2  501    0  0.42598361072E+02 -0.10923304104E+02 -0.48346410939E+03  0.51494741789E+03  0.17175377485E+03 0.  0.
         24    2    3    3    0    0  0.70665583040E+02 -0.67703974325E+01 -0.17756780274E+03  0.20770214778E+03  0.81057971300E+02 0.  0.
         -6    2    1    2    0  502 -0.42598361072E+02  0.10923304104E+02  0.58489869608E+02  0.18660648850E+03  0.17165948201E+03 0.  0.
        -24    2    5    5    0    0  0.41199517669E+02 -0.74883377138E+01  0.40035006323E+02  0.98721648994E+02  0.79935516455E+02 0.  0.
          5    1    3    3  501    0 -0.28067221969E+02 -0.41529066719E+01 -0.30589630665E+03  0.30724527011E+03  0.47000000000E+01 0. -1.
        -11    1    4    4    0    0  0.55882612407E+02 -0.36039660148E+02 -0.15269371259E+03  0.16654456863E+03  0.00000000000E+00 0.  1.
         12    1    4    4    0    0  0.14782970633E+02  0.29269262715E+02 -0.24874090150E+02  0.41157579149E+02  0.00000000000E+00 0. -1.
         -5    1    5    5    0  502 -0.83797878740E+02  0.18411641818E+02  0.18454863285E+02  0.87884839504E+02  0.47000000000E+01 0.  1.
         11    1    6    6    0    0  0.14569477892E+02  0.30809301540E+02 -0.43205453536E+01  0.34353309296E+02  0.00000000000E+00 0. -1.
        -12    1    6    6    0    0  0.26630039777E+02 -0.38297639254E+02  0.44355551676E+02  0.64368339698E+02  0.00000000000E+00 0.  1.
</event>
<event>
12    1  0.1594900E-001  0.2005992E+03  0.7818608E-02  0.1150375E+00
         21   -1    0    0  503  502  0.00000000000E+00  0.00000000000E+00  0.12363171756E+03  0.12363171756E+03  0.00000000000E+00 0. -1.
         21   -1    0    0  501  503 -0.00000000000E+00 -0.00000000000E+00 -0.32154346837E+03  0.32154346837E+03  0.00000000000E+00 0.  1.
          6    2    1    2  501    0  0.23657978132E+02 -0.89034366760E+02 -0.12449343226E+03  0.23156266979E+03  0.17215062292E+03 0.  0.
         24    2    3    3    0    0  0.14907399146E+02 -0.11466846748E+03 -0.46877395167E+02  0.14922179922E+03  0.81844775048E+02 0.  0.
         -6    2    1    2    0  502 -0.23657978132E+02  0.89034366760E+02 -0.73418318554E+02  0.21361251613E+03  0.17819438587E+03 0.  0.
        -24    2    5    5    0    0 -0.29880603596E+01  0.16743949732E+02  0.43633968705E+01  0.10532939118E+03  0.10385544308E+03 0.  0.
          5    1    3    3  501    0  0.87505789862E+01  0.25634100719E+02 -0.77616037092E+02  0.82340870570E+02  0.47000000000E+01 0. -1.
        -13    1    4    4    0    0 -0.28565141846E+02 -0.59235674203E+02 -0.21948746279E+01  0.65800075240E+02  0.00000000000E+00 0.  1.
         14    1    4    4    0    0  0.43472540992E+02 -0.55432793276E+02 -0.44682520539E+02  0.83421723984E+02  0.00000000000E+00 0. -1.
         -5    1    5    5    0  502 -0.20669917773E+02  0.72290417028E+02 -0.77781715425E+02  0.10828312495E+03  0.47000000000E+01 0.  1.
         11    1    6    6    0    0 -0.52023979387E+02  0.16685584614E+02 -0.67505344432E+01  0.55049730975E+02  0.00000000000E+00 0. -1.
        -12    1    6    6    0    0  0.49035919028E+02  0.58365117793E-01  0.11113931314E+02  0.50279660208E+02  0.00000000000E+00 0.  1.
</event>
<event>
12    1  0.1594900E-001  0.1801710E+03  0.7818608E-02  0.1167734E+00
         21   -1    0    0  503  502  0.00000000000E+00  0.00000000000E+00  0.21366861768E+02  0.21366861768E+02  0.00000000000E+00 0. -1.
         21   -1    0    0  501  503 -0.00000000000E+00 -0.00000000000E+00 -0.15169569566E+04  0.15169569566E+04  0.00000000000E+00 0. -1.
          6    2    1    2  501    0  0.24834605329E+02  0.45654405547E+02 -0.76890871904E+03  0.78973553404E+03  0.17251235647E+03 0.  0.
         24    2    3    3    0    0 -0.32716171450E+02 -0.21650745680E+02 -0.44517444225E+03  0.45407492083E+03  0.80403028736E+02 0.  0.
         -6    2    1    2    0  502 -0.24834605329E+02 -0.45654405547E+02 -0.72668137579E+03  0.74858828433E+03  0.17209740018E+03 0.  0.
        -24    2    5    5    0    0  0.15052325762E+02 -0.30925811606E+02 -0.67442181918E+03  0.68105273807E+03  0.88346270521E+02 0.  0.
          5    1    3    3  501    0  0.57550776779E+02  0.67305151226E+02 -0.32373427679E+03  0.33566061321E+03  0.47000000000E+01 0. -1.
        -11    1    4    4    0    0 -0.67723409834E+01 -0.50281577897E+02 -0.24250297855E+03  0.24775349903E+03  0.00000000000E+00 0.  1.
         12    1    4    4    0    0 -0.25943830467E+02  0.28630832217E+02 -0.20267146370E+03  0.20632142179E+03  0.00000000000E+00 0. -1.
         -5    1    5    5    0  502 -0.39886931091E+02 -0.14728593940E+02 -0.52259556607E+02  0.67535546256E+02  0.47000000000E+01 0.  1.
         11    1    6    6    0    0  0.81058190223E+00 -0.61252003048E+02 -0.44581241332E+03  0.45000130310E+03  0.00000000000E+00 0. -1.
        -12    1    6    6    0    0  0.14241743860E+02  0.30326191441E+02 -0.22860940586E+03  0.23105143497E+03  0.00000000000E+00 0.  1.
</event>
<event>
12    1  0.1594900E-001  0.1974682E+03  0.7818608E-02  0.1152058E+00
         21   -1    0    0  501  502  0.00000000000E+00  0.00000000000E+00  0.39643298075E+03  0.39643298075E+03  0.00000000000E+00 0.  1.
         21   -1    0    0  502  503 -0.00000000000E+00 -0.00000000000E+00 -0.14052975821E+03  0.14052975821E+03  0.00000000000E+00 0. -1.
         -6    2    1    2    0  503 -0.82272773530E+02 -0.52880862291E+02  0.27585964358E+03  0.33925245186E+03  0.17154733538E+03 0.  0.
        -24    2    3    3    0    0 -0.61704519733E+02 -0.65328837665E+02  0.28800174501E+03  0.31191153413E+03  0.79173829057E+02 0.  0.
          6    2    1    2  501    0  0.82272773530E+02  0.52880862291E+02 -0.19956421046E+02  0.19771028710E+03  0.17066313024E+03 0.  0.
         24    2    5    5    0    0  0.34944450386E+02  0.31719414314E+01 -0.71148639958E+02  0.11195668507E+03  0.78999965431E+02 0.  0.
          5    1    5    5  501    0  0.47328323144E+02  0.49708920860E+02  0.51192218912E+02  0.85753602034E+02  0.47000000000E+01 0. -1.
        -11    1    6    6    0    0 -0.20423307125E+02  0.19187359099E+02 -0.30552990702E+02  0.41457827535E+02  0.00000000000E+00 0.  1.
         12    1    6    6    0    0  0.55367757510E+02 -0.16015417668E+02 -0.40595649256E+02  0.70498857532E+02  0.00000000000E+00 0. -1.
         -5    1    3    3    0  503 -0.20568253797E+02  0.12447975374E+02 -0.12142101430E+02  0.27340917730E+02  0.47000000000E+01 0.  1.
         13    1    4    4    0    0 -0.52240381039E+02 -0.10465739605E+02  0.76634061361E+02  0.93334712070E+02  0.00000000000E+00 0. -1.
        -14    1    4    4    0    0 -0.94641386940E+01 -0.54863098059E+02  0.21136768365E+03  0.21857682206E+03  0.00000000000E+00 0.  1.
</event>
<event>
12    1  0.1594900E-001  0.2392323E+03  0.7818608E-02  0.1120483E+00
         21   -1    0    0  501  502  0.00000000000E+00  0.00000000000E+00  0.53081167128E+03  0.53081167128E+03  0.00000000000E+00 0. -1.
         21   -1    0    0  502  503 -0.00000000000E+00 -0.00000000000E+00 -0.10735038970E+03  0.10735038970E+03  0.00000000000E+00 0.  1.
         -6    2    1    2    0  503 -0.87501399854E+02  0.14757489409E+03  0.21474700455E+03  0.32147843520E+03  0.16672511507E+03 0.  0.
        -24    2    3    3    0    0 -0.43926014293E+02  0.90622508923E+02  0.21224448513E+03  0.24957057050E+03  0.84236656712E+02 0.  0.
          6    2    1    2  501    0  0.87501399854E+02 -0.14757489409E+03  0.20871427702E+03  0.31668362577E+03  0.16520298138E+03 0.  0.
         24    2    5    5    0    0  0.84823426068E+02 -0.95740879267E+02  0.57706749703E+02  0.15693601251E+03  0.70267442591E+02 0.  0.
          5    1    5    5  501    0  0.26779737859E+01 -0.51834014822E+02  0.15100752732E+03  0.15974761326E+03  0.47000000000E+01 0. -1.
        -13    1    6    6    0    0  0.38692400397E+02 -0.15842880542E+01  0.28537687247E+02  0.48104172486E+02  0.00000000000E+00 0.  1.
         14    1    6    6    0    0  0.46131025671E+02 -0.94156591213E+02  0.29169062456E+02  0.10883184002E+03  0.00000000000E+00 0. -1.
         -5    1    3    3    0  503 -0.43575385561E+02  0.56952385166E+02  0.25025194196E+01  0.71907864704E+02  0.47000000000E+01 0.  1.
         13    1    4    4    0    0 -0.67678166008E+02  0.74475727138E+02  0.18126606967E+03  0.20732668931E+03  0.00000000000E+00 0. -1.
        -14    1    4    4    0    0  0.23752151715E+02  0.16146781785E+02  0.30978415459E+02  0.42243881184E+02  0.00000000000E+00 0.  1.
</event>
<event>
12    1  0.1594900E-001  0.3712099E+03  0.7818608E-02  0.1054255E+00
         21   -1    0    0  501  502  0.00000000000E+00  0.00000000000E+00  0.27924095246E+03  0.27924095246E+03  0.00000000000E+00 0. -1.
         21   -1    0    0  502  503 -0.00000000000E+00 -0.00000000000E+00 -0.61685746777E+03  0.61685746777E+03  0.00000000000E+00 0.  1.
         -6    2    1    2    0  503 -0.28394668787E+03  0.16611831813E+03 -0.36950320327E+03  0.52376465928E+03  0.17197611435E+03 0.  0.
        -24    2    3    3    0    0 -0.63854236561E+02  0.13734734716E+02 -0.12586923050E+03  0.16176873899E+03  0.77846356765E+02 0.  0.
          6    2    1    2  501    0  0.28394668787E+03 -0.16611831813E+03  0.31886687957E+02  0.37233376095E+03  0.17144868475E+03 0.  0.
         24    2    5    5    0    0  0.16516152716E+03 -0.91007500282E+02 -0.48432609638E+02  0.21039294173E+03  0.79741940609E+02 0.  0.
          5    1    5    5  501    0  0.11878516072E+03 -0.75110817847E+02  0.80319297595E+02  0.16194081922E+03  0.47000000000E+01 0. -1.
        -13    1    6    6    0    0  0.15824384943E+02  0.14843030804E+02 -0.51276033695E+01  0.22293923804E+02  0.00000000000E+00 0.  1.
         14    1    6    6    0    0  0.14933714222E+03 -0.10585053109E+03 -0.43305006269E+02  0.18809901792E+03  0.00000000000E+00 0. -1.
         -5    1    3    3    0  503 -0.22009245131E+03  0.15238358341E+03 -0.24363397277E+03  0.36199592029E+03  0.47000000000E+01 0.  1.
         13    1    4    4    0    0 -0.60988125606E+02  0.40728643820E+02 -0.80489241239E+02  0.10888935599E+03  0.00000000000E+00 0. -1.
        -14    1    4    4    0    0 -0.28661109553E+01 -0.26993909104E+02 -0.45379989266E+02  0.52879383000E+02  0.00000000000E+00 0.  1.
</event>
<event>
12    1  0.1594900E-001  0.1804084E+03  0.7818608E-02  0.1168275E+00
         21   -1    0    0  503  502  0.00000000000E+00  0.00000000000E+00  0.13870489539E+04  0.13870489539E+04  0.00000000000E+00 0. -1.
         21   -1    0    0  501  503 -0.00000000000E+00 -0.00000000000E+00 -0.28729565826E+02  0.28729565826E+02  0.00000000000E+00 0. -1.
          6    2    1    2  501    0  0.39391567865E+02 -0.10134910822E+02  0.35777681625E+03  0.39910126332E+03  0.17211378824E+03 0.  0.
         24    2    3    3    0    0  0.47026665909E+02  0.57628816425E+02  0.22270483023E+03  0.24771847414E+03  0.78958300599E+02 0.  0.
         -6    2    1    2    0  502 -0.39391567865E+02  0.10134910822E+02  0.10005425718E+04  0.10166772564E+04  0.17576345929E+03 0.  0.
        -24    2    5    5    0    0 -0.45220775252E+02  0.49556772357E+02  0.92609333973E+03  0.93210278635E+03  0.81645197213E+02 0.  0.
          5    1    3    3  501    0 -0.76350980444E+01 -0.67763727248E+02  0.13507198602E+03  0.15138278918E+03  0.47000000000E+01 0. -1.
        -11    1    4    4    0    0  0.39158827069E+02 -0.37560586657E+01  0.46203808805E+02  0.60682070352E+02  0.00000000000E+00 0.  1.
         12    1    4    4    0    0  0.78678388405E+01  0.61384875091E+02  0.17650102143E+03  0.18703640379E+03  0.00000000000E+00 0. -1.
         -5    1    5    5    0  502  0.58292073871E+01 -0.39421861535E+02  0.74449232086E+02  0.84574470047E+02  0.47000000000E+01 0.  1.
         11    1    6    6    0    0 -0.55454268468E+02  0.33626011561E+02  0.36680412178E+03  0.37249315202E+03  0.00000000000E+00 0. -1.
        -12    1    6    6    0    0  0.10233493216E+02  0.15930760796E+02  0.55928921795E+03  0.55960963433E+03  0.00000000000E+00 0.  1.
</event>
<event>
12    1  0.1594900E-001  0.2071792E+03  0.7818608E-02  0.1143956E+00
         21   -1    0    0  503  502  0.00000000000E+00  0.00000000000E+00  0.11955222933E+04  0.11955222933E+04  0.00000000000E+00 0. -1.
         21   -1    0    0  501  503 -0.00000000000E+00 -0.00000000000E+00 -0.91315303825E+02  0.91315303825E+02  0.00000000000E+00 0. -1.
          6    2    1    2  501    0 -0.47631078736E+02 -0.10314544950E+03  0.50712903729E+02  0.21329558531E+03  0.17324983317E+03 0.  0.
         24    2    3    3    0    0  0.96813023262E+00  0.71445565613E+01  0.51489376245E+02  0.92678582122E+02  0.76721455627E+02 0.  0.
         -6    2    1    2    0  502  0.47631078736E+02  0.10314544950E+03  0.10534940857E+04  0.10735420118E+04  0.17243827597E+03 0.  0.
        -24    2    5    5    0    0  0.79585242186E+02  0.20432857102E+02  0.66313673165E+03  0.67321290296E+03  0.81938851727E+02 0.  0.
          5    1    3    3  501    0 -0.48599208968E+02 -0.11029000606E+03 -0.77647251587E+00  0.12061700319E+03  0.47000000000E+01 0. -1.
        -13    1    4    4    0    0 -0.28688623613E+02 -0.64016954122E+01  0.52378197152E+02  0.60062420579E+02  0.00000000000E+00 0.  1.
         14    1    4    4    0    0  0.29656753846E+02  0.13546251973E+02 -0.88882090683E+00  0.32616161543E+02  0.00000000000E+00 0. -1.
         -5    1    5    5    0  502 -0.31954163450E+02  0.82712592393E+02  0.39035735408E+03  0.40032910884E+03  0.47000000000E+01 0.  1.
         11    1    6    6    0    0  0.86999077704E+02  0.16612577577E+02  0.38926877324E+03  0.39921797940E+03  0.00000000000E+00 0. -1.
        -12    1    6    6    0    0 -0.74138355178E+01  0.38202795252E+01  0.27386795841E+03  0.27399492356E+03  0.00000000000E+00 0.  1.
</event>
<event>
12    1  0.1594900E-001  0.2007500E+03  0.7818608E-02  0.1151137E+00
         21   -1    0    0  503  502  0.00000000000E+00  0.00000000000E+00  0.19127182236E+04  0.19127182236E+04  0.00000000000E+00 0.  1.
         21   -1    0    0  501  503 -0.00000000000E+00 -0.00000000000E+00 -0.25082964733E+02  0.25082964733E+02  0.00000000000E+00 0.  1.
          6    2    1    2  501    0  0.64125047890E+02 -0.55311172410E+02  0.52990824961E+03  0.56665977048E+03  0.18201427117E+03 0.  0.
         24    2    3    3    0    0  0.46155893778E+02  0.19609907886E+02  0.37428437660E+03  0.39294466283E+03  0.10863608270E+03 0.  0.
         -6    2    1    2    0  502 -0.64125047890E+02  0.55311172410E+02  0.13577270092E+04  0.13711414178E+04  0.17156575574E+03 0.  0.
        -24    2    5    5    0    0 -0.22396506520E+02  0.96909335286E+02  0.77991338748E+03  0.79031239841E+03  0.80223265612E+02 0.  0.
          5    1    3    3  501    0  0.17969154113E+02 -0.74921080296E+02  0.15562387301E+03  0.17371510764E+03  0.47000000000E+01 0. -1.
        -11    1    4    4    0    0  0.78632504232E+02  0.84155252564E+01  0.31145039820E+03  0.32133353750E+03  0.00000000000E+00 0.  1.
         12    1    4    4    0    0 -0.32476610454E+02  0.11194382630E+02  0.62833978399E+02  0.71611125326E+02  0.00000000000E+00 0. -1.
         -5    1    5    5    0  502 -0.41728541370E+02 -0.41598162876E+02  0.57781362175E+03  0.58082901942E+03  0.47000000000E+01 0.  1.
         13    1    6    6    0    0 -0.11393554639E+02  0.10845525035E+03  0.72406948353E+03  0.73223559828E+03  0.00000000000E+00 0. -1.
        -14    1    6    6    0    0 -0.11002951881E+02 -0.11545915066E+02  0.55843903954E+02  0.58076800133E+02  0.00000000000E+00 0.  1.
</event>
<event>
12    1  0.1594900E-001  0.1869517E+03  0.7818608E-02  0.1161327E+00
         21   -1    0    0  503  502  0.00000000000E+00  0.00000000000E+00  0.22848364552E+04  0.22848364552E+04  0.00000000000E+00 0.  1.
         21   -1    0    0  501  503 -0.00000000000E+00 -0.00000000000E+00 -0.15425412155E+02  0.15425412155E+02  0.00000000000E+00 0.  1.
          6    2    1    2  501    0 -0.64529556880E+02  0.29110643800E+02  0.10189040082E+04  0.10359132768E+04  0.17303018720E+03 0.  0.
         24    2    3    3    0    0 -0.48338542921E+01  0.10703684952E+02  0.87890599370E+03  0.88253815781E+03  0.79119651170E+02 0.  0.
         -6    2    1    2    0  502  0.64529556880E+02 -0.29110643800E+02  0.12505070348E+04  0.12643485906E+04  0.17262103328E+03 0.  0.
        -24    2    5    5    0    0  0.57483785807E+02  0.49742781188E+01  0.11917389192E+04  0.11958854166E+04  0.81062622814E+02 0.  0.
          5    1    3    3  501    0 -0.59695702588E+02  0.18406958848E+02  0.13999801453E+03  0.15337511895E+03  0.47000000000E+01 0. -1.
        -13    1    4    4    0    0 -0.24233211463E+00 -0.24420017707E+02  0.10423042587E+03  0.10705315347E+03  0.00000000000E+00 0.  1.
         14    1    4    4    0    0 -0.45915221774E+01  0.35123702659E+02  0.77467556783E+03  0.77548500434E+03  0.00000000000E+00 0. -1.
         -5    1    5    5    0  502  0.70457710726E+01 -0.34084921919E+02  0.58768115582E+02  0.68463174052E+02  0.47000000000E+01 0.  1.
         11    1    6    6    0    0  0.28719766682E+02 -0.22089732540E+02  0.19334454004E+03  0.19671017372E+03  0.00000000000E+00 0. -1.
        -12    1    6    6    0    0  0.28764019125E+02  0.27064010658E+02  0.99839437921E+03  0.99917524284E+03  0.00000000000E+00 0.  1.
</event>
<event>
12    1  0.1594900E-001  0.2012983E+03  0.7818608E-02  0.1148680E+00
         21   -1    0    0  501  502  0.00000000000E+00  0.00000000000E+00  0.20089561131E+03  0.20089561131E+03  0.00000000000E+00 0. -1.
         21   -1    0    0  502  503 -0.00000000000E+00 -0.00000000000E+00 -0.23940163484E+03  0.23940163484E+03  0.00000000000E+00 0. -1.
         -6    2    1    2    0  503  0.82300837463E+02 -0.67096714416E+02 -0.10678709163E+03  0.22773360315E+03  0.17083241534E+03 0.  0.
        -24    2    3    3    0    0  0.42324224301E+02 -0.13738521497E+02 -0.12834476903E+03  0.15750504908E+03  0.79720598411E+02 0.  0.
          6    2    1    2  501    0 -0.82300837463E+02  0.67096714416E+02  0.68281068099E+02  0.21256364301E+03  0.17101345309E+03 0.  0.
         24    2    5    5    0    0  0.13452566935E+02 -0.21111379096E+01  0.41928068754E+02  0.91423179696E+02  0.80092486388E+02 0.  0.
          5    1    5    5  501    0 -0.95753404399E+02  0.69207852326E+02  0.26352999345E+02  0.12114046331E+03  0.47000000000E+01 0. -1.
        -11    1    6    6    0    0  0.34383150115E+02  0.27423797259E+02  0.15612222233E+02  0.46669124172E+02  0.00000000000E+00 0.  1.
         12    1    6    6    0    0 -0.20930583180E+02 -0.29534935169E+02  0.26315846521E+02  0.44754055523E+02  0.00000000000E+00 0. -1.
         -5    1    3    3    0  503  0.39976613162E+02 -0.53358192919E+02  0.21557677400E+02  0.70228554067E+02  0.47000000000E+01 0.  1.
         11    1    4    4    0    0  0.20888865379E+02 -0.41409070831E+02 -0.10671847485E+03  0.11636102749E+03  0.00000000000E+00 0. -1.
        -12    1    4    4    0    0  0.21435358922E+02  0.27670549333E+02 -0.21626294188E+02  0.41144021593E+02  0.00000000000E+00 0.  1.
</event>
<event>
12    1  0.1594900E-001  0.1790579E+03  0.7818608E-02  0.1170190E+00
         21   -1    0    0  503  502  0.00000000000E+00  0.00000000000E+00  0.16843807841E+03  0.16843807841E+03  0.00000000000E+00 0. -1.
         21   -1    0    0  501  503 -0.00000000000E+00 -0.00000000000E+00 -0.27007669182E+03  0.27007669182E+03  0.00000000000E+00 0. -1.
          6    2    1    2  501    0 -0.24724244720E+02 -0.34837877137E+01 -0.17393973274E+03  0.24541065930E+03  0.17131239307E+03 0.  0.
         24    2    3    3    0    0 -0.34970639218E+02  0.50778167627E+02 -0.54592110829E+02  0.11382307154E+03  0.78574965064E+02 0.  0.
         -6    2    1    2    0  502  0.24724244720E+02  0.34837877137E+01  0.72301119332E+02  0.19310411094E+03  0.17730854675E+03 0.  0.
        -24    2    5    5    0    0  0.80388615238E+02  0.23802281276E+02  0.31902970531E+02  0.12123295015E+03  0.81552134368E+02 0.  0.
          5    1    3    3  501    0  0.10246394499E+02 -0.54261955341E+02 -0.11934762191E+03  0.13158758776E+03  0.47000000000E+01 0. -1.
        -11    1    4    4    0    0  0.65966189908E+01 -0.18173087746E+02 -0.94425432721E+01  0.21515996928E+02  0.00000000000E+00 0.  1.
         12    1    4    4    0    0 -0.41567258209E+02  0.68951255374E+02 -0.45149567557E+02  0.92307074611E+02  0.00000000000E+00 0. -1.
         -5    1    5    5    0  502 -0.55664370518E+02 -0.20318493563E+02  0.40398148800E+02  0.71871160783E+02  0.47000000000E+01 0.  1.
         13    1    6    6    0    0  0.51435991905E+02  0.43923179693E+02  0.47529231152E+02  0.82667616341E+02  0.00000000000E+00 0. -1.
        -14    1    6    6    0    0  0.28952623333E+02 -0.20120898417E+02 -0.15626260620E+02  0.38565333811E+02  0.00000000000E+00 0.  1.
</event>
<event>
12    1  0.1594900E-001  0.3048263E+03  0.7818608E-02  0.1082872E+00
         21   -1    0    0  501  502  0.00000000000E+00  0.00000000000E+00  0.59355794115E+03  0.59355794115E+03  0.00000000000E+00 0.  1.
         21   -1    0    0  502  503 -0.00000000000E+00 -0.00000000000E+00 -0.16817484080E+03  0.16817484080E+03  0.00000000000E+00 0. -1.
         -6    2    1    2    0  503 -0.20782221647E+03 -0.14313035868E+03  0.11213964236E+03  0.32465093694E+03  0.17072363114E+03 0.  0.
        -24    2    3    3    0    0 -0.19932876744E+03 -0.78670936887E+02  0.52662241237E+02  0.23640805065E+03  0.84819696554E+02 0.  0.
          6    2    1    2  501    0  0.20782221647E+03  0.14313035868E+03  0.31324345799E+03  0.43708184502E+03  0.17100497665E+03 0.  0.
         24    2    5    5    0    0  0.18671364161E+03  0.17383566024E+03  0.27301081016E+03  0.38204419039E+03  0.79636927420E+02 0.  0.
          5    1    5    5  501    0  0.21108574853E+02 -0.30705301556E+02  0.40232647825E+02  0.55037654628E+02  0.47000000000E+01 0. -1.
        -13    1    6    6    0    0  0.16004100918E+03  0.11518078805E+03  0.23674873008E+03  0.30810663698E+03  0.00000000000E+00 0.  1.
         14    1    6    6    0    0  0.26672632433E+02  0.58654872187E+02  0.36262080076E+02  0.73937553406E+02  0.00000000000E+00 0. -1.
         -5    1    3    3    0  503 -0.84934490296E+01 -0.64459421796E+02  0.59477401127E+02  0.88242886283E+02  0.47000000000E+01 0.  1.
         11    1    4    4    0    0 -0.96611957408E+02 -0.28196197276E+02 -0.17517996092E+02  0.10215564616E+03  0.00000000000E+00 0. -1.
        -12    1    4    4    0    0 -0.10271681003E+03 -0.50474739611E+02  0.70180237329E+02  0.13425240450E+03  0.00000000000E+00 0.  1.
</event>
<event>
12    1  0.1594900E-001  0.1778899E+03  0.7818608E-02  0.1170086E+00
         21   -1    0    0  503  502  0.00000000000E+00  0.00000000000E+00  0.47623205730E+03  0.47623205730E+03  0.00000000000E+00 0. -1.
         21   -1    0    0  501  503 -0.00000000000E+00 -0.00000000000E+00 -0.10173951387E+03  0.10173951387E+03  0.00000000000E+00 0. -1.
          6    2    1    2  501    0 -0.13097269726E+02  0.51632774381E+02  0.16537139720E+02  0.17865691695E+03  0.16972723741E+03 0.  0.
         24    2    3    3    0    0  0.31295491122E+02 -0.24948351472E+02  0.95823442350E+01  0.89742096849E+02  0.79749574420E+02 0.  0.
         -6    2    1    2    0  502  0.13097269726E+02 -0.51632774381E+02  0.35795540371E+03  0.39931465422E+03  0.16876800693E+03 0.  0.
        -24    2    5    5    0    0  0.12738789233E+02 -0.96905739210E+02  0.30249662305E+03  0.32756832187E+03  0.79017716336E+02 0.  0.
          5    1    3    3  501    0 -0.44392760848E+02  0.76581125853E+02  0.69547954848E+01  0.88914820097E+02  0.47000000000E+01 0. -1.
        -13    1    4    4    0    0  0.32822057416E+02  0.18357752707E+02  0.23359780134E+02  0.44271592081E+02  0.00000000000E+00 0.  1.
         14    1    4    4    0    0 -0.15265662949E+01 -0.43306104180E+02 -0.13777435899E+02  0.45470504768E+02  0.00000000000E+00 0. -1.
         -5    1    5    5    0  502  0.35848049292E+00  0.45272964829E+02  0.55458780668E+02  0.71746332351E+02  0.47000000000E+01 0.  1.
         13    1    6    6    0    0  0.71943462042E+01 -0.79212833904E+02  0.29807828490E+03  0.30850785339E+03  0.00000000000E+00 0. -1.
        -14    1    6    6    0    0  0.55444430292E+01 -0.17692905306E+02  0.44183381413E+01  0.19060468478E+02  0.00000000000E+00 0.  1.
</event>
<event>
12    1  0.1594900E-001  0.2573223E+03  0.7818608E-02  0.1108950E+00
         21   -1    0    0  503  502  0.00000000000E+00  0.00000000000E+00  0.17393285218E+04  0.17393285218E+04  0.00000000000E+00 0. -1.
         21   -1    0    0  501  503 -0.00000000000E+00 -0.00000000000E+00 -0.62566610166E+02  0.62566610166E+02  0.00000000000E+00 0.  1.
          6    2    1    2  501    0  0.15573373296E+03 -0.10879872690E+03  0.27133170886E+03  0.37310234364E+03  0.17173905800E+03 0.  0.
         24    2    3    3    0    0  0.10906992535E+03 -0.13835991342E+03  0.16995719194E+03  0.25755902982E+03  0.80071795869E+02 0.  0.
         -6    2    1    2    0  502 -0.15573373296E+03  0.10879872690E+03  0.14054302028E+04  0.14287927883E+04  0.17356445068E+03 0.  0.
        -24    2    5    5    0    0 -0.12377591328E+03  0.26294511559E+02  0.11141526065E+04  0.11243375767E+04  0.82383722840E+02 0.  0.
          5    1    3    3  501    0  0.46663807608E+02  0.29561186518E+02  0.10137451692E+03  0.11554331382E+03  0.47000000000E+01 0. -1.
        -13    1    4    4    0    0  0.82854436424E+01 -0.67145278302E+02  0.41198174325E+02  0.79211277874E+02  0.00000000000E+00 0.  1.
         14    1    4    4    0    0  0.10078448171E+03 -0.71214635114E+02  0.12875901762E+03  0.17834775195E+03  0.00000000000E+00 0. -1.
         -5    1    5    5    0  502 -0.31957819672E+02  0.82504215339E+02  0.29127759632E+03  0.30445521165E+03  0.47000000000E+01 0.  1.
         11    1    6    6    0    0 -0.48562782811E+02  0.99315011672E+01  0.77396211054E+03  0.77554775942E+03  0.00000000000E+00 0. -1.
        -12    1    6    6    0    0 -0.75213130474E+02  0.16363010392E+02  0.34019049591E+03  0.34878981725E+03  0.00000000000E+00 0.  1.
</event>
<event>
12    1  0.1594900E-001  0.1903504E+03  0.7818608E-02  0.1161853E+00
         21   -1    0    0  503  502  0.00000000000E+00  0.00000000000E+00  0.21385832708E+03  0.21385832708E+03  0.00000000000E+00 0. -1.
         21   -1    0    0  501  503 -0.00000000000E+00 -0.00000000000E+00 -0.20224724842E+03  0.20224724842E+03  0.00000000000E+00 0. -1.
          6    2    1    2  501    0  0.22981513843E+02 -0.25072961371E+02  0.10572895041E+03  0.21774272928E+03  0.18728716408E+03 0.  0.
         24    2    3    3    0    0  0.56873832322E+02  0.12844595415E+02 -0.18867752224E+01  0.98622349971E+02  0.79518498217E+02 0.  0.
         -6    2    1    2    0  502 -0.22981513843E+02  0.25072961371E+02 -0.94117871745E+02  0.19836284622E+03  0.17126833218E+03 0.  0.
        -24    2    5    5    0    0  0.21547498317E+02 -0.48439448150E+02 -0.53881767342E+02  0.10334736656E+03  0.70475233248E+02 0.  0.
          5    1    3    3  501    0 -0.33892318479E+02 -0.37917556786E+02  0.10761572563E+03  0.11912037931E+03  0.47000000000E+01 0. -1.
        -11    1    4    4    0    0 -0.73903303477E+01  0.80409286413E+01  0.26153971825E+02  0.28342613822E+02  0.00000000000E+00 0.  1.
         12    1    4    4    0    0  0.64264162670E+02  0.48036667736E+01 -0.28040747047E+02  0.70279736149E+02  0.00000000000E+00 0. -1.
         -5    1    5    5    0  502 -0.44529012160E+02  0.73512409522E+02 -0.40236104404E+02  0.95015479661E+02  0.47000000000E+01 0.  1.
         13    1    6    6    0    0  0.74855429457E+01 -0.65082483200E+01  0.17068663660E+02  0.19741578674E+02  0.00000000000E+00 0. -1.
        -14    1    6    6    0    0  0.14061955371E+02 -0.41931199830E+02 -0.70950431002E+02  0.83605787882E+02  0.00000000000E+00 0.  1.
</event>
<event>
12    1  0.1594900E-001  0.2335467E+03  0.7818608E-02  0.1124374E+00
         21   -1    0    0  501  502  0.00000000000E+00  0.00000000000E+00  0.93859148365E+02  0.93859148365E+02  0.00000000000E+00 0.  1.
         21   -1    0    0  502  503 -0.00000000000E+00 -0.00000000000E+00 -0.11569293766E+04  0.11569293766E+04  0.00000000000E+00 0. -1.
         -6    2    1    2    0  503 -0.84801712466E+02  0.13191421322E+03 -0.97454691500E+03  0.10021405877E+04  0.17306466415E+03 0.  0.
        -24    2    3    3    0    0 -0.80294863613E+02  0.79171687134E+02 -0.89847376263E+03  0.90934349589E+03  0.83277069001E+02 0.  0.
          6    2    1    2  501    0  0.84801712466E+02 -0.13191421322E+03 -0.88523313281E+02  0.24864793727E+03  0.17145474513E+03 0.  0.
         24    2    5    5    0    0  0.11093938649E+03 -0.61180142480E+02 -0.87194987352E+02  0.17308113757E+03  0.79394943519E+02 0.  0.
          5    1    5    5  501    0 -0.26137674019E+02 -0.70734070739E+02 -0.13283259286E+01  0.75566799695E+02  0.47000000000E+01 0. -1.
        -11    1    6    6    0    0  0.77284120184E+02 -0.36656117715E+02 -0.10989002167E+02  0.86239575412E+02  0.00000000000E+00 0.  1.
         12    1    6    6    0    0  0.33655266302E+02 -0.24524024764E+02 -0.76205985185E+02  0.86841562161E+02  0.00000000000E+00 0. -1.
         -5    1    3    3    0  503 -0.45068488538E+01  0.52742526084E+02 -0.76073152372E+02  0.92797091852E+02  0.47000000000E+01 0.  1.
         11    1    4    4    0    0 -0.33281757067E+02  0.40707949650E+02 -0.16092353679E+03  0.16929618192E+03  0.00000000000E+00 0. -1.
        -12    1    4    4    0    0 -0.47013106545E+02  0.38463737485E+02 -0.73755022584E+03  0.74004731398E+03  0.00000000000E+00 0.  1.
</event>
<event>
12    1  0.1594900E-001  0.2499218E+03  0.7818608E-02  0.1114157E+00
         21   -1    0    0  503  502  0.00000000000E+00  0.00000000000E+00  0.97082195529E+02  0.97082195529E+02  0.00000000000E+00 0.  1.
         21   -1    0    0  501  503 -0.00000000000E+00 -0.00000000000E+00 -0.12790309910E+04  0.12790309910E+04  0.00000000000E+00 0.  1.
          6    2    1    2  501    0 -0.15435196389E+03  0.84096589165E+02 -0.10779449380E+04  0.11054145995E+04  0.17052677884E+03 0.  0.
         24    2    3    3    0    0 -0.42955699151E+02  0.78249306204E+02 -0.73530122421E+03  0.74503962377E+03  0.80299468524E+02 0.  0.
         -6    2    1    2    0  502  0.15435196389E+03 -0.84096589165E+02 -0.10400385742E+03  0.27069858700E+03  0.17766304506E+03 0.  0.
        -24    2    5    5    0    0  0.35537061655E+01 -0.43227033088E+02 -0.58108889437E+02  0.10779102661E+03  0.79756235922E+02 0.  0.
          5    1    3    3  501    0 -0.11139626474E+03  0.58472829616E+01 -0.34264371381E+03  0.36037497573E+03  0.47000000000E+01 0. -1.
        -11    1    4    4    0    0 -0.61936020912E+02  0.75085671266E+02 -0.53208157579E+03  0.54091102042E+03  0.00000000000E+00 0.  1.
         12    1    4    4    0    0  0.18980321761E+02  0.31636349381E+01 -0.20321964842E+03  0.20412860335E+03  0.00000000000E+00 0. -1.
         -5    1    5    5    0  502  0.15079825773E+03 -0.40869556077E+02 -0.45894967981E+02  0.16290756040E+03  0.47000000000E+01 0.  1.
         13    1    6    6    0    0  0.35811255438E+02 -0.40611823391E+02 -0.19825726344E+02  0.57661301063E+02  0.00000000000E+00 0. -1.
        -14    1    6    6    0    0 -0.32257549272E+02 -0.26152096969E+01 -0.38283163093E+02  0.50129725545E+02  0.00000000000E+00 0.  1.
</event>
<event>
12    1  0.1594900E-001  0.2193923E+03  0.7818608E-02  0.1136019E+00
         21   -1    0    0  501  502  0.00000000000E+00  0.00000000000E+00  0.41988191345E+03  0.41988191345E+03  0.00000000000E+00 0.  1.
         21   -1    0    0  502  503 -0.00000000000E+00 -0.00000000000E+00 -0.13229535825E+03  0.13229535825E+03  0.00000000000E+00 0. -1.
         -6    2    1    2    0  503 -0.93166686937E+02 -0.80404657835E+02  0.28238510924E+02  0.21247980363E+03  0.17089561988E+03 0.  0.
        -24    2    3    3    0    0 -0.21422506973E+02 -0.88436979438E+02  0.57718712164E+02  0.13435862972E+03  0.80254398682E+02 0.  0.
          6    2    1    2  501    0  0.93166686937E+02  0.80404657835E+02  0.25934804427E+03  0.33969746806E+03  0.18162604765E+03 0.  0.
         24    2    5    5    0    0  0.51750791616E+02  0.10291173753E+03  0.25632794144E+03  0.29223110057E+03  0.80162537537E+02 0.  0.
          5    1    5    5  501    0  0.41415895322E+02 -0.22507079696E+02  0.30201028351E+01  0.47466367492E+02  0.47000000000E+01 0. -1.
        -11    1    6    6    0    0  0.28108336251E+02  0.33144670819E+02  0.18375077268E+03  0.18882000485E+03  0.00000000000E+00 0.  1.
         12    1    6    6    0    0  0.23642455365E+02  0.69767066712E+02  0.72577168754E+02  0.10341109572E+03  0.00000000000E+00 0. -1.
         -5    1    3    3    0  503 -0.71744179964E+02  0.80323216031E+01 -0.29480201240E+02  0.78121173917E+02  0.47000000000E+01 0.  1.
         11    1    4    4    0    0 -0.18180241026E+02 -0.78383118664E+02  0.50295246013E+01  0.80620906550E+02  0.00000000000E+00 0. -1.
        -12    1    4    4    0    0 -0.32422659472E+01 -0.10053860774E+02  0.52689187562E+02  0.53737723165E+02  0.00000000000E+00 0.  1.
</event>
<event>
12    1  0.1594900E-001  0.2658491E+03  0.7818608E-02  0.1103705E+00
         21   -1    0    0  501  502  0.00000000000E+00  0.00000000000E+00  0.32996649451E+03  0.32996649451E+03  0.00000000000E+00 0. -1.
         21   -1    0    0  502  503 -0.00000000000E+00 -0.00000000000E+00 -0.25783786837E+03  0.25783786837E+03  0.00000000000E+00 0. -1.
         -6    2    1    2    0  503 -0.19524846329E+03 -0.53946761177E+02 -0.85043136405E+02  0.27912019627E+03  0.17217297539E+03 0.  0.
        -24    2    3    3    0    0 -0.48717745113E+02 -0.61723455934E+02  0.77228698714E-01  0.10941664619E+03  0.76084116600E+02 0.  0.
          6    2    1    2  501    0  0.19524846329E+03  0.53946761177E+02  0.15717176254E+03  0.30868416661E+03  0.17190327604E+03 0.  0.
         24    2    5    5    0    0  0.54922350037E+02  0.52785176366E+02  0.17282250037E+02  0.11048241826E+03  0.78134174341E+02 0.  0.
          5    1    5    5  501    0  0.14032611326E+03  0.11615848118E+01  0.13988951250E+03  0.19820174835E+03  0.47000000000E+01 0. -1.
        -13    1    6    6    0    0  0.74945582054E+02  0.45831540899E+02  0.15563537389E+02  0.89216557357E+02  0.00000000000E+00 0.  1.
         14    1    6    6    0    0 -0.20023232017E+02  0.69536354665E+01  0.17187126479E+01  0.21265860899E+02  0.00000000000E+00 0. -1.
         -5    1    3    3    0  503 -0.14653071818E+03  0.77766947562E+01 -0.85120365104E+02  0.16970355007E+03  0.47000000000E+01 0.  1.
         13    1    4    4    0    0 -0.64999633213E+02 -0.65902367562E+02 -0.10426797278E+01  0.92569765848E+02  0.00000000000E+00 0. -1.
        -14    1    4    4    0    0  0.16281888100E+02  0.41789116287E+01  0.11199084265E+01  0.16846880346E+02  0.00000000000E+00 0.  1.
</event>
<event>
12    1  0.1594900E-001  0.2333663E+03  0.7818608E-02  0.1124426E+00
         21   -1    0    0  503  502  0.00000000000E+00  0.00000000000E+00  0.18481356180E+03  0.18481356180E+03  0.00000000000E+00 0. -1.
         21   -1    0    0  501  503 -0.00000000000E+00 -0.00000000000E+00 -0.14474317604E+04  0.14474317604E+04  0.00000000000E+00 0.  1.
          6    2    1    2  501    0  0.13469737642E+03  0.83001331077E+02 -0.13601553028E+04  0.13800298123E+04  0.17154367072E+03 0.  0.
         24    2    3    3    0    0  0.14517318305E+03  0.10032211476E+03 -0.96514820338E+03  0.98447646488E+03  0.80889280085E+02 0.  0.
         -6    2    1    2    0  502 -0.13469737642E+03 -0.83001331077E+02  0.97537104271E+02  0.25221550982E+03  0.17048921524E+03 0.  0.
        -24    2    5    5    0    0 -0.10525538003E+02 -0.62799725194E+02  0.18143189026E+02  0.10337924370E+03  0.79394585999E+02 0.  0.
          5    1    3    3  501    0 -0.10475806633E+02 -0.17320783681E+02 -0.39500709944E+03  0.39555334745E+03  0.47000000000E+01 0. -1.
        -13    1    4    4    0    0  0.18634791944E+02  0.54790216438E+02 -0.35475521215E+03  0.35944468814E+03  0.00000000000E+00 0.  1.
         14    1    4    4    0    0  0.12653839110E+03  0.45531898320E+02 -0.61039299123E+03  0.62503177674E+03  0.00000000000E+00 0. -1.
         -5    1    5    5    0  502 -0.12417183841E+03 -0.20201605883E+02  0.79393915245E+02  0.14883626612E+03  0.47000000000E+01 0.  1.
         13    1    6    6    0    0  0.13840895638E+01 -0.16482262032E+02  0.45409704091E+02  0.48328272173E+02  0.00000000000E+00 0. -1.
        -14    1    6    6    0    0 -0.11909627567E+02 -0.46317463162E+02 -0.27266515065E+02  0.55050971530E+02  0.00000000000E+00 0.  1.
</event>
<event>
12    1  0.1594900E-001  0.2057872E+03  0.7818608E-02  0.1145286E+00
         21   -1    0    0  501  502  0.00000000000E+00  0.00000000000E+00  0.14883937934E+04  0.14883937934E+04  0.00000000000E+00 0. -1.
         21   -1    0    0  502  503 -0.00000000000E+00 -0.00000000000E+00 -0.30981955381E+02  0.30981955381E+02  0.00000000000E+00 0. -1.
         -6    2    1    2    0  503  0.59715258609E+01 -0.11043666308E+03  0.49930659276E+03  0.53941960605E+03  0.17156492108E+03 0.  0.
        -24    2    3    3    0    0  0.35687418604E+02 -0.12108220522E+03  0.27547474100E+03  0.31332416224E+03  0.79694450550E+02 0.  0.
          6    2    1    2  501    0 -0.59715258609E+01  0.11043666308E+03  0.95810524531E+03  0.97995614278E+03  0.17354096061E+03 0.  0.
         24    2    5    5    0    0 -0.37027276541E+02  0.96900345899E+02  0.91749193002E+03  0.92685978780E+03  0.80727494375E+02 0.  0.
          5    1    5    5  501    0  0.31055750680E+02  0.13536317177E+02  0.40613315284E+02  0.53096354973E+02  0.47000000000E+01 0. -1.
        -11    1    6    6    0    0  0.98576310572E+01 -0.28363728438E+01  0.18632295414E+02  0.21269234433E+02  0.00000000000E+00 0.  1.
         12    1    6    6    0    0 -0.46884907598E+02  0.99736718743E+02  0.89885963461E+03  0.90559055337E+03  0.00000000000E+00 0. -1.
         -5    1    3    3    0  503 -0.29715892743E+02  0.10645542141E+02  0.22383185177E+03  0.22609544382E+03  0.47000000000E+01 0.  1.
         11    1    4    4    0    0  0.79725625571E+01 -0.10556553219E+03  0.14809064459E+03  0.18203978234E+03  0.00000000000E+00 0. -1.
        -12    1    4    4    0    0  0.27714856047E+02 -0.15516673029E+02  0.12738409641E+03  0.13128437990E+03  0.00000000000E+00 0.  1.
</event>
<event>
12    1  0.1594900E-001  0.1857161E+03  0.7818608E-02  0.1162903E+00
         21   -1    0    0  503  502  0.00000000000E+00  0.00000000000E+00  0.28936685192E+03  0.28936685192E+03  0.00000000000E+00 0. -1.
         21   -1    0    0  501  503 -0.00000000000E+00 -0.00000000000E+00 -0.45561287778E+03  0.45561287778E+03  0.00000000000E+00 0. -1.
          6    2    1    2  501    0  0.44496287428E+02 -0.40376016808E+02 -0.40374808432E+03  0.44348728828E+03  0.17337334553E+03 0.  0.
         24    2    3    3    0    0  0.49850699730E+02 -0.29598514728E+02 -0.10409375193E+03  0.14355457382E+03  0.80070232515E+02 0.  0.
         -6    2    1    2    0  502 -0.44496287428E+02  0.40376016808E+02  0.23750205847E+03  0.30149244142E+03  0.17572797766E+03 0.  0.
        -24    2    5    5    0    0  0.15005453033E+01  0.72241044551E+02  0.21508205625E+03  0.24102893910E+03  0.81324279320E+02 0.  0.
          5    1    3    3  501    0 -0.53544123020E+01 -0.10777502080E+02 -0.29965433239E+03  0.29993271446E+03  0.47000000000E+01 0. -1.
        -11    1    4    4    0    0  0.62978367649E+02 -0.41686869919E+02 -0.99876716392E+02  0.12521752430E+03  0.00000000000E+00 0.  1.
         12    1    4    4    0    0 -0.13127667919E+02  0.12088355191E+02 -0.42170355414E+01  0.18337049516E+02  0.00000000000E+00 0. -1.
         -5    1    5    5    0  502 -0.45996832732E+02 -0.31865027743E+02  0.22420002214E+02  0.60463502327E+02  0.47000000000E+01 0.  1.
         13    1    6    6    0    0 -0.22031894148E+02 -0.93024588902E+01  0.47656683977E+02  0.53320724196E+02  0.00000000000E+00 0. -1.
        -14    1    6    6    0    0  0.23532439451E+02  0.81543503441E+02  0.16742537227E+03  0.18770821490E+03  0.00000000000E+00 0.  1.
</event>
<event>
12    1  0.1594900E-001  0.2182554E+03  0.7818608E-02  0.1135532E+00
         21   -1    0    0  503  502  0.00000000000E+00  0.00000000000E+00  0.16311941239E+04  0.16311941239E+04  0.00000000000E+00 0.  1.
         21   -1    0    0  501  503 -0.00000000000E+00 -0.00000000000E+00 -0.55651661945E+02  0.55651661945E+02  0.00000000000E+00 0. -1.
          6    2    1    2  501    0  0.11909865077E+03  0.57657443737E+02  0.20538556319E+03  0.29969757346E+03  0.17356997591E+03 0.  0.
         24    2    3    3    0    0  0.94174562981E+02  0.85559453738E+02  0.21366952940E+03  0.26109127332E+03  0.79528087966E+02 0.  0.
         -6    2    1    2    0  502 -0.11909865077E+03 -0.57657443737E+02  0.13701568988E+04  0.13871482124E+04  0.17129321779E+03 0.  0.
        -24    2    5    5    0    0 -0.96345754421E+02  0.27782849284E+02  0.81647023714E+03  0.82642658161E+03  0.79390525505E+02 0.  0.
          5    1    3    3  501    0  0.24924087785E+02 -0.27902010002E+02 -0.82839662088E+01  0.38606300136E+02  0.47000000000E+01 0. -1.
        -13    1    4    4    0    0  0.35037502134E+02  0.55861576473E+02  0.16857283102E+03  0.18101088818E+03  0.00000000000E+00 0.  1.
         14    1    4    4    0    0  0.59137060847E+02  0.29697877265E+02  0.45096698374E+02  0.80080385138E+02  0.00000000000E+00 0. -1.
         -5    1    5    5    0  502 -0.22752896345E+02 -0.85440293021E+02  0.55368666165E+03  0.56072163081E+03  0.47000000000E+01 0.  1.
         11    1    6    6    0    0  0.45374553960E+01  0.17986955781E+02  0.50883035458E+02  0.54159047048E+02  0.00000000000E+00 0. -1.
        -12    1    6    6    0    0 -0.10088320982E+03  0.97958935027E+01  0.76558720168E+03  0.77226753456E+03  0.00000000000E+00 0.  1.
</event>
<event>
12    1  0.1594900E-001  0.2261722E+03  0.7818608E-02  0.1129497E+00
         21   -1    0    0  503  502  0.00000000000E+00  0.00000000000E+00  0.50501935912E+03  0.50501935912E+03  0.00000000000E+00 0.  1.
         21   -1    0    0  501  503 -0.00000000000E+00 -0.00000000000E+00 -0.11858302022E+03  0.11858302022E+03  0.00000000000E+00 0. -1.
          6    2    1    2  501    0  0.85949257298E+00 -0.14690288974E+03  0.73286284791E+02  0.23774932946E+03  0.17196705026E+03 0.  0.
         24    2    3    3    0    0  0.66883300149E+02 -0.93638840581E+02  0.36321506254E+02  0.14509574371E+03  0.80572419109E+02 0.  0.
         -6    2    1    2    0  502 -0.85949257298E+00  0.14690288974E+03  0.31315005412E+03  0.38585304988E+03  0.17099246174E+03 0.  0.
        -24    2    5    5    0    0  0.57887698811E+02  0.13065555958E+03  0.21087753449E+03  0.26670202596E+03  0.78985917558E+02 0.  0.
          5    1    3    3  501    0 -0.66023807576E+02 -0.53264049159E+02  0.36964778537E+02  0.92653585748E+02  0.47000000000E+01 0. -1.
        -11    1    4    4    0    0  0.45684901735E+02 -0.26497047109E+02  0.50726775879E+02  0.73228474947E+02  0.00000000000E+00 0.  1.
         12    1    4    4    0    0  0.21198398414E+02 -0.67141793472E+02 -0.14405269625E+02  0.71867268760E+02  0.00000000000E+00 0. -1.
         -5    1    5    5    0  502 -0.58747191384E+02  0.16247330158E+02  0.10227251962E+03  0.11915102393E+03  0.47000000000E+01 0.  1.
         11    1    6    6    0    0  0.69089562532E+02  0.73226031165E+02  0.16065135322E+03  0.18958975865E+03  0.00000000000E+00 0. -1.
        -12    1    6    6    0    0 -0.11201863720E+02  0.57429528416E+02  0.50226181271E+02  0.77112267312E+02  0.00000000000E+00 0.  1.
</event>
<event>
12    1  0.1594900E-001  0.1825186E+03  0.7818608E-02  0.1165764E+00
         21   -1    0    0  503  502  0.00000000000E+00  0.00000000000E+00  0.92028814153E+02  0.92028814153E+02  0.00000000000E+00 0. -1.
         21   -1    0    0  501  503 -0.00000000000E+00 -0.00000000000E+00 -0.61607185197E+03  0.61607185197E+03  0.00000000000E+00 0. -1.
          6    2    1    2  501    0  0.14141308334E+02 -0.52659673923E+02 -0.49144607066E+03  0.52424447242E+03  0.17418383574E+03 0.  0.
         24    2    3    3    0    0 -0.53408665198E+02 -0.29941007111E+02 -0.20070744907E+03  0.22486148554E+03  0.80810012638E+02 0.  0.
         -6    2    1    2    0  502 -0.14141308334E+02  0.52659673923E+02 -0.32596967154E+02  0.18385619371E+03  0.17253266310E+03 0.  0.
        -24    2    5    5    0    0 -0.50495320495E+02 -0.11695162825E+02 -0.48998463095E+02  0.10799936618E+03  0.81095372766E+02 0.  0.
          5    1    3    3  501    0  0.67549973533E+02 -0.22718666812E+02 -0.29073862160E+03  0.29938298688E+03  0.47000000000E+01 0. -1.
        -11    1    4    4    0    0  0.43536170524E+01 -0.35622471388E+02 -0.12133956823E+03  0.12653539137E+03  0.00000000000E+00 0.  1.
         12    1    4    4    0    0 -0.57762282251E+02  0.56814642765E+01 -0.79367880833E+02  0.98326094172E+02  0.00000000000E+00 0. -1.
         -5    1    5    5    0  502  0.36354012161E+02  0.64354836749E+02  0.16401495940E+02  0.75856827526E+02  0.47000000000E+01 0.  1.
         11    1    6    6    0    0 -0.28847448872E+02 -0.35519007241E+02  0.40622395342E+01  0.45937751054E+02  0.00000000000E+00 0. -1.
        -12    1    6    6    0    0 -0.21647871623E+02  0.23823844416E+02 -0.53060702629E+02  0.62061615126E+02  0.00000000000E+00 0.  1.
</event>
<event>
12    1  0.1594900E-001  0.2806942E+03  0.7818608E-02  0.1095430E+00
         21   -1    0    0  501  502  0.00000000000E+00  0.00000000000E+00  0.87540886212E+03  0.87540886212E+03  0.00000000000E+00 0.  1.
         21   -1    0    0  502  503 -0.00000000000E+00 -0.00000000000E+00 -0.95175603108E+02  0.95175603108E+02  0.00000000000E+00 0. -1.
         -6    2    1    2    0  503  0.14225476002E+03 -0.16978081195E+03  0.27452935234E+03  0.39262654262E+03  0.17241605442E+03 0.  0.
        -24    2    3    3    0    0  0.90108208185E+02 -0.18898212343E+03  0.20690118394E+03  0.30497032554E+03  0.79781372445E+02 0.  0.
          6    2    1    2  501    0 -0.14225476002E+03  0.16978081195E+03  0.50570390667E+03  0.57795792261E+03  0.17098824002E+03 0.  0.
         24    2    5    5    0    0 -0.12867930816E+03  0.53303290171E+02  0.25763350248E+03  0.30352701799E+03  0.79712131817E+02 0.  0.
          5    1    5    5  501    0 -0.13575451860E+02  0.11647752178E+03  0.24807040420E+03  0.27443090462E+03  0.47000000000E+01 0. -1.
        -11    1    6    6    0    0 -0.31250165678E+02  0.47132133023E+02  0.13785800409E+03  0.14900617474E+03  0.00000000000E+00 0.  1.
         12    1    6    6    0    0 -0.97429142478E+02  0.61711571484E+01  0.11977549839E+03  0.15452084325E+03  0.00000000000E+00 0. -1.
         -5    1    3    3    0  503  0.52146551831E+02  0.19201311485E+02  0.67628168402E+02  0.87656217075E+02  0.47000000000E+01 0.  1.
         13    1    4    4    0    0  0.65923574121E+02 -0.70779236893E+02  0.12946336667E+03  0.16160563514E+03  0.00000000000E+00 0. -1.
        -14    1    4    4    0    0  0.24184634064E+02 -0.11820288654E+03  0.77437817262E+02  0.14336469040E+03  0.00000000000E+00 0.  1.
</event>
<event>
12    1  0.1594900E-001  0.1979039E+03  0.7818608E-02  0.1152757E+00
         21   -1    0    0  503  502  0.00000000000E+00  0.00000000000E+00  0.13496229210E+04  0.13496229210E+04  0.00000000000E+00 0.  1.
         21   -1    0    0  501  503 -0.00000000000E+00 -0.00000000000E+00 -0.62764460706E+02  0.62764460706E+02  0.00000000000E+00 0. -1.
          6    2    1    2  501    0  0.55473636461E+02  0.67883707163E+02  0.11510492149E+03  0.22403882608E+03  0.17105183600E+03 0.  0.
         24    2    3    3    0    0  0.16709493042E+02  0.15136786293E+02  0.13042269487E+03  0.15664727870E+03  0.83785208313E+02 0.  0.
         -6    2    1    2    0  502 -0.55473636461E+02 -0.67883707163E+02  0.11717535388E+04  0.11883485557E+04  0.17742720174E+03 0.  0.
        -24    2    5    5    0    0 -0.38846727942E+00  0.10195121876E+02  0.26382753263E+03  0.27539598177E+03  0.78319144457E+02 0.  0.
          5    1    3    3  501    0  0.38764143418E+02  0.52746920870E+02 -0.15317773380E+02  0.67391547374E+02  0.47000000000E+01 0. -1.
        -13    1    4    4    0    0  0.29204918840E+01  0.42382258969E+02  0.30863414965E+02  0.52510337377E+02  0.00000000000E+00 0.  1.
         14    1    4    4    0    0  0.13789001158E+02 -0.27245472676E+02  0.99559279903E+02  0.10413694133E+03  0.00000000000E+00 0. -1.
         -5    1    5    5    0  502 -0.55085169181E+02 -0.78078829039E+02  0.90792600622E+03  0.91295257390E+03  0.47000000000E+01 0.  1.
         13    1    6    6    0    0 -0.12893025396E+02 -0.55871234097E+00  0.20114425977E+01  0.13060940420E+02  0.00000000000E+00 0. -1.
        -14    1    6    6    0    0  0.12504558116E+02  0.10753834217E+02  0.26181609003E+03  0.26233504135E+03  0.00000000000E+00 0.  1.
</event>
<event>
12    1  0.1594900E-001  0.2380099E+03  0.7818608E-02  0.1121258E+00
         21   -1    0    0  501  502  0.00000000000E+00  0.00000000000E+00  0.33523977310E+03  0.33523977310E+03  0.00000000000E+00 0. -1.
         21   -1    0    0  502  503 -0.00000000000E+00 -0.00000000000E+00 -0.16842561119E+03  0.16842561119E+03  0.00000000000E+00 0.  1.
         -6    2    1    2    0  503 -0.31398025365E+02  0.16079447297E+03  0.84491151378E+02  0.25256180469E+03  0.17264996956E+03 0.  0.
        -24    2    3    3    0    0 -0.37466461882E+02  0.10858266782E+03 -0.14320897866E+02  0.14054033534E+03  0.79702987550E+02 0.  0.
          6    2    1    2  501    0  0.31398025365E+02 -0.16079447297E+03  0.82323010532E+02  0.25110357961E+03  0.17156698720E+03 0.  0.
         24    2    5    5    0    0  0.60329209154E+02 -0.42223621954E+02  0.59618124623E+02  0.12687128932E+03  0.84377458738E+02 0.  0.
          5    1    5    5  501    0 -0.28931183789E+02 -0.11857085102E+03  0.22704885909E+02  0.12423229029E+03  0.47000000000E+01 0. -1.
        -13    1    6    6    0    0  0.80289315845E+01 -0.86389915839E+00 -0.20854827584E+02  0.22363673618E+02  0.00000000000E+00 0.  1.
         14    1    6    6    0    0  0.52300277569E+02 -0.41359722796E+02  0.80472952207E+02  0.10450761571E+03  0.00000000000E+00 0. -1.
         -5    1    3    3    0  503  0.60684365167E+01  0.52211805151E+02  0.98812049244E+02  0.11202146935E+03  0.47000000000E+01 0.  1.
         11    1    4    4    0    0 -0.28739486776E+01  0.54333541474E+01 -0.29998044644E+02  0.30621293257E+02  0.00000000000E+00 0. -1.
        -12    1    4    4    0    0 -0.34592513204E+02  0.10314931367E+03  0.15677146778E+02  0.10991904208E+03  0.00000000000E+00 0.  1.
</event>
<event>
12    1  0.1594900E-001  0.1730294E+03  0.7818608E-02  0.1174859E+00
         21   -1    0    0  501  502  0.00000000000E+00  0.00000000000E+00  0.10404071503E+04  0.10404071503E+04  0.00000000000E+00 0.  1.
         21   -1    0    0  502  503 -0.00000000000E+00 -0.00000000000E+00 -0.70636329431E+02  0.70636329431E+02  0.00000000000E+00 0.  1.
         -6    2    1    2    0  503  0.49203740545E+01 -0.13519858428E+02  0.57091496070E+02  0.18220486178E+03  0.17243020641E+03 0.  0.
        -24    2    3    3    0    0  0.92690746520E+01  0.59309255902E+02  0.25411837557E+02  0.10252624574E+03  0.79135112291E+02 0.  0.
          6    2    1    2  501    0 -0.49203740545E+01  0.13519858428E+02  0.91267932478E+03  0.92883861793E+03  0.17190297153E+03 0.  0.
         24    2    5    5    0    0 -0.70801188523E+02 -0.24107611868E+01  0.55465839365E+03  0.56442793822E+03  0.76904770555E+02 0.  0.
          5    1    5    5  501    0  0.65880814468E+02  0.15930619615E+02  0.35802093113E+03  0.36441067971E+03  0.47000000000E+01 0. -1.
        -13    1    6    6    0    0 -0.24134185393E+02  0.25804581594E+02  0.37537458527E+03  0.37703370486E+03  0.00000000000E+00 0.  1.
         14    1    6    6    0    0 -0.46667003130E+02 -0.28215342780E+02  0.17928380838E+03  0.18739423336E+03  0.00000000000E+00 0. -1.
         -5    1    3    3    0  503 -0.43487005976E+01 -0.72829114330E+02  0.31679658514E+02  0.79678616043E+02  0.47000000000E+01 0.  1.
         13    1    4    4    0    0 -0.29948423736E+02  0.57691713265E+01  0.18807274593E+02  0.35831620110E+02  0.00000000000E+00 0. -1.
        -14    1    4    4    0    0  0.39217498389E+02  0.53540084575E+02  0.66045629634E+01  0.66694625632E+02  0.00000000000E+00 0.  1.
</event>
<event>
12    1  0.1594900E-001  0.2004046E+03  0.7818608E-02  0.1151297E+00
         21   -1    0    0  503  502  0.00000000000E+00  0.00000000000E+00  0.81835466150E+02  0.81835466150E+02  0.00000000000E+00 0. -1.
         21   -1    0    0  501  503 -0.00000000000E+00 -0.00000000000E+00 -0.53632546252E+03  0.53632546252E+03  0.00000000000E+00 0.  1.
          6    2    1    2  501    0 -0.27921786320E+01 -0.77101548882E+02 -0.34085452698E+03  0.39540333331E+03  0.18495821779E+03 0.  0.
         24    2    3    3    0    0 -0.14689139425E+02  0.40527044430E+01 -0.52803212587E+02  0.95865021517E+02  0.78547615245E+02 0.  0.
         -6    2    1    2    0  502  0.27921786320E+01  0.77101548882E+02 -0.11363546939E+03  0.22275759536E+03  0.17537240742E+03 0.  0.
        -24    2    5    5    0    0  0.29498971103E+01  0.39664069869E+02  0.13015894780E+02  0.90605229674E+02  0.80361394935E+02 0.  0.
          5    1    3    3  501    0  0.11896960793E+02 -0.81154253325E+02 -0.28805131439E+03  0.29953831179E+03  0.47000000000E+01 0. -1.
        -13    1    4    4    0    0  0.25139573139E+02 -0.20652122318E+02 -0.15901603075E+02  0.36212833004E+02  0.00000000000E+00 0.  1.
         14    1    4    4    0    0 -0.39828712564E+02  0.24704826761E+02 -0.36901609512E+02  0.59652188513E+02  0.00000000000E+00 0. -1.
         -5    1    5    5    0  502 -0.15771847830E+00  0.37437479013E+02 -0.12665136417E+03  0.13215236569E+03  0.47000000000E+01 0.  1.
         13    1    6    6    0    0 -0.18357563243E+02  0.58394791008E+02  0.10705731478E+02  0.62141487201E+02  0.00000000000E+00 0. -1.
        -14    1    6    6    0    0  0.21307460353E+02 -0.18730721139E+02  0.23101633016E+01  0.28463742473E+02  0.00000000000E+00 0.  1.
</event>
<event>
12    1  0.1594900E-001  0.1810851E+03  0.7818608E-02  0.1167011E+00
         21   -1    0    0  503  502  0.00000000000E+00  0.00000000000E+00  0.21127386186E+04  0.21127386186E+04  0.00000000000E+00 0.  1.
         21   -1    0    0  501  503 -0.00000000000E+00 -0.00000000000E+00 -0.16664397890E+03  0.16664397890E+03  0.00000000000E+00 0.  1.
          6    2    1    2  501    0  0.50822497013E+02 -0.15487528344E+02 -0.11233290890E+03  0.21309740206E+03  0.17311565673E+03 0.  0.
         24    2    3    3    0    0  0.48123347990E+02  0.57835697557E+02 -0.89411449895E+02  0.13608399969E+03  0.69739680709E+02 0.  0.
         -6    2    1    2    0  502 -0.50822497013E+02  0.15487528344E+02  0.20584275486E+04  0.20662851955E+04  0.17201089021E+03 0.  0.
        -24    2    5    5    0    0 -0.54221975090E+02 -0.51180589496E+02  0.10916604354E+04  0.10972047367E+04  0.81094097591E+02 0.  0.
          5    1    3    3  501    0  0.26991490230E+01 -0.73323225901E+02 -0.22921459006E+02  0.77013402372E+02  0.47000000000E+01 0. -1.
        -13    1    4    4    0    0 -0.62546663596E+01 -0.12280686286E+02 -0.13850815870E+02  0.19539222277E+02  0.00000000000E+00 0.  1.
         14    1    4    4    0    0  0.54378014349E+02  0.70116383843E+02 -0.75560634025E+02  0.11654477741E+03  0.00000000000E+00 0. -1.
         -5    1    5    5    0  502  0.33994780776E+01  0.66668117840E+02  0.96676711325E+03  0.96908045881E+03  0.47000000000E+01 0.  1.
         13    1    6    6    0    0 -0.27176340012E+02  0.74804782272E+01  0.11475717875E+03  0.11816818982E+03  0.00000000000E+00 0. -1.
        -14    1    6    6    0    0 -0.27045635078E+02 -0.58661067723E+02  0.97690325664E+03  0.97903654686E+03  0.00000000000E+00 0.  1.
</event>
<event>
12    1  0.1594900E-001  0.2398132E+03  0.7818608E-02  0.1120022E+00
         21   -1    0    0  501  502  0.00000000000E+00  0.00000000000E+00  0.11608634042E+04  0.11608634042E+04  0.00000000000E+00 0.  1.
         21   -1    0    0  502  503 -0.00000000000E+00 -0.00000000000E+00 -0.66681103963E+02  0.66681103963E+02  0.00000000000E+00 0.  1.
         -6    2    1    2    0  503 -0.11775134156E+03 -0.11839730236E+03  0.23527032146E+03  0.33595015723E+03  0.17212519961E+03 0.  0.
        -24    2    3    3    0    0 -0.37720760631E+02 -0.12956284256E+03  0.17439342246E+03  0.23467009995E+03  0.80296974155E+02 0.  0.
          6    2    1    2  501    0  0.11775134156E+03  0.11839730236E+03  0.85891197874E+03  0.89159435089E+03  0.17125244427E+03 0.  0.
         24    2    5    5    0    0  0.12714325860E+03  0.46872239770E+02  0.46157659676E+03  0.48773603605E+03  0.80442968154E+02 0.  0.
          5    1    5    5  501    0 -0.93919170368E+01  0.71525062586E+02  0.39733538199E+03  0.40385831484E+03  0.47000000000E+01 0. -1.
        -11    1    6    6    0    0  0.92147160966E+02  0.65020253911E+02  0.27859366090E+03  0.30055475472E+03  0.00000000000E+00 0.  1.
         12    1    6    6    0    0  0.34996097636E+02 -0.18148014141E+02  0.18298293586E+03  0.18718128133E+03  0.00000000000E+00 0. -1.
         -5    1    3    3    0  503 -0.80030580933E+02  0.11165540202E+02  0.60876899000E+02  0.10128005729E+03  0.47000000000E+01 0.  1.
         13    1    4    4    0    0  0.21620114130E+02 -0.33911620149E+02  0.24058226454E+02  0.46863904833E+02  0.00000000000E+00 0. -1.
        -14    1    4    4    0    0 -0.59340874761E+02 -0.95651222408E+02  0.15033519600E+03  0.18780619511E+03  0.00000000000E+00 0.  1.
</event>
<event>
12    1  0.1594900E-001  0.2093797E+03  0.7818608E-02  0.1142540E+00
         21   -1    0    0  501  502  0.00000000000E+00  0.00000000000E+00  0.51860478789E+02  0.51860478789E+02  0.00000000000E+00 0.  1.
         21   -1    0    0  502  503 -0.00000000000E+00 -0.00000000000E+00 -0.10287219349E+04  0.10287219349E+04  0.00000000000E+00 0.  1.
         -6    2    1    2    0  503 -0.94697185697E+02  0.66264295320E+02 -0.72020526807E+03  0.74935402902E+03  0.17168960024E+03 0.  0.
        -24    2    3    3    0    0 -0.43998759310E+02  0.47871958851E+02 -0.25351823774E+03  0.27953759384E+03  0.98194471533E+02 0.  0.
          6    2    1    2  501    0  0.94697185697E+02 -0.66264295320E+02 -0.25665618808E+03  0.33122838471E+03  0.17458903215E+03 0.  0.
         24    2    5    5    0    0  0.55853504551E+02 -0.57758581098E+02 -0.26354580695E+03  0.29059913924E+03  0.92389391739E+02 0.  0.
          5    1    5    5  501    0  0.38843681146E+02 -0.85057142223E+01  0.68896188705E+01  0.40629245472E+02  0.47000000000E+01 0. -1.
        -13    1    6    6    0    0  0.42370152343E+02 -0.56949394584E+02 -0.81600648486E+02  0.10815326711E+03  0.00000000000E+00 0.  1.
         14    1    6    6    0    0  0.13483352208E+02 -0.80918651448E+00 -0.18194515847E+03  0.18244587213E+03  0.00000000000E+00 0. -1.
         -5    1    3    3    0  503 -0.50698426387E+02  0.18392336469E+02 -0.46668703033E+03  0.46981643517E+03  0.47000000000E+01 0.  1.
         13    1    4    4    0    0 -0.38527151514E+01 -0.29501970090E+02 -0.50782715129E+02  0.58856552813E+02  0.00000000000E+00 0. -1.
        -14    1    4    4    0    0 -0.40146044158E+02  0.77373928942E+02 -0.20273552261E+03  0.22068104103E+03  0.00000000000E+00 0.  1.
</event>
<event>
12    1  0.1594900E-001  0.1849433E+03  0.7818608E-02  0.1163188E+00
         21   -1    0    0  501  502  0.00000000000E+00  0.00000000000E+00  0.56555302311E+02  0.56555302311E+02  0.00000000000E+00 0.  1.
         21   -1    0    0  502  503 -0.00000000000E+00 -0.00000000000E+00 -0.63947775385E+03  0.63947775385E+03  0.00000000000E+00 0. -1.
         -6    2    1    2    0  503  0.38864740187E+02 -0.57325866955E+02 -0.37362617473E+03  0.41673219744E+03  0.17109203046E+03 0.  0.
        -24    2    3    3    0    0 -0.25924611110E+02 -0.67372866908E+02 -0.19564779304E+03  0.22700345266E+03  0.89673407085E+02 0.  0.
          6    2    1    2  501    0 -0.38864740187E+02  0.57325866955E+02 -0.20929627681E+03  0.27930085872E+03  0.17148561206E+03 0.  0.
         24    2    5    5    0    0 -0.10466749277E+02  0.98974897163E+02 -0.18173617259E+03  0.22165767222E+03  0.78730579313E+02 0.  0.
          5    1    5    5  501    0 -0.28397990910E+02 -0.41649030208E+02 -0.27560104220E+02  0.57643186498E+02  0.47000000000E+01 0. -1.
        -11    1    6    6    0    0 -0.39910748477E+02  0.60223147342E+02 -0.73904710913E+02  0.10335183412E+03  0.00000000000E+00 0.  1.
         12    1    6    6    0    0  0.29443999200E+02  0.38751749821E+02 -0.10783146168E+03  0.11830583811E+03  0.00000000000E+00 0. -1.
         -5    1    3    3    0  503  0.64789351297E+02  0.10046999953E+02 -0.17797838168E+03  0.18972874478E+03  0.47000000000E+01 0.  1.
         11    1    4    4    0    0  0.29813350405E+01 -0.46158080719E+02 -0.18335495214E+03  0.18909916776E+03  0.00000000000E+00 0. -1.
        -12    1    4    4    0    0 -0.28905946150E+02 -0.21214786189E+02 -0.12292840906E+02  0.37904284895E+02  0.00000000000E+00 0.  1.
</event>
<event>
12    1  0.1594900E-001  0.1922337E+03  0.7818608E-02  0.1156648E+00
         21   -1    0    0  501  502  0.00000000000E+00  0.00000000000E+00  0.10413531876E+03  0.10413531876E+03  0.00000000000E+00 0.  1.
         21   -1    0    0  502  503 -0.00000000000E+00 -0.00000000000E+00 -0.38996277538E+03  0.38996277538E+03  0.00000000000E+00 0.  1.
         -6    2    1    2    0  503  0.65203627858E+02  0.56873390914E+02 -0.21835562264E+03  0.29036732346E+03  0.17072758687E+03 0.  0.
        -24    2    3    3    0    0  0.49570164942E+01 -0.14241782254E+02 -0.16039083300E+03  0.18050819151E+03  0.81428419595E+02 0.  0.
          6    2    1    2  501    0 -0.65203627858E+02 -0.56873390914E+02 -0.67471833976E+02  0.20373077068E+03  0.17166153576E+03 0.  0.
         24    2    5    5    0    0  0.28104201379E+02 -0.41090857630E+02 -0.53962149102E+02  0.10802266789E+03  0.79238112837E+02 0.  0.
          5    1    5    5  501    0 -0.93307829237E+02 -0.15782533284E+02 -0.13509684875E+02  0.95708102788E+02  0.47000000000E+01 0. -1.
        -13    1    6    6    0    0 -0.18351817997E+02  0.90331036216E+01  0.76540741833E+00  0.20468806349E+02  0.00000000000E+00 0.  1.
         14    1    6    6    0    0  0.46456019376E+02 -0.50123961251E+02 -0.54727556520E+02  0.87553861539E+02  0.00000000000E+00 0. -1.
         -5    1    3    3    0  503  0.60246611364E+02  0.71115173167E+02 -0.57964789641E+02  0.10985913195E+03  0.47000000000E+01 0.  1.
         13    1    4    4    0    0 -0.10673887366E+02  0.12744247119E+02  0.49164055168E+00  0.16630977619E+02  0.00000000000E+00 0. -1.
        -14    1    4    4    0    0  0.15630903860E+02 -0.26986029372E+02 -0.16088247355E+03  0.16387721389E+03  0.00000000000E+00 0.  1.
</event>
<event>
12    1  0.1594900E-001  0.1922130E+03  0.7818608E-02  0.1156512E+00
         21   -1    0    0  503  502  0.00000000000E+00  0.00000000000E+00  0.16406898387E+03  0.16406898387E+03  0.00000000000E+00 0.  1.
         21   -1    0    0  501  503 -0.00000000000E+00 -0.00000000000E+00 -0.22756927100E+03  0.22756927100E+03  0.00000000000E+00 0.  1.
          6    2    1    2  501    0 -0.83584893012E+02 -0.18205856626E+02 -0.10995448682E+02  0.19238312260E+03  0.17196650376E+03 0.  0.
         24    2    3    3    0    0 -0.55057556663E+02 -0.53057713584E+02 -0.59377547110E+02  0.12611564716E+03  0.80827024205E+02 0.  0.
         -6    2    1    2    0  502  0.83584893012E+02  0.18205856626E+02 -0.52504838449E+02  0.19925513227E+03  0.17212774942E+03 0.  0.
        -24    2    5    5    0    0  0.12448744276E+03  0.28823829235E+02 -0.46671530137E+02  0.15633803307E+03  0.77041627192E+02 0.  0.
          5    1    3    3  501    0 -0.28527336349E+02  0.34851856958E+02  0.48382098428E+02  0.66267475437E+02  0.47000000000E+01 0. -1.
        -11    1    4    4    0    0 -0.53430153599E+02  0.27662769842E+01 -0.17431385894E+02  0.56269768225E+02  0.00000000000E+00 0.  1.
         12    1    4    4    0    0 -0.16274030647E+01 -0.55823990568E+02 -0.41946161216E+02  0.69845878937E+02  0.00000000000E+00 0. -1.
         -5    1    5    5    0  502 -0.40902549751E+02 -0.10617972609E+02 -0.58333083121E+01  0.42917099207E+02  0.47000000000E+01 0.  1.
         11    1    6    6    0    0  0.44854777062E+02  0.47849234958E+02 -0.32681856874E+02  0.73277582385E+02  0.00000000000E+00 0. -1.
        -12    1    6    6    0    0  0.79632665701E+02 -0.19025405723E+02 -0.13989673263E+02  0.83060450682E+02  0.00000000000E+00 0.  1.
</event>
<event>
12    1  0.1594900E-001  0.1793577E+03  0.7818608E-02  0.1168498E+00
         21   -1    0    0  503  502  0.00000000000E+00  0.00000000000E+00  0.63776453635E+03  0.63776453635E+03  0.00000000000E+00 0. -1.
         21   -1    0    0  501  503 -0.00000000000E+00 -0.00000000000E+00 -0.77327269170E+02  0.77327269170E+02  0.00000000000E+00 0. -1.
          6    2    1    2  501    0  0.28805395354E+01 -0.50317662087E+02  0.69211829587E+02  0.19224847638E+03  0.17213086501E+03 0.  0.
         24    2    3    3    0    0  0.29239936309E+01  0.81605714568E+01  0.98715021117E+02  0.12658087404E+03  0.78758603426E+02 0.  0.
         -6    2    1    2    0  502 -0.28805395354E+01  0.50317662087E+02  0.49122543759E+03  0.52284332914E+03  0.17182127825E+03 0.  0.
        -24    2    5    5    0    0  0.30214302775E+02  0.91741280505E+02  0.35184451785E+03  0.37364441648E+03  0.80537063417E+02 0.  0.
          5    1    3    3  501    0 -0.43454095543E-01 -0.58478233543E+02 -0.29503191530E+02  0.65667602340E+02  0.47000000000E+01 0. -1.
        -11    1    4    4    0    0  0.34918816607E+02 -0.14545518992E+02  0.63227310828E+02  0.73678957040E+02  0.00000000000E+00 0.  1.
         12    1    4    4    0    0 -0.31994822976E+02  0.22706090449E+02  0.35487710289E+02  0.52901917001E+02  0.00000000000E+00 0. -1.
         -5    1    5    5    0  502 -0.33094842310E+02 -0.41423618418E+02  0.13938091974E+03  0.14919891266E+03  0.47000000000E+01 0.  1.
         13    1    6    6    0    0 -0.22447331065E+02  0.33806776036E+01  0.55919600306E+02  0.60351581184E+02  0.00000000000E+00 0. -1.
        -14    1    6    6    0    0  0.52661633840E+02  0.88360602901E+02  0.29592491754E+03  0.31329283530E+03  0.00000000000E+00 0.  1.
</event>
<event>
12    1  0.1594900E-001  0.2523437E+03  0.7818608E-02  0.1112005E+00
         21   -1    0    0  503  502  0.00000000000E+00  0.00000000000E+00  0.32537710363E+03  0.32537710363E+03  0.00000000000E+00 0.  1.
         21   -1    0    0  501  503 -0.00000000000E+00 -0.00000000000E+00 -0.19521584557E+03  0.19521584557E+03  0.00000000000E+00 0.  1.
          6    2    1    2  501    0 -0.18244814391E+03 -0.30000430936E+02  0.53671259969E+02  0.25691122436E+03  0.17010415040E+03 0.  0.
         24    2    3    3    0    0 -0.42245613653E+02 -0.82701345385E+01  0.47200383883E+02  0.11480943862E+03  0.95395198828E+02 0.  0.
         -6    2    1    2    0  502  0.18244814391E+03  0.30000430936E+02  0.76489998095E+02  0.26368172483E+03  0.17172647183E+03 0.  0.
        -24    2    5    5    0    0  0.55184646466E+02 -0.40761463676E+02  0.15284989286E+02  0.10565835120E+03  0.78887351037E+02 0.  0.
          5    1    3    3  501    0 -0.14020253026E+03 -0.21730296398E+02  0.64708760854E+01  0.14210178574E+03  0.47000000000E+01 0. -1.
        -13    1    4    4    0    0 -0.30838634483E+02  0.11809896619E+02 -0.23436003961E+02  0.40493719471E+02  0.00000000000E+00 0.  1.
         14    1    4    4    0    0 -0.11406979170E+02 -0.20080031158E+02  0.70636387844E+02  0.74315719150E+02  0.00000000000E+00 0. -1.
         -5    1    5    5    0  502  0.12726349745E+03  0.70761894612E+02  0.61205008809E+02  0.15802337364E+03  0.47000000000E+01 0.  1.
         13    1    6    6    0    0 -0.62899562660E+01 -0.11404391260E+02 -0.23790847029E+02  0.27122464714E+02  0.00000000000E+00 0. -1.
        -14    1    6    6    0    0  0.61474602733E+02 -0.29357072416E+02  0.39075836315E+02  0.78535886483E+02  0.00000000000E+00 0.  1.
</event>
<event>
12    1  0.1594900E-001  0.2338685E+03  0.7818608E-02  0.1123953E+00
         21   -1    0    0  501  502  0.00000000000E+00  0.00000000000E+00  0.51928644417E+03  0.51928644417E+03  0.00000000000E+00 0. -1.
         21   -1    0    0  502  503 -0.00000000000E+00 -0.00000000000E+00 -0.16217338096E+03  0.16217338096E+03  0.00000000000E+00 0.  1.
         -6    2    1    2    0  503 -0.10802705634E+03 -0.11543157633E+03 -0.23196888946E+02  0.23501610679E+03  0.17233740477E+03 0.  0.
        -24    2    3    3    0    0 -0.31573686485E+02 -0.21209222710E+02  0.41058343463E+02  0.97634177216E+02  0.79999476163E+02 0.  0.
          6    2    1    2  501    0  0.10802705634E+03  0.11543157633E+03  0.38030995215E+03  0.44644371833E+03  0.17228476490E+03 0.  0.
         24    2    5    5    0    0  0.55595002950E+02  0.14150231185E+03  0.24841360840E+03  0.30205694966E+03  0.80096013532E+02 0.  0.
          5    1    5    5  501    0  0.52432053386E+02 -0.26070735525E+02  0.13189634375E+03  0.14438676867E+03  0.47000000000E+01 0. -1.
        -11    1    6    6    0    0 -0.32781670482E+01  0.49964520518E+02  0.30913039372E+02  0.58845693921E+02  0.00000000000E+00 0.  1.
         12    1    6    6    0    0  0.58873169999E+02  0.91537791335E+02  0.21750056903E+03  0.24321125574E+03  0.00000000000E+00 0. -1.
         -5    1    3    3    0  503 -0.76453369851E+02 -0.94222353618E+02 -0.64255232409E+02  0.13738192958E+03  0.47000000000E+01 0.  1.
         13    1    4    4    0    0 -0.23258391459E+02 -0.46579122056E+02  0.47161112109E+02  0.70247689501E+02  0.00000000000E+00 0. -1.
        -14    1    4    4    0    0 -0.83152950258E+01  0.25369899346E+02 -0.61027686463E+01  0.27386487715E+02  0.00000000000E+00 0.  1.
</event>
<event>
12    1  0.1594900E-001  0.2281819E+03  0.7818608E-02  0.1128328E+00
         21   -1    0    0  501  502  0.00000000000E+00  0.00000000000E+00  0.54331298932E+03  0.54331298932E+03  0.00000000000E+00 0. -1.
         21   -1    0    0  502  503 -0.00000000000E+00 -0.00000000000E+00 -0.15499933929E+03  0.15499933929E+03  0.00000000000E+00 0. -1.
         -6    2    1    2    0  503 -0.72130489867E+02  0.12651866704E+03 -0.23866043761E+02  0.22718699377E+03  0.17272684047E+03 0.  0.
        -24    2    3    3    0    0 -0.68489481144E+02  0.87051733745E+02 -0.82885944950E+02  0.15593859376E+03  0.71957986203E+02 0.  0.
          6    2    1    2  501    0  0.72130489867E+02 -0.12651866704E+03  0.41217969378E+03  0.47112533484E+03  0.17566217715E+03 0.  0.
         24    2    5    5    0    0  0.14725187331E+02 -0.14192186850E+03  0.33424932252E+03  0.37300367495E+03  0.83967160341E+02 0.  0.
          5    1    5    5  501    0  0.57405302536E+02  0.15403201467E+02  0.77930371261E+02  0.98121659890E+02  0.47000000000E+01 0. -1.
        -13    1    6    6    0    0 -0.19097013743E+02 -0.53038821783E+02  0.58168549376E+02  0.81002423955E+02  0.00000000000E+00 0.  1.
         14    1    6    6    0    0  0.33822201074E+02 -0.88883046722E+02  0.27608077315E+03  0.29200125099E+03  0.00000000000E+00 0. -1.
         -5    1    3    3    0  503 -0.36410087231E+01  0.39466933293E+02  0.59019901189E+02  0.71248400013E+02  0.47000000000E+01 0.  1.
         13    1    4    4    0    0 -0.31714773625E+02  0.87192428757E+02 -0.44924109222E+02  0.10308502359E+03  0.00000000000E+00 0. -1.
        -14    1    4    4    0    0 -0.36774707519E+02 -0.14069501231E+00 -0.37961835728E+02  0.52853570173E+02  0.00000000000E+00 0.  1.
</event>
<event>
12    1  0.1594900E-001  0.2073880E+03  0.7818608E-02  0.1144078E+00
         21   -1    0    0  503  502  0.00000000000E+00  0.00000000000E+00  0.55219680233E+03  0.55219680233E+03  0.00000000000E+00 0.  1.
         21   -1    0    0  501  503 -0.00000000000E+00 -0.00000000000E+00 -0.10323128709E+03  0.10323128709E+03  0.00000000000E+00 0. -1.
          6    2    1    2  501    0 -0.11329312782E+03 -0.75012705926E+01  0.60455026507E+02  0.21601990872E+03  0.17354592724E+03 0.  0.
         24    2    3    3    0    0 -0.86287102498E+02  0.38168256084E+02 -0.14839635069E+02  0.12378972314E+03  0.78748974320E+02 0.  0.
         -6    2    1    2    0  502  0.11329312782E+03  0.75012705926E+01  0.38851048874E+03  0.43940818070E+03  0.17101914375E+03 0.  0.
        -24    2    5    5    0    0  0.27357033823E+01  0.40337068265E+02  0.11280392570E+03  0.14051466686E+03  0.73383123408E+02 0.  0.
          5    1    3    3  501    0 -0.27006025326E+02 -0.45669526677E+02  0.75294661576E+02  0.92230185583E+02  0.47000000000E+01 0. -1.
        -11    1    4    4    0    0 -0.35785535856E+02  0.34208821721E+00  0.29741317127E+02  0.46532435411E+02  0.00000000000E+00 0.  1.
         12    1    4    4    0    0 -0.50501566642E+02  0.37826167867E+02 -0.44580952196E+02  0.77257287731E+02  0.00000000000E+00 0. -1.
         -5    1    5    5    0  502  0.11055742444E+03 -0.32835797672E+02  0.27570656304E+03  0.29889351383E+03  0.47000000000E+01 0.  1.
         13    1    6    6    0    0  0.14169630537E+02  0.33760261076E+01 -0.58615645751E+01  0.15701398699E+02  0.00000000000E+00 0. -1.
        -14    1    6    6    0    0 -0.11433927155E+02  0.36961042157E+02  0.11866549028E+03  0.12481326816E+03  0.00000000000E+00 0.  1.
</event>
<event>
12    1  0.1594900E-001  0.2271961E+03  0.7818608E-02  0.1128932E+00
         21   -1    0    0  501  502  0.00000000000E+00  0.00000000000E+00  0.61153469350E+03  0.61153469350E+03  0.00000000000E+00 0. -1.
         21   -1    0    0  502  503 -0.00000000000E+00 -0.00000000000E+00 -0.10629414545E+03  0.10629414545E+03  0.00000000000E+00 0.  1.
         -6    2    1    2    0  503 -0.54108358935E+02  0.13890213714E+03  0.41853992626E+03  0.47622867111E+03  0.17145424786E+03 0.  0.
        -24    2    3    3    0    0 -0.71246950834E+02  0.86453301798E+02  0.39123935426E+03  0.41448708957E+03  0.78619423161E+02 0.  0.
          6    2    1    2  501    0  0.54108358935E+02 -0.13890213714E+03  0.86700621791E+02  0.24160016783E+03  0.16921029836E+03 0.  0.
         24    2    5    5    0    0 -0.40249711518E+01 -0.41010972725E+02  0.89861449442E+02  0.12760786560E+03  0.80688208498E+02 0.  0.
          5    1    5    5  501    0  0.58133330087E+02 -0.97891164412E+02 -0.31608276508E+01  0.11399230223E+03  0.47000000000E+01 0. -1.
        -11    1    6    6    0    0 -0.29874427669E+01 -0.53477236191E+02  0.20856324370E+02  0.57478046862E+02  0.00000000000E+00 0.  1.
         12    1    6    6    0    0 -0.10375283849E+01  0.12466263466E+02  0.69005125073E+02  0.70129818738E+02  0.00000000000E+00 0. -1.
         -5    1    3    3    0  503  0.17138591899E+02  0.52448835339E+02  0.27300572000E+02  0.61741581550E+02  0.47000000000E+01 0.  1.
         13    1    4    4    0    0 -0.23717717156E+02  0.49135754476E+02  0.30085865135E+03  0.30576589177E+03  0.00000000000E+00 0. -1.
        -14    1    4    4    0    0 -0.47529233678E+02  0.37317547322E+02  0.90380702911E+02  0.10872119780E+03  0.00000000000E+00 0.  1.
</event>
<event>
12    1  0.1594900E-001  0.1893830E+03  0.7818608E-02  0.1160158E+00
         21   -1    0    0  501  502  0.00000000000E+00  0.00000000000E+00  0.27327045567E+03  0.27327045567E+03  0.00000000000E+00 0. -1.
         21   -1    0    0  502  503 -0.00000000000E+00 -0.00000000000E+00 -0.13373563968E+03  0.13373563968E+03  0.00000000000E+00 0.  1.
         -6    2    1    2    0  503 -0.59644652058E+02 -0.45485795411E+02  0.27901238353E+02  0.19142731160E+03  0.17389506727E+03 0.  0.
        -24    2    3    3    0    0 -0.27811393298E+02 -0.91966182896E+02 -0.51801508762E+01  0.12592730322E+03  0.81237918119E+02 0.  0.
          6    2    1    2  501    0  0.59644652058E+02  0.45485795411E+02  0.11163357764E+03  0.21557878375E+03  0.16848060495E+03 0.  0.
         24    2    5    5    0    0  0.80250139583E+02 -0.18648126371E+02  0.54923135403E+02  0.12739766164E+03  0.80160937295E+02 0.  0.
          5    1    5    5  501    0 -0.20605487526E+02  0.64133921783E+02  0.56710442235E+02  0.88181122117E+02  0.47000000000E+01 0. -1.
        -13    1    6    6    0    0  0.42160814696E+01 -0.38809398548E+01 -0.19292778200E+02  0.20125812475E+02  0.00000000000E+00 0.  1.
         14    1    6    6    0    0  0.76034058114E+02 -0.14767186517E+02  0.74215913603E+02  0.10727184916E+03  0.00000000000E+00 0. -1.
         -5    1    3    3    0  503 -0.31833258760E+02  0.46480387484E+02  0.33081389230E+02  0.65500008377E+02  0.47000000000E+01 0.  1.
         11    1    4    4    0    0  0.21321369781E+02 -0.40139383815E+02 -0.24920819350E+02  0.51834526905E+02  0.00000000000E+00 0. -1.
        -12    1    4    4    0    0 -0.49132763079E+02 -0.51826799081E+02  0.19740668473E+02  0.74092776318E+02  0.00000000000E+00 0.  1.
</event>
<event>
12    1  0.1594900E-001  0.1883056E+03  0.7818608E-02  0.1162215E+00
         21   -1    0    0  501  502  0.00000000000E+00  0.00000000000E+00  0.18873876475E+04  0.18873876475E+04  0.00000000000E+00 0. -1.
         21   -1    0    0  502  503 -0.00000000000E+00 -0.00000000000E+00 -0.17856644613E+02  0.17856644613E+02  0.00000000000E+00 0.  1.
         -6    2    1    2    0  503 -0.33968516549E+02 -0.66110441584E+02  0.96313402618E+03  0.98136953099E+03  0.17301604942E+03 0.  0.
        -24    2    3    3    0    0  0.19736150988E+02  0.43812542201E+01  0.25811122556E+03  0.27078349827E+03  0.79332131778E+02 0.  0.
          6    2    1    2  501    0  0.33968516549E+02  0.66110441584E+02  0.90639697670E+03  0.92387476112E+03  0.16267957543E+03 0.  0.
         24    2    5    5    0    0  0.23337983817E+02  0.72295855290E+02  0.34384031212E+03  0.36116403754E+03  0.80261756724E+02 0.  0.
          5    1    5    5  501    0  0.10630532732E+02 -0.61854137061E+01  0.56255666458E+03  0.56271072358E+03  0.47000000000E+01 0. -1.
        -13    1    6    6    0    0  0.32796628516E+02  0.73066055270E+02  0.34230659160E+03  0.35155094926E+03  0.00000000000E+00 0.  1.
         14    1    6    6    0    0 -0.94586446993E+01 -0.77019997908E+00  0.15337205178E+01  0.96130882749E+01  0.00000000000E+00 0. -1.
         -5    1    3    3    0  503 -0.53704667537E+02 -0.70491695804E+02  0.70502280062E+03  0.71058603271E+03  0.47000000000E+01 0.  1.
         11    1    4    4    0    0  0.17345112486E+02  0.38948221047E+01  0.26390178001E+03  0.26449985266E+03  0.00000000000E+00 0. -1.
        -12    1    4    4    0    0  0.23910385013E+01  0.48643211539E+00 -0.57905544496E+01  0.62836456100E+01  0.00000000000E+00 0.  1.
</event>
<event>
12    1  0.1594900E-001  0.1749925E+03  0.7818608E-02  0.1172878E+00
         21   -1    0    0  503  502  0.00000000000E+00  0.00000000000E+00  0.45991759082E+03  0.45991759082E+03  0.00000000000E+00 0. -1.
         21   -1    0    0  501  503 -0.00000000000E+00 -0.00000000000E+00 -0.90767899107E+02  0.90767899107E+02  0.00000000000E+00 0. -1.
          6    2    1    2  501    0  0.20628529248E+02 -0.23754267400E+02  0.41613731151E+02  0.17933365001E+03  0.17157812788E+03 0.  0.
         24    2    3    3    0    0  0.18113695488E+02 -0.76827685073E+02  0.53978979924E+02  0.12457872850E+03  0.79846917057E+02 0.  0.
         -6    2    1    2    0  502 -0.20628529248E+02  0.23754267400E+02  0.32753596056E+03  0.37135183991E+03  0.17214116913E+03 0.  0.
        -24    2    5    5    0    0 -0.78762410958E+02  0.11728101730E+02  0.24406259059E+03  0.26881369892E+03  0.79706905936E+02 0.  0.
          5    1    3    3  501    0  0.25148337602E+01  0.53073417673E+02 -0.12365248773E+02  0.54754921510E+02  0.47000000000E+01 0. -1.
        -11    1    4    4    0    0 -0.29212949974E+02 -0.42932238641E+02  0.37580487086E+02  0.64100441267E+02  0.00000000000E+00 0.  1.
         12    1    4    4    0    0  0.47326645462E+02 -0.33895446432E+02  0.16398492838E+02  0.60478287235E+02  0.00000000000E+00 0. -1.
         -5    1    5    5    0  502  0.58133881710E+02  0.12026165670E+02  0.83473369971E+02  0.10253814099E+03  0.47000000000E+01 0.  1.
         13    1    6    6    0    0 -0.79810662255E+02  0.35609831840E+02  0.20722092529E+03  0.22489622899E+03  0.00000000000E+00 0. -1.
        -14    1    6    6    0    0  0.10482512969E+01 -0.23881730110E+02  0.36841665294E+02  0.43917469935E+02  0.00000000000E+00 0.  1.
</event>
<event>
12    1  0.1594900E-001  0.2048270E+03  0.7818608E-02  0.1145850E+00
         21   -1    0    0  503  502  0.00000000000E+00  0.00000000000E+00  0.67049615364E+02  0.67049615364E+02  0.00000000000E+00 0.  1.
         21   -1    0    0  501  503 -0.00000000000E+00 -0.00000000000E+00 -0.12891231856E+04  0.12891231856E+04  0.00000000000E+00 0. -1.
          6    2    1    2  501    0  0.71078797878E+02  0.86525240541E+02 -0.10985581359E+04  0.11174900769E+04  0.17150883685E+03 0.  0.
         24    2    3    3    0    0  0.19396052182E+02  0.10088927378E+03 -0.96366922443E+03  0.97225048137E+03  0.77831690274E+02 0.  0.
         -6    2    1    2    0  502 -0.71078797878E+02 -0.86525240541E+02 -0.12351543435E+03  0.23868272414E+03  0.17080564254E+03 0.  0.
        -24    2    5    5    0    0 -0.33693638064E+01 -0.87110174267E+02 -0.12718400576E+03  0.17070877306E+03  0.73254206729E+02 0.  0.
          5    1    3    3  501    0  0.51682745696E+02 -0.14364033240E+02 -0.13488891149E+03  0.14523959548E+03  0.47000000000E+01 0. -1.
        -11    1    4    4    0    0  0.21921970492E+02  0.32991288501E+02 -0.13212013107E+03  0.13793015240E+03  0.00000000000E+00 0.  1.
         12    1    4    4    0    0 -0.25259183108E+01  0.67897985280E+02 -0.83154909335E+03  0.83432032896E+03  0.00000000000E+00 0. -1.
         -5    1    5    5    0  502 -0.67709434071E+02  0.58493372563E+00  0.36685714136E+01  0.67973951084E+02  0.47000000000E+01 0.  1.
         13    1    6    6    0    0 -0.29471753284E+02 -0.47745511907E+02 -0.10382372646E+03  0.11801518684E+03  0.00000000000E+00 0. -1.
        -14    1    6    6    0    0  0.26102389477E+02 -0.39364662360E+02 -0.23360279299E+02  0.52693586214E+02  0.00000000000E+00 0.  1.
</event>
<event>
12    1  0.1594900E-001  0.2468772E+03  0.7818608E-02  0.1115411E+00
         21   -1    0    0  503  502  0.00000000000E+00  0.00000000000E+00  0.18217441634E+04  0.18217441634E+04  0.00000000000E+00 0.  1.
         21   -1    0    0  501  503 -0.00000000000E+00 -0.00000000000E+00 -0.37241609791E+02  0.37241609791E+02  0.00000000000E+00 0. -1.
          6    2    1    2  501    0  0.16096189533E+03 -0.73739698514E+02  0.11912325680E+04  0.12163991069E+04  0.17101310234E+03 0.  0.
         24    2    3    3    0    0  0.60098820828E+02  0.28660157856E+01  0.77353466083E+03  0.77989546777E+03  0.79126397890E+02 0.  0.
         -6    2    1    2    0  502 -0.16096189533E+03  0.73739698514E+02  0.59326998562E+03  0.64258666637E+03  0.17205252996E+03 0.  0.
        -24    2    5    5    0    0 -0.54100296478E+02  0.65218922846E+01  0.40174458079E+03  0.41314886329E+03  0.79522939380E+02 0.  0.
          5    1    3    3  501    0  0.10086307450E+03 -0.76605714300E+02  0.41769790721E+03  0.43650363910E+03  0.47000000000E+01 0. -1.
        -13    1    4    4    0    0  0.72240771753E+02  0.91004964132E+01  0.74160565641E+03  0.74517145527E+03  0.00000000000E+00 0.  1.
         14    1    4    4    0    0 -0.12141950925E+02 -0.62344806276E+01  0.31929004417E+02  0.34724012499E+02  0.00000000000E+00 0. -1.
         -5    1    5    5    0  502 -0.10686159885E+03  0.67217806230E+02  0.19152540483E+03  0.22943780307E+03  0.47000000000E+01 0.  1.
         13    1    6    6    0    0 -0.33526652979E+02  0.42928134673E+02  0.21718554319E+03  0.22391163743E+03  0.00000000000E+00 0. -1.
        -14    1    6    6    0    0 -0.20573643499E+02 -0.36406242389E+02  0.18455903760E+03  0.18923722586E+03  0.00000000000E+00 0.  1.
</event>
<event>
12    1  0.1594900E-001  0.2212184E+03  0.7818608E-02  0.1133399E+00
         21   -1    0    0  501  502  0.00000000000E+00  0.00000000000E+00  0.45309012437E+02  0.45309012437E+02  0.00000000000E+00 0. -1.
         21   -1    0    0  502  503 -0.00000000000E+00 -0.00000000000E+00 -0.15245409975E+04  0.15245409975E+04  0.00000000000E+00 0. -1.
         -6    2    1    2    0  503 -0.13294739133E+03 -0.24101755905E+02 -0.11659776021E+04  0.11863583055E+04  0.17229729288E+03 0.  0.
        -24    2    3    3    0    0  0.45752736625E+01 -0.10941328056E+02 -0.43090566448E+03  0.43840207443E+03  0.79850118314E+02 0.  0.
          6    2    1    2  501    0  0.13294739133E+03  0.24101755905E+02 -0.31325438299E+03  0.38349170438E+03  0.17516185476E+03 0.  0.
         24    2    5    5    0    0  0.15269532458E+03 -0.10133105368E+02 -0.20397498956E+03  0.26719001728E+03  0.79788263496E+02 0.  0.
          5    1    5    5  501    0 -0.19747933253E+02  0.34234861273E+02 -0.10927939343E+03  0.11630168710E+03  0.47000000000E+01 0. -1.
        -11    1    6    6    0    0  0.54444395622E+02 -0.16728243238E+02 -0.13625324358E+03  0.14767861295E+03  0.00000000000E+00 0.  1.
         12    1    6    6    0    0  0.98250928963E+02  0.65951378693E+01 -0.67721745978E+02  0.11951140433E+03  0.00000000000E+00 0. -1.
         -5    1    3    3    0  503 -0.13752266499E+03 -0.13160427849E+02 -0.73507193757E+03  0.74795623110E+03  0.47000000000E+01 0.  1.
         11    1    4    4    0    0 -0.37696285515E+02 -0.58711697976E+01 -0.20273317739E+03  0.20629159409E+03  0.00000000000E+00 0. -1.
        -12    1    4    4    0    0  0.42271559178E+02 -0.50701582588E+01 -0.22817248710E+03  0.23211048035E+03  0.00000000000E+00 0.  1.
</event>
<event>
12    1  0.1594900E-001  0.2166467E+03  0.7818608E-02  0.1136575E+00
         21   -1    0    0  503  502  0.00000000000E+00  0.00000000000E+00  0.24535406928E+03  0.24535406928E+03  0.00000000000E+00 0.  1.
         21   -1    0    0  501  503 -0.00000000000E+00 -0.00000000000E+00 -0.23438396259E+03  0.23438396259E+03  0.00000000000E+00 0.  1.
          6    2    1    2  501    0 -0.10444862229E+03  0.78219284895E+02 -0.98265851617E+02  0.23789063105E+03  0.17293930588E+03 0.  0.
         24    2    3    3    0    0 -0.13630452888E+03  0.76335025544E+02 -0.55449843522E+02  0.18428419704E+03  0.80498567773E+02 0.  0.
         -6    2    1    2    0  502  0.10444862229E+03 -0.78219284895E+02  0.10923595831E+03  0.24184740083E+03  0.17184265906E+03 0.  0.
        -24    2    5    5    0    0  0.31891477746E+02 -0.73024952429E+02  0.12532606761E+03  0.16719820839E+03  0.76804346472E+02 0.  0.
          5    1    3    3  501    0  0.31855906590E+02  0.18842593512E+01 -0.42816008096E+02  0.53606434010E+02  0.47000000000E+01 0. -1.
        -11    1    4    4    0    0 -0.91008424604E+02  0.86993855899E+02 -0.24123766626E+02  0.12818900276E+03  0.00000000000E+00 0.  1.
         12    1    4    4    0    0 -0.45296104273E+02 -0.10658830355E+02 -0.31326076896E+02  0.56095194273E+02  0.00000000000E+00 0. -1.
         -5    1    5    5    0  502  0.72557144541E+02 -0.51943324659E+01 -0.16090109306E+02  0.74649192435E+02  0.47000000000E+01 0.  1.
         11    1    6    6    0    0 -0.16877248947E+02 -0.81350683664E+01  0.60443946547E+02  0.63281052011E+02  0.00000000000E+00 0. -1.
        -12    1    6    6    0    0  0.48768726694E+02 -0.64889884063E+02  0.64882121065E+02  0.10391715638E+03  0.00000000000E+00 0.  1.
</event>
<event>
12    1  0.1594900E-001  0.1838846E+03  0.7818608E-02  0.1164744E+00
         21   -1    0    0  501  502  0.00000000000E+00  0.00000000000E+00  0.31239614808E+03  0.31239614808E+03  0.00000000000E+00 0.  1.
         21   -1    0    0  502  503 -0.00000000000E+00 -0.00000000000E+00 -0.12836694953E+03  0.12836694953E+03  0.00000000000E+00 0. -1.
         -6    2    1    2    0  503  0.51441999092E+02 -0.27216954558E+02  0.18325954349E+03  0.25961046474E+03  0.17443191002E+03 0.  0.
        -24    2    3    3    0    0  0.98773251792E+02 -0.33282704291E+02  0.15628105617E+03  0.20459256238E+03  0.81058339406E+02 0.  0.
          6    2    1    2  501    0 -0.51441999092E+02  0.27216954558E+02  0.76965505775E+00  0.18115263287E+03  0.17154778384E+03 0.  0.
         24    2    5    5    0    0 -0.10018042797E+02  0.72568308686E+02  0.25273192635E+02  0.11485630696E+03  0.84774503092E+02 0.  0.
          5    1    5    5  501    0 -0.41423956295E+02 -0.45351354128E+02 -0.24503537577E+02  0.66296325918E+02  0.47000000000E+01 0. -1.
        -11    1    6    6    0    0 -0.47979966173E+01  0.30176664240E+02 -0.31450859356E+02  0.43849839115E+02  0.00000000000E+00 0.  1.
         12    1    6    6    0    0 -0.52200461795E+01  0.42391644445E+02  0.56724051991E+02  0.71006467840E+02  0.00000000000E+00 0. -1.
         -5    1    3    3    0  503 -0.47331252699E+02  0.60657497339E+01  0.26978487318E+02  0.55017902358E+02  0.47000000000E+01 0.  1.
         13    1    4    4    0    0  0.86471012246E+01 -0.40006860643E+02  0.39067719161E+02  0.56582753013E+02  0.00000000000E+00 0. -1.
        -14    1    4    4    0    0  0.90126150567E+02  0.67241563516E+01  0.11721333701E+03  0.14800980936E+03  0.00000000000E+00 0.  1.
</event>
<event>
12    1  0.1594900E-001  0.1813592E+03  0.7818608E-02  0.1166822E+00
         21   -1    0    0  501  502  0.00000000000E+00  0.00000000000E+00  0.38220570640E+02  0.38220570640E+02  0.00000000000E+00 0.  1.
         21   -1    0    0  502  503 -0.00000000000E+00 -0.00000000000E+00 -0.86520239084E+03  0.86520239084E+03  0.00000000000E+00 0.  1.
         -6    2    1    2    0  503 -0.52190639116E+02 -0.23990898425E+02 -0.36081653482E+03  0.40322178365E+03  0.17058666124E+03 0.  0.
        -24    2    3    3    0    0 -0.70451724186E+02 -0.72355614575E+02 -0.25249048564E+03  0.28310002905E+03  0.78710867803E+02 0.  0.
          6    2    1    2  501    0  0.52190639116E+02  0.23990898425E+02 -0.46616528538E+03  0.50020117783E+03  0.17202243746E+03 0.  0.
         24    2    5    5    0    0 -0.17674595244E+02  0.54618547413E+02 -0.19160748031E+03  0.21520419156E+03  0.79396728639E+02 0.  0.
          5    1    5    5  501    0  0.69865234359E+02 -0.30627648989E+02 -0.27455780507E+03  0.28499698626E+03  0.47000000000E+01 0. -1.
        -11    1    6    6    0    0  0.27820799394E+02  0.91989793643E+01 -0.33385582323E+02  0.44420887061E+02  0.00000000000E+00 0.  1.
         12    1    6    6    0    0 -0.45495394638E+02  0.45419568049E+02 -0.15822189799E+03  0.17078330450E+03  0.00000000000E+00 0. -1.
         -5    1    3    3    0  503  0.18261085071E+02  0.48364716150E+02 -0.10832604918E+03  0.12012175460E+03  0.47000000000E+01 0.  1.
         11    1    4    4    0    0 -0.50597183880E+02 -0.44786160238E+02 -0.69317297026E+02  0.96802700543E+02  0.00000000000E+00 0. -1.
        -12    1    4    4    0    0 -0.19854540306E+02 -0.27569454337E+02 -0.18317318861E+03  0.18629732851E+03  0.00000000000E+00 0.  1.
</event>
<event>
12    1  0.1594900E-001  0.2365688E+03  0.7818608E-02  0.1122135E+00
         21   -1    0    0  501  502  0.00000000000E+00  0.00000000000E+00  0.21191420377E+03  0.21191420377E+03  0.00000000000E+00 0.  1.
         21   -1    0    0  502  503 -0.00000000000E+00 -0.00000000000E+00 -0.44155122483E+03  0.44155122483E+03  0.00000000000E+00 0.  1.
         -6    2    1    2    0  503  0.15491689710E+03  0.50706777741E+02 -0.32205745248E+03  0.39948444997E+03  0.17116191384E+03 0.  0.
        -24    2    3    3    0    0  0.46436555371E+01 -0.55343543960E+01 -0.11022696812E+03  0.13370379570E+03  0.75329462163E+02 0.  0.
          6    2    1    2  501    0 -0.15491689710E+03 -0.50706777741E+02  0.92420431421E+02  0.25398097863E+03  0.17144789018E+03 0.  0.
         24    2    5    5    0    0 -0.52569377703E+02  0.19819937359E+01 -0.12505137789E+02  0.98152269978E+02  0.81914723093E+02 0.  0.
          5    1    5    5  501    0 -0.10234751940E+03 -0.52688771477E+02  0.10492556921E+03  0.15582870865E+03  0.47000000000E+01 0. -1.
        -11    1    6    6    0    0 -0.24784728224E+02 -0.19501864505E+02  0.29647776567E+02  0.43285056633E+02  0.00000000000E+00 0.  1.
         12    1    6    6    0    0 -0.27784649479E+02  0.21483858241E+02 -0.42152914356E+02  0.54867213346E+02  0.00000000000E+00 0. -1.
         -5    1    3    3    0  503  0.15027324156E+03  0.56241132137E+02 -0.21183048437E+03  0.26578065427E+03  0.47000000000E+01 0.  1.
         11    1    4    4    0    0  0.29725775281E+02  0.11213091208E+01 -0.10234895013E+03  0.10658417633E+03  0.00000000000E+00 0. -1.
        -12    1    4    4    0    0 -0.25082119744E+02 -0.66556635168E+01 -0.78780179836E+01  0.27119619375E+02  0.00000000000E+00 0.  1.
</event>
<event>
12    1  0.1594900E-001  0.2362047E+03  0.7818608E-02  0.1122403E+00
         21   -1    0    0  503  502  0.00000000000E+00  0.00000000000E+00  0.26701121405E+03  0.26701121405E+03  0.00000000000E+00 0. -1.
         21   -1    0    0  501  503 -0.00000000000E+00 -0.00000000000E+00 -0.32246826710E+03  0.32246826710E+03  0.00000000000E+00 0. -1.
          6    2    1    2  501    0 -0.64949134734E+00  0.16219655178E+03 -0.20283531753E+03  0.31134357796E+03  0.17171055370E+03 0.  0.
         24    2    3    3    0    0 -0.39538135975E+02  0.15537296092E+03 -0.20398061539E+03  0.27156557172E+03  0.80223108309E+02 0.  0.
         -6    2    1    2    0  502  0.64949134734E+00 -0.16219655178E+03  0.14737826448E+03  0.27813590320E+03  0.17126320258E+03 0.  0.
        -24    2    5    5    0    0  0.45677128977E+02 -0.33519175865E+02  0.46769182498E+02  0.10863772445E+03  0.80030390972E+02 0.  0.
          5    1    3    3  501    0  0.38888644628E+02  0.68235908642E+01  0.11452978649E+01  0.39778006241E+02  0.47000000000E+01 0. -1.
        -13    1    4    4    0    0  0.19380163458E+02  0.20195834919E+02 -0.56278876225E+02  0.62855185887E+02  0.00000000000E+00 0.  1.
         14    1    4    4    0    0 -0.58918299433E+02  0.13517712600E+03 -0.14770173917E+03  0.20871038583E+03  0.00000000000E+00 0. -1.
         -5    1    5    5    0  502 -0.45027637630E+02 -0.12867737591E+03  0.10060908198E+03  0.16949817875E+03  0.47000000000E+01 0.  1.
         13    1    6    6    0    0  0.62567771501E+02 -0.45484010757E+02  0.36560511949E+02  0.85558122344E+02  0.00000000000E+00 0. -1.
        -14    1    6    6    0    0 -0.16890642523E+02  0.11964834892E+02  0.10208670549E+02  0.23079602103E+02  0.00000000000E+00 0.  1.
</event>
<event>
12    1  0.1594900E-001  0.1836055E+03  0.7818608E-02  0.1164738E+00
         21   -1    0    0  503  502  0.00000000000E+00  0.00000000000E+00  0.37239266986E+02  0.37239266986E+02  0.00000000000E+00 0. -1.
         21   -1    0    0  501  503 -0.00000000000E+00 -0.00000000000E+00 -0.11032991757E+04  0.11032991757E+04  0.00000000000E+00 0. -1.
          6    2    1    2  501    0 -0.42251810993E+02  0.42070421055E+02 -0.78129122581E+03  0.80257521536E+03  0.17365442960E+03 0.  0.
         24    2    3    3    0    0 -0.20777548008E+02  0.61379635660E+02 -0.25707469820E+03  0.27754279011E+03  0.82118412761E+02 0.  0.
         -6    2    1    2    0  502  0.42251810993E+02 -0.42070421055E+02 -0.28476868294E+03  0.33796322736E+03  0.17196163644E+03 0.  0.
        -24    2    5    5    0    0  0.77769365329E+02 -0.23271918397E+01 -0.24979771777E+03  0.27404077951E+03  0.81522751589E+02 0.  0.
          5    1    3    3  501    0 -0.21474262985E+02 -0.19309214605E+02 -0.52421652761E+03  0.52503242524E+03  0.47000000000E+01 0. -1.
        -13    1    4    4    0    0 -0.44367941594E+01  0.79635193084E+02 -0.18661506742E+03  0.20294490018E+03  0.00000000000E+00 0.  1.
         14    1    4    4    0    0 -0.16340753848E+02 -0.18255557424E+02 -0.70459630780E+02  0.74597889936E+02  0.00000000000E+00 0. -1.
         -5    1    5    5    0  502 -0.35517554336E+02 -0.39743229215E+02 -0.34970965169E+02  0.63922447851E+02  0.47000000000E+01 0.  1.
         13    1    6    6    0    0 -0.10751004376E+02 -0.17138594014E+02 -0.26196546316E+02  0.33099464328E+02  0.00000000000E+00 0. -1.
        -14    1    6    6    0    0  0.88520369705E+02  0.14811402174E+02 -0.22360117145E+03  0.24094131518E+03  0.00000000000E+00 0.  1.
</event>
<event>
12    1  0.1594900E-001  0.2127016E+03  0.7818608E-02  0.1140394E+00
         21   -1    0    0  503  502  0.00000000000E+00  0.00000000000E+00  0.11239454961E+04  0.11239454961E+04  0.00000000000E+00 0. -1.
         21   -1    0    0  501  503 -0.00000000000E+00 -0.00000000000E+00 -0.53479718669E+02  0.53479718669E+02  0.00000000000E+00 0.  1.
          6    2    1    2  501    0 -0.58060697159E+02 -0.10748798180E+03  0.23711347573E+03  0.31853534521E+03  0.17411850845E+03 0.  0.
         24    2    3    3    0    0 -0.14108888477E+02  0.97523632271E+01  0.12999291366E+03  0.15369006985E+03  0.80176746296E+02 0.  0.
         -6    2    1    2    0  502  0.58060697159E+02  0.10748798180E+03  0.83335230168E+03  0.85888986955E+03  0.16819940102E+03 0.  0.
        -24    2    5    5    0    0  0.18501114896E+02  0.13410839911E+03  0.69304406393E+03  0.71062625719E+03  0.79700996858E+02 0.  0.
          5    1    3    3  501    0 -0.43951808683E+02 -0.11724034503E+03  0.10712056207E+03  0.16484527535E+03  0.47000000000E+01 0. -1.
        -13    1    4    4    0    0  0.18399037036E+02  0.24691120125E+01 -0.93780889564E+00  0.18587645453E+02  0.00000000000E+00 0.  1.
         14    1    4    4    0    0 -0.32507925513E+02  0.72832512147E+01  0.13093072256E+03  0.13510242440E+03  0.00000000000E+00 0. -1.
         -5    1    5    5    0  502  0.39559582263E+02 -0.26620417312E+02  0.14030823775E+03  0.14826361235E+03  0.47000000000E+01 0.  1.
         13    1    6    6    0    0  0.38542675109E+02  0.73483705803E+02  0.51136022374E+03  0.51804890817E+03  0.00000000000E+00 0. -1.
        -14    1    6    6    0    0 -0.20041560213E+02  0.60624693307E+02  0.18168384019E+03  0.19257734903E+03  0.00000000000E+00 0.  1.
</event>
<event>
12    1  0.1594900E-001  0.1924342E+03  0.7818608E-02  0.1157114E+00
         21   -1    0    0  501  502  0.00000000000E+00  0.00000000000E+00  0.29873740254E+03  0.29873740254E+03  0.00000000000E+00 0.  1.
         21   -1    0    0  502  503 -0.00000000000E+00 -0.00000000000E+00 -0.30998976582E+03  0.30998976582E+03  0.00000000000E+00 0.  1.
         -6    2    1    2    0  503 -0.80417164888E+02  0.10557157718E+02 -0.24292545247E+03  0.30990919843E+03  0.17450662402E+03 0.  0.
        -24    2    3    3    0    0  0.12818547766E+01 -0.44887920376E+02 -0.14136295492E+03  0.16818440382E+03  0.79283920928E+02 0.  0.
          6    2    1    2  501    0  0.80417164888E+02 -0.10557157718E+02  0.23167308919E+03  0.29881796992E+03  0.17041533061E+03 0.  0.
         24    2    5    5    0    0  0.34970895826E+02  0.38290522246E+02  0.20496632614E+03  0.22679852531E+03  0.82080744294E+02 0.  0.
          5    1    5    5  501    0  0.45446269063E+02 -0.48847679964E+02  0.26706763051E+02  0.72019444612E+02  0.47000000000E+01 0. -1.
        -11    1    6    6    0    0  0.55291306140E+02  0.35286647741E+02  0.98313060423E+02  0.11818516782E+03  0.00000000000E+00 0.  1.
         12    1    6    6    0    0 -0.20320410314E+02  0.30038745057E+01  0.10665326571E+03  0.10861335749E+03  0.00000000000E+00 0. -1.
         -5    1    3    3    0  503 -0.81699019665E+02  0.55445078094E+02 -0.10156249755E+03  0.14172479461E+03  0.47000000000E+01 0.  1.
         11    1    4    4    0    0  0.16039742082E+02 -0.25555010474E+02 -0.61382144876E+01  0.30789763940E+02  0.00000000000E+00 0. -1.
        -12    1    4    4    0    0 -0.14757887305E+02 -0.19332909902E+02 -0.13522474044E+03  0.13739463988E+03  0.00000000000E+00 0.  1.
</event>
<event>
12    1  0.1594900E-001  0.4070372E+03  0.7818608E-02  0.1041419E+00
         21   -1    0    0  503  502  0.00000000000E+00  0.00000000000E+00  0.44629382770E+03  0.44629382770E+03  0.00000000000E+00 0.  1.
         21   -1    0    0  501  503 -0.00000000000E+00 -0.00000000000E+00 -0.37600955464E+03  0.37600955464E+03  0.00000000000E+00 0.  1.
          6    2    1    2  501    0 -0.20307558503E+03  0.30746259739E+03  0.83954819753E+02  0.41503667601E+03  0.17156365769E+03 0.  0.
         24    2    3    3    0    0 -0.13884923069E+03  0.16971409711E+03 -0.14481496415E+02  0.23389730353E+03  0.80101505841E+02 0.  0.
         -6    2    1    2    0  502  0.20307558503E+03 -0.30746259739E+03 -0.13670546690E+02  0.40726670633E+03  0.17293450844E+03 0.  0.
        -24    2    5    5    0    0  0.13775751202E+03 -0.10580952659E+03  0.20230586616E+02  0.19255343598E+03  0.80590080266E+02 0.  0.
          5    1    3    3  501    0 -0.64226354344E+02  0.13774850028E+03  0.98436316168E+02  0.18113937248E+03  0.47000000000E+01 0. -1.
        -13    1    4    4    0    0 -0.71097910029E+02  0.13027242449E+03 -0.35773561251E+02  0.15266160315E+03  0.00000000000E+00 0.  1.
         14    1    4    4    0    0 -0.67751320661E+02  0.39441672621E+02  0.21292064836E+02  0.81235700375E+02  0.00000000000E+00 0. -1.
         -5    1    5    5    0  502  0.65318073015E+02 -0.20165307080E+03 -0.33901133306E+02  0.21471327035E+03  0.47000000000E+01 0.  1.
         11    1    6    6    0    0  0.21681138251E+01 -0.21769220006E+02  0.24665955583E+02  0.32969819867E+02  0.00000000000E+00 0. -1.
        -12    1    6    6    0    0  0.13558939819E+03 -0.84040306581E+02 -0.44353689671E+01  0.15958361611E+03  0.00000000000E+00 0.  1.
</event>
<event>
12    1  0.1594900E-001  0.2656489E+03  0.7818608E-02  0.1104302E+00
         21   -1    0    0  501  502  0.00000000000E+00  0.00000000000E+00  0.58088916630E+03  0.58088916630E+03  0.00000000000E+00 0. -1.
         21   -1    0    0  502  503 -0.00000000000E+00 -0.00000000000E+00 -0.64993177098E+03  0.64993177098E+03  0.00000000000E+00 0.  1.
         -6    2    1    2    0  503  0.19013806479E+03 -0.65320365653E+02 -0.59022122443E+03  0.64584532455E+03  0.16833257448E+03 0.  0.
        -24    2    3    3    0    0  0.76816446571E+02 -0.12951366620E+02 -0.41765959151E+03  0.43281033125E+03  0.82563576095E+02 0.  0.
          6    2    1    2  501    0 -0.19013806479E+03  0.65320365653E+02  0.52117861975E+03  0.58497561272E+03  0.17363778376E+03 0.  0.
         24    2    5    5    0    0 -0.12087361033E+02 -0.39938286933E+01  0.10604209623E+03  0.12795599192E+03  0.70468111441E+02 0.  0.
          5    1    5    5  501    0 -0.17805070375E+03  0.69314194347E+02  0.41513652351E+03  0.45701962080E+03  0.47000000000E+01 0. -1.
        -13    1    6    6    0    0 -0.19708738917E+02  0.18947962959E+02  0.10310587753E+02  0.29219307141E+02  0.00000000000E+00 0.  1.
         14    1    6    6    0    0  0.76213778840E+01 -0.22941791652E+02  0.95731508481E+02  0.98736684779E+02  0.00000000000E+00 0. -1.
         -5    1    3    3    0  503  0.11332161821E+03 -0.52368999034E+02 -0.17256163292E+03  0.21303499330E+03  0.47000000000E+01 0.  1.
         11    1    4    4    0    0 -0.12058173866E+02 -0.20571192873E+02 -0.10513653286E+03  0.10780660497E+03  0.00000000000E+00 0. -1.
        -12    1    4    4    0    0  0.88874620437E+02  0.76198262535E+01 -0.31252305865E+03  0.32500372628E+03  0.00000000000E+00 0.  1.
</event>
<event>
12    1  0.1594900E-001  0.2114972E+03  0.7818608E-02  0.1141802E+00
         21   -1    0    0  503  502  0.00000000000E+00  0.00000000000E+00  0.10311177822E+04  0.10311177822E+04  0.00000000000E+00 0. -1.
         21   -1    0    0  501  503 -0.00000000000E+00 -0.00000000000E+00 -0.52411034950E+02  0.52411034950E+02  0.00000000000E+00 0. -1.
          6    2    1    2  501    0  0.10086924117E+03  0.40980144792E+02  0.24053853928E+03  0.31565944396E+03  0.17299745548E+03 0.  0.
         24    2    3    3    0    0 -0.42250301887E+01  0.48133605111E+02  0.14883546546E+03  0.17591853508E+03  0.80378108868E+02 0.  0.
         -6    2    1    2    0  502 -0.10086924117E+03 -0.40980144792E+02  0.73816820801E+03  0.76786937322E+03  0.18132042063E+03 0.  0.
        -24    2    5    5    0    0 -0.20694225821E+02  0.44908208001E+02  0.38023864896E+03  0.39111945421E+03  0.77123272588E+02 0.  0.
          5    1    3    3  501    0  0.10509427136E+03 -0.71534603194E+01  0.91703073820E+02  0.13974090888E+03  0.47000000000E+01 0. -1.
        -13    1    4    4    0    0 -0.10045809941E+02  0.57301144284E+02  0.15345905221E+03  0.16411587412E+03  0.00000000000E+00 0.  1.
         14    1    4    4    0    0  0.58207797519E+01 -0.91675391735E+01 -0.46235867454E+01  0.11802660963E+02  0.00000000000E+00 0. -1.
         -5    1    5    5    0  502 -0.80175015352E+02 -0.85888352792E+02  0.35792955905E+03  0.37674991901E+03  0.47000000000E+01 0.  1.
         13    1    6    6    0    0 -0.10362773752E+02 -0.86243906476E+01  0.24406378518E+03  0.24443587795E+03  0.00000000000E+00 0. -1.
        -14    1    6    6    0    0 -0.10331452069E+02  0.53532598649E+02  0.13617486378E+03  0.14668357627E+03  0.00000000000E+00 0.  1.
</event>
<event>
12    1  0.1594900E-001  0.1809774E+03  0.7818608E-02  0.1166938E+00
         21   -1    0    0  501  502  0.00000000000E+00  0.00000000000E+00  0.58003470984E+02  0.58003470984E+02  0.00000000000E+00 0. -1.
         21   -1    0    0  502  503 -0.00000000000E+00 -0.00000000000E+00 -0.97721002759E+03  0.97721002759E+03  0.00000000000E+00 0. -1.
         -6    2    1    2    0  503 -0.27765371155E+02  0.48094199736E+02 -0.79608498548E+03  0.81632599970E+03  0.17190946978E+03 0.  0.
        -24    2    3    3    0    0  0.33716972053E+02  0.28899668844E+02 -0.25115441448E+03  0.26758204688E+03  0.80929517723E+02 0.  0.
          6    2    1    2  501    0  0.27765371155E+02 -0.48094199736E+02 -0.12312157113E+03  0.21888749888E+03  0.17224647457E+03 0.  0.
         24    2    5    5    0    0 -0.35843726359E+02 -0.60502641420E+02 -0.10712530020E+03  0.15196920993E+03  0.81691299947E+02 0.  0.
          5    1    5    5  501    0  0.63609097513E+02  0.12408441685E+02 -0.15996270934E+02  0.66918288945E+02  0.47000000000E+01 0. -1.
        -11    1    6    6    0    0  0.24996461017E+02 -0.27245196123E+02 -0.49668304636E+02  0.61919821225E+02  0.00000000000E+00 0.  1.
         12    1    6    6    0    0 -0.60840187376E+02 -0.33257445297E+02 -0.57456995560E+02  0.90049388706E+02  0.00000000000E+00 0. -1.
         -5    1    3    3    0  503 -0.61482343207E+02  0.19194530892E+02 -0.54493057100E+03  0.54874395282E+03  0.47000000000E+01 0.  1.
         13    1    4    4    0    0  0.86663422167E+01 -0.25592365114E+02 -0.12513782912E+03  0.12802168143E+03  0.00000000000E+00 0. -1.
        -14    1    4    4    0    0  0.25050629836E+02  0.54492033958E+02 -0.12601658536E+03  0.13956036545E+03  0.00000000000E+00 0.  1.
</event>
<event>
12    1  0.1594900E-001  0.2943793E+03  0.7818608E-02  0.1089142E+00
         21   -1    0    0  501  502  0.00000000000E+00  0.00000000000E+00  0.75117704486E+03  0.75117704486E+03  0.00000000000E+00 0. -1.
         21   -1    0    0  502  503 -0.00000000000E+00 -0.00000000000E+00 -0.14809260127E+03  0.14809260127E+03  0.00000000000E+00 0. -1.
         -6    2    1    2    0  503  0.19928917982E+03  0.12122070183E+03  0.83398554687E+02  0.30596483339E+03  0.17957874208E+03 0.  0.
        -24    2    3    3    0    0  0.62240554822E+02  0.10551908664E+03  0.74697106554E+02  0.16766562323E+03  0.86740643161E+02 0.  0.
          6    2    1    2  501    0 -0.19928917982E+03 -0.12122070183E+03  0.51968588890E+03  0.59330481274E+03  0.16591124723E+03 0.  0.
         24    2    5    5    0    0 -0.14311858945E+03 -0.21890034458E+02  0.36297252531E+03  0.39939017938E+03  0.82470340150E+02 0.  0.
          5    1    5    5  501    0 -0.56170590364E+02 -0.99330667367E+02  0.15671336360E+03  0.19391463336E+03  0.47000000000E+01 0. -1.
        -11    1    6    6    0    0 -0.73861453161E+02 -0.36388041366E+02  0.27170109804E+03  0.28390331187E+03  0.00000000000E+00 0.  1.
         12    1    6    6    0    0 -0.69257136292E+02  0.14498006907E+02  0.91271427270E+02  0.11548686751E+03  0.00000000000E+00 0. -1.
         -5    1    3    3    0  503  0.13704862499E+03  0.15701615185E+02  0.87014481330E+01  0.13829921016E+03  0.47000000000E+01 0.  1.
         11    1    4    4    0    0  0.82028640002E+02  0.85426766786E+02  0.44951671636E+02  0.12667708177E+03  0.00000000000E+00 0. -1.
        -12    1    4    4    0    0 -0.19788085181E+02  0.20092319855E+02  0.29745434918E+02  0.40988541456E+02  0.00000000000E+00 0.  1.
</event>
<event>
12    1  0.1594900E-001  0.1815323E+03  0.7818608E-02  0.1166545E+00
         21   -1    0    0  503  502  0.00000000000E+00  0.00000000000E+00  0.69104803261E+03  0.69104803261E+03  0.00000000000E+00 0.  1.
         21   -1    0    0  501  503 -0.00000000000E+00 -0.00000000000E+00 -0.59762709725E+02  0.59762709725E+02  0.00000000000E+00 0.  1.
          6    2    1    2  501    0 -0.56069790566E+02 -0.20131299413E+02  0.14461636983E+03  0.23138734768E+03  0.17052014431E+03 0.  0.
         24    2    3    3    0    0  0.33031357441E+02 -0.15412188742E+02  0.59660050038E+02  0.10809521146E+03  0.82441779667E+02 0.  0.
         -6    2    1    2    0  502  0.56069790566E+02  0.20131299413E+02  0.48666895306E+03  0.51942339465E+03  0.17147857712E+03 0.  0.
        -24    2    5    5    0    0  0.53656469990E+02  0.66221950209E+02  0.41279484939E+03  0.43219011316E+03  0.95521425704E+02 0.  0.
          5    1    3    3  501    0 -0.89101148007E+02 -0.47191106706E+01  0.84956319791E+02  0.12329213622E+03  0.47000000000E+01 0. -1.
        -13    1    4    4    0    0 -0.24793181313E+02 -0.10390210705E+02  0.31138131287E+01  0.27062042612E+02  0.00000000000E+00 0.  1.
         14    1    4    4    0    0  0.57824538754E+02 -0.50219780371E+01  0.56546236909E+02  0.81033168851E+02  0.00000000000E+00 0. -1.
         -5    1    5    5    0  502  0.24133205759E+01 -0.46090650797E+02  0.73874103665E+02  0.87233281489E+02  0.47000000000E+01 0.  1.
         11    1    6    6    0    0  0.54804018487E+02 -0.90178012049E+00  0.12200915171E+03  0.13375547373E+03  0.00000000000E+00 0. -1.
        -12    1    6    6    0    0 -0.11475484964E+01  0.67123730330E+02  0.29078569768E+03  0.29843463944E+03  0.00000000000E+00 0.  1.
</event>
<event>
12    1  0.1594900E-001  0.1773516E+03  0.7818608E-02  0.1170412E+00
         21   -1    0    0  503  502  0.00000000000E+00  0.00000000000E+00  0.41851639121E+02  0.41851639121E+02  0.00000000000E+00 0.  1.
         21   -1    0    0  501  503 -0.00000000000E+00 -0.00000000000E+00 -0.10209183482E+04  0.10209183482E+04  0.00000000000E+00 0.  1.
          6    2    1    2  501    0 -0.41543818793E+02 -0.53243209088E+01 -0.76275004921E+03  0.78309719919E+03  0.17233498928E+03 0.  0.
         24    2    3    3    0    0 -0.35021387931E+02 -0.79824687115E+02 -0.45550029277E+03  0.46684200239E+03  0.53501964400E+02 0.  0.
         -6    2    1    2    0  502  0.41543818793E+02  0.53243209088E+01 -0.21631665987E+03  0.27967278814E+03  0.17224904590E+03 0.  0.
        -24    2    5    5    0    0 -0.40507101018E+02  0.25772131909E+02 -0.97509442680E+02  0.13376969950E+03  0.77982133064E+02 0.  0.
          5    1    3    3  501    0 -0.65224308614E+01  0.74500366206E+02 -0.30724975644E+03  0.31625519680E+03  0.47000000000E+01 0. -1.
        -13    1    4    4    0    0 -0.78266643219E+01 -0.64170069854E+01 -0.18407916163E+03  0.18435718700E+03  0.00000000000E+00 0.  1.
         14    1    4    4    0    0 -0.27194723609E+02 -0.73407680129E+02 -0.27142113114E+03  0.28248481539E+03  0.00000000000E+00 0. -1.
         -5    1    5    5    0  502  0.82050919811E+02 -0.20447811000E+02 -0.11880721719E+03  0.14590308863E+03  0.47000000000E+01 0.  1.
         13    1    6    6    0    0  0.53718071532E-02  0.45311651099E+02 -0.60101042201E+02  0.75268061140E+02  0.00000000000E+00 0. -1.
        -14    1    6    6    0    0 -0.40512472825E+02 -0.19539519191E+02 -0.37408400480E+02  0.58501638363E+02  0.00000000000E+00 0.  1.
</event>
<event>
12    1  0.1594900E-001  0.2066203E+03  0.7818608E-02  0.1144512E+00
         21   -1    0    0  503  502  0.00000000000E+00  0.00000000000E+00  0.48809968113E+02  0.48809968113E+02  0.00000000000E+00 0. -1.
         21   -1    0    0  501  503 -0.00000000000E+00 -0.00000000000E+00 -0.13815001804E+04  0.13815001804E+04  0.00000000000E+00 0. -1.
          6    2    1    2  501    0 -0.11165869959E+03  0.21955844418E+02 -0.11004516677E+04  0.11194617767E+04  0.17102944868E+03 0.  0.
         24    2    3    3    0    0 -0.64548801396E+02  0.60167039284E+02 -0.42916120808E+03  0.44541993152E+03  0.80205688664E+02 0.  0.
         -6    2    1    2    0  502  0.11165869959E+03 -0.21955844418E+02 -0.23223854458E+03  0.31084837177E+03  0.17245939913E+03 0.  0.
        -24    2    5    5    0    0  0.67031608282E+02 -0.12295873801E+02 -0.24223201983E+03  0.26387122990E+03  0.79418193885E+02 0.  0.
          5    1    3    3  501    0 -0.47109898192E+02 -0.38211194866E+02 -0.67129045958E+03  0.67404184518E+03  0.47000000000E+01 0. -1.
        -13    1    4    4    0    0 -0.64309517959E+02  0.86474845137E+01 -0.28605394813E+03  0.29332124766E+03  0.00000000000E+00 0.  1.
         14    1    4    4    0    0 -0.23928343656E+00  0.51519554771E+02 -0.14310725995E+03  0.15209868385E+03  0.00000000000E+00 0. -1.
         -5    1    5    5    0  502  0.44627091306E+02 -0.96599706172E+01  0.99934752486E+01  0.46977141870E+02  0.47000000000E+01 0.  1.
         13    1    6    6    0    0  0.33767654698E+02 -0.41186681156E+02 -0.82692216569E+02  0.98359543968E+02  0.00000000000E+00 0. -1.
        -14    1    6    6    0    0  0.33263953583E+02  0.28890807355E+02 -0.15953980326E+03  0.16551168593E+03  0.00000000000E+00 0.  1.
</event>
<event>
12    1  0.1594900E-001  0.2036329E+03  0.7818608E-02  0.1146725E+00
         21   -1    0    0  503  502  0.00000000000E+00  0.00000000000E+00  0.26475331657E+02  0.26475331657E+02  0.00000000000E+00 0.  1.
         21   -1    0    0  501  503 -0.00000000000E+00 -0.00000000000E+00 -0.17494949115E+04  0.17494949115E+04  0.00000000000E+00 0. -1.
          6    2    1    2  501    0 -0.37403078894E+02  0.10241866042E+03 -0.11494936630E+04  0.11673911197E+04  0.17198189668E+03 0.  0.
         24    2    3    3    0    0 -0.35868785289E+02  0.13963055565E+03 -0.88916033571E+03  0.90436524550E+03  0.80542739234E+02 0.  0.
         -6    2    1    2    0  502  0.37403078894E+02 -0.10241866042E+03 -0.57352591684E+03  0.60857912345E+03  0.17189531667E+03 0.  0.
        -24    2    5    5    0    0 -0.45085762374E+02 -0.61483097267E+02 -0.30587194111E+03  0.32548749519E+03  0.81065208003E+02 0.  0.
          5    1    3    3  501    0 -0.15342936048E+01 -0.37211895235E+02 -0.26033332731E+03  0.26302587423E+03  0.47000000000E+01 0. -1.
        -11    1    4    4    0    0 -0.33291770636E+02  0.84157874009E+02 -0.32151928363E+03  0.33401428037E+03  0.00000000000E+00 0.  1.
         12    1    4    4    0    0 -0.25770146534E+01  0.55472681643E+02 -0.56764105208E+03  0.57035096513E+03  0.00000000000E+00 0. -1.
         -5    1    5    5    0  502  0.82488841268E+02 -0.40935563150E+02 -0.26765397573E+03  0.28309162825E+03  0.47000000000E+01 0.  1.
         11    1    6    6    0    0 -0.39614336293E+01 -0.26987223675E+02 -0.23502710750E+03  0.23660461630E+03  0.00000000000E+00 0. -1.
        -12    1    6    6    0    0 -0.41124328745E+02 -0.34495873592E+02 -0.70844833619E+02  0.88882878892E+02  0.00000000000E+00 0.  1.
</event>
