<event>
12    1  0.8406581E-002  0.1979451E+03  0.7818608E-02  0.1151530E+00
         21   -1    0    0  503  502  0.00000000000E+00  0.00000000000E+00  0.14392190936E+04  0.14392190936E+04  0.00000000000E+00 0. -1.
         21   -1    0    0  501  503 -0.00000000000E+00 -0.00000000000E+00 -0.36189278132E+02  0.36189278132E+02  0.00000000000E+00 0. -1.
          6    2    1    2  501    0 -0.18239675926E+02  0.96463078697E+02  0.33346475014E+03  0.38768060757E+03  0.17163828992E+03 0.  0.
         24    2    3    3    0    0 -0.32470791222E+02 -0.13799148727E+02  0.15359305008E+03  0.17617126516E+03  0.78744656007E+02 0.  0.
         -6    2    1    2    0  502  0.18239675926E+02 -0.96463078697E+02  0.10695650653E+04  0.10877277642E+04  0.17188498667E+03 0.  0.
        -24    2    5    5    0    0  0.27317054042E+02 -0.12376030792E+03  0.10139843568E+04  0.10249675643E+04  0.79570075740E+02 0.  0.
          5    1    3    3  501    0  0.14231115296E+02  0.11026222742E+03  0.17987170007E+03  0.21150934240E+03  0.47000000000E+01 0. -1.
        -13    1    4    4    0    0  0.15854323716E+02 -0.26240433561E+02  0.30042717061E+02  0.42924174801E+02  0.00000000000E+00 0.  1.
         14    1    4    4    0    0 -0.48325114938E+02  0.12441284834E+02  0.12355033301E+03  0.13324709036E+03  0.00000000000E+00 0. -1.
         -5    1    5    5    0  502 -0.90773781169E+01  0.27297229223E+02  0.55580708587E+02  0.62760199838E+02  0.47000000000E+01 0.  1.
         13    1    6    6    0    0  0.27684081506E+02 -0.70597656672E+02  0.82997631919E+03  0.83343333741E+03  0.00000000000E+00 0. -1.
        -14    1    6    6    0    0 -0.36702746402E+00 -0.53162651248E+02  0.18400803757E+03  0.19153422693E+03  0.00000000000E+00 0.  1.
</event>
<event>
12    1  0.8406581E-002  0.2534214E+03  0.7818608E-02  0.1111216E+00
         21   -1    0    0  501  502  0.00000000000E+00  0.00000000000E+00  0.34709535920E+03  0.34709535920E+03  0.00000000000E+00 0.  1.
         21   -1    0    0  502  503 -0.00000000000E+00 -0.00000000000E+00 -0.36342337276E+03  0.36342337276E+03  0.00000000000E+00 0. -1.
         -6    2    1    2    0  503  0.17960723365E+03  0.49569212389E+02 -0.25724818464E+03  0.36110806481E+03  0.17177468025E+03 0.  0.
        -24    2    3    3    0    0  0.17144075010E+03  0.44263490406E+02 -0.27718778965E+03  0.33842503179E+03  0.79669592889E+02 0.  0.
          6    2    1    2  501    0 -0.17960723365E+03 -0.49569212389E+02  0.24092017109E+03  0.34941066715E+03  0.17125834370E+03 0.  0.
         24    2    5    5    0    0 -0.93389444940E+02  0.34296293599E+02  0.15963480932E+03  0.20416490913E+03  0.79386482442E+02 0.  0.
          5    1    5    5  501    0 -0.86217788707E+02 -0.83865505987E+02  0.81285361771E+02  0.14524575802E+03  0.47000000000E+01 0. -1.
        -11    1    6    6    0    0 -0.61460550825E+02  0.44913471226E+02  0.54080452417E+02  0.93377269926E+02  0.00000000000E+00 0.  1.
         12    1    6    6    0    0 -0.31928894115E+02 -0.10617177627E+02  0.10555435690E+03  0.11078763921E+03  0.00000000000E+00 0. -1.
         -5    1    3    3    0  503  0.81664835448E+01  0.53057219823E+01  0.19939605008E+02  0.22683033023E+02  0.47000000000E+01 0.  1.
         13    1    4    4    0    0  0.61835619631E+02  0.56606152396E+02 -0.11674084386E+03  0.14372308433E+03  0.00000000000E+00 0. -1.
        -14    1    4    4    0    0  0.10960513047E+03 -0.12342661990E+02 -0.16044694579E+03  0.19470194746E+03  0.00000000000E+00 0.  1.
</event>
<event>
12    1  0.8406581E-002  0.2072238E+03  0.7818608E-02  0.1144497E+00
         21   -1    0    0  501  502  0.00000000000E+00  0.00000000000E+00  0.19639343992E+03  0.19639343992E+03  0.00000000000E+00 0. -1.
         21   -1    0    0  502  503 -0.00000000000E+00 -0.00000000000E+00 -0.45447751641E+03  0.45447751641E+03  0.00000000000E+00 0.  1.
         -6    2    1    2    0  503  0.98932565369E+02  0.55540268070E+02 -0.36476837757E+03  0.41779750453E+03  0.16919341490E+03 0.  0.
        -24    2    3    3    0    0  0.29005028659E+02  0.38762571309E+02 -0.31912590266E+03  0.33249406371E+03  0.79794310776E+02 0.  0.
          6    2    1    2  501    0 -0.98932565369E+02 -0.55540268070E+02  0.10668430108E+03  0.23307345180E+03  0.17340507481E+03 0.  0.
         24    2    5    5    0    0  0.14291892768E+02 -0.38029914627E+02  0.64705907540E+02  0.11096421414E+03  0.80471546175E+02 0.  0.
          5    1    5    5  501    0 -0.11322445814E+03 -0.17510353443E+02  0.41978393541E+02  0.12210923766E+03  0.47000000000E+01 0. -1.
        -11    1    6    6    0    0 -0.82512976309E+01 -0.54415021200E+02  0.20548567156E+02  0.58747953641E+02  0.00000000000E+00 0.  1.
         12    1    6    6    0    0  0.22543190399E+02  0.16385106573E+02  0.44157340384E+02  0.52216260499E+02  0.00000000000E+00 0. -1.
         -5    1    3    3    0  503  0.69927536710E+02  0.16777696762E+02 -0.45642474910E+02  0.85303440815E+02  0.47000000000E+01 0.  1.
         11    1    4    4    0    0  0.32017932696E+02  0.22318271222E+02 -0.52877234639E+02  0.65721040676E+02  0.00000000000E+00 0. -1.
        -12    1    4    4    0    0 -0.30129040372E+01  0.16444300087E+02 -0.26624866802E+03  0.26677302303E+03  0.00000000000E+00 0.  1.
</event>
<event>
12    1  0.8406581E-002  0.1777712E+03  0.7818608E-02  0.1170051E+00
         21   -1    0    0  503  502  0.00000000000E+00  0.00000000000E+00  0.72669282739E+03  0.72669282739E+03  0.00000000000E+00 0.  1.
         21   -1    0    0  501  503 -0.00000000000E+00 -0.00000000000E+00 -0.52967667368E+02  0.52967667368E+02  0.00000000000E+00 0.  1.
          6    2    1    2  501    0  0.81598253846E+01  0.50195432698E+02  0.17107919900E+03  0.24650426300E+03  0.17002968898E+03 0.  0.
         24    2    3    3    0    0  0.34543534486E+02 -0.94085822060E+01  0.34961032618E+02  0.95510938922E+02  0.81352863859E+02 0.  0.
         -6    2    1    2    0  502 -0.81598253846E+01 -0.50195432698E+02  0.50264596103E+03  0.53315623176E+03  0.17034212959E+03 0.  0.
        -24    2    5    5    0    0 -0.47444442059E+02 -0.62546496134E+02  0.20952759093E+03  0.23712194530E+03  0.78498193084E+02 0.  0.
          5    1    3    3  501    0 -0.26383709102E+02  0.59604014904E+02  0.13611816638E+03  0.15099332408E+03  0.47000000000E+01 0. -1.
        -13    1    4    4    0    0  0.53638274248E+00  0.30596181768E+02  0.29863893908E+02  0.42758229671E+02  0.00000000000E+00 0.  1.
         14    1    4    4    0    0  0.34007151744E+02 -0.40004763974E+02  0.50971387099E+01  0.52752709251E+02  0.00000000000E+00 0. -1.
         -5    1    5    5    0  502  0.39284616675E+02  0.12351063436E+02  0.29311837009E+03  0.29603428646E+03  0.47000000000E+01 0.  1.
         11    1    6    6    0    0 -0.56479456021E+02 -0.96009118234E+01  0.11023940025E+03  0.12423699863E+03  0.00000000000E+00 0. -1.
        -12    1    6    6    0    0  0.90350139615E+01 -0.52945584310E+02  0.99288190685E+02  0.11288494667E+03  0.00000000000E+00 0.  1.
</event>
<event>
12    1  0.8406581E-002  0.3019359E+03  0.7818608E-02  0.1084296E+00
         21   -1    0    0  501  502  0.00000000000E+00  0.00000000000E+00  0.23859369325E+03  0.23859369325E+03  0.00000000000E+00 0. -1.
         21   -1    0    0  502  503 -0.00000000000E+00 -0.00000000000E+00 -0.46480978137E+03  0.46480978137E+03  0.00000000000E+00 0.  1.
         -6    2    1    2    0  503 -0.17707122929E+03  0.17384362802E+03  0.35404749656E+02  0.30400452965E+03  0.17201578563E+03 0.  0.
        -24    2    3    3    0    0 -0.75381619128E+02  0.16196723631E+03  0.48877300903E+02  0.20063419961E+03  0.77131818151E+02 0.  0.
          6    2    1    2  501    0  0.17707122929E+03 -0.17384362802E+03 -0.26162083778E+03  0.39939894497E+03  0.17175047959E+03 0.  0.
         24    2    5    5    0    0  0.87336594128E+02 -0.53745840664E+02 -0.19847534870E+03  0.23665612311E+03  0.78085597291E+02 0.  0.
          5    1    5    5  501    0  0.89734635158E+02 -0.12009778735E+03 -0.63145489084E+02  0.16274282186E+03  0.47000000000E+01 0. -1.
        -11    1    6    6    0    0  0.34282047251E+02 -0.59379618280E+02 -0.72184754843E+02  0.99558207409E+02  0.00000000000E+00 0.  1.
         12    1    6    6    0    0  0.53054546877E+02  0.56337776160E+01 -0.12629059385E+03  0.13709791570E+03  0.00000000000E+00 0. -1.
         -5    1    3    3    0  503 -0.10168961016E+03  0.11876391709E+02 -0.13472551248E+02  0.10337033003E+03  0.47000000000E+01 0.  1.
         11    1    4    4    0    0 -0.49806365870E+02  0.11183334584E+03  0.69403424271E+02  0.14072741958E+03  0.00000000000E+00 0. -1.
        -12    1    4    4    0    0 -0.25575253258E+02  0.50133890472E+02 -0.20526123367E+02  0.59906780030E+02  0.00000000000E+00 0.  1.
</event>
<event>
12    1  0.8406581E-002  0.2424439E+03  0.7818608E-02  0.1118282E+00
         21   -1    0    0  501  502  0.00000000000E+00  0.00000000000E+00  0.10182166752E+04  0.10182166752E+04  0.00000000000E+00 0. -1.
         21   -1    0    0  502  503 -0.00000000000E+00 -0.00000000000E+00 -0.76254769789E+02  0.76254769789E+02  0.00000000000E+00 0.  1.
         -6    2    1    2    0  503  0.10484943315E+03 -0.13449412802E+03  0.74136478977E+03  0.77979980579E+03  0.17141736053E+03 0.  0.
        -24    2    3    3    0    0  0.59543767328E+02 -0.41392401889E+01  0.23212361958E+03  0.25216957585E+03  0.78393409649E+02 0.  0.
          6    2    1    2  501    0 -0.10484943315E+03  0.13449412802E+03  0.20059711565E+03  0.31467163921E+03  0.17232806971E+03 0.  0.
         24    2    5    5    0    0 -0.39662259582E+02  0.14918379655E+03  0.12600743208E+03  0.21441763752E+03  0.79171651190E+02 0.  0.
          5    1    5    5  501    0 -0.65187173571E+02 -0.14689668529E+02  0.74589683566E+02  0.10025400169E+03  0.47000000000E+01 0. -1.
        -13    1    6    6    0    0 -0.45411313787E+02  0.69572340375E+02  0.27247794654E+02  0.87435349137E+02  0.00000000000E+00 0.  1.
         14    1    6    6    0    0  0.57490542052E+01  0.79611456173E+02  0.98759637427E+02  0.12698228838E+03  0.00000000000E+00 0. -1.
         -5    1    3    3    0  503  0.45305665825E+02 -0.13035488783E+03  0.50924117019E+03  0.52763022994E+03  0.47000000000E+01 0.  1.
         13    1    4    4    0    0  0.66755374734E+02 -0.75966768411E+01  0.23441259766E+03  0.24385088783E+03  0.00000000000E+00 0. -1.
        -14    1    4    4    0    0 -0.72116074054E+01  0.34574366522E+01 -0.22889780788E+01  0.83186880107E+01  0.00000000000E+00 0.  1.
</event>
<event>
12    1  0.8406581E-002  0.2402497E+03  0.7818608E-02  0.1119633E+00
         21   -1    0    0  503  502  0.00000000000E+00  0.00000000000E+00  0.74927404568E+03  0.74927404568E+03  0.00000000000E+00 0. -1.
         21   -1    0    0  501  503 -0.00000000000E+00 -0.00000000000E+00 -0.77594631225E+02  0.77594631225E+02  0.00000000000E+00 0. -1.
          6    2    1    2  501    0 -0.92129318712E+02 -0.13956777002E+03  0.30031867978E+03  0.38456931022E+03  0.17243918100E+03 0.  0.
         24    2    3    3    0    0 -0.11329266879E+03 -0.15552884311E+03  0.23556900030E+03  0.31444617400E+03  0.79744545894E+02 0.  0.
         -6    2    1    2    0  502  0.92129318712E+02  0.13956777002E+03  0.37136073468E+03  0.44229936669E+03  0.17249046558E+03 0.  0.
        -24    2    5    5    0    0  0.45354892272E+02  0.30100568121E+01  0.95522602669E+02  0.13094005484E+03  0.77166078334E+02 0.  0.
          5    1    3    3  501    0  0.21163350082E+02  0.15961073087E+02  0.64749679480E+02  0.70123136222E+02  0.47000000000E+01 0. -1.
        -11    1    4    4    0    0 -0.27848803309E+02 -0.18890959577E+02  0.63484086608E+01  0.34245094423E+02  0.00000000000E+00 0.  1.
         12    1    4    4    0    0 -0.85443865485E+02 -0.13663788353E+03  0.22922059164E+03  0.28020107958E+03  0.00000000000E+00 0. -1.
         -5    1    5    5    0  502  0.46774426440E+02  0.13655771321E+03  0.27583813201E+03  0.31135931185E+03  0.47000000000E+01 0.  1.
         11    1    6    6    0    0  0.32821728894E+01  0.35445510758E+02  0.29742959444E+02  0.46387504010E+02  0.00000000000E+00 0. -1.
        -12    1    6    6    0    0  0.42072719383E+02 -0.32435453945E+02  0.65779643225E+02  0.84552550829E+02  0.00000000000E+00 0.  1.
</event>
<event>
12    1  0.8406581E-002  0.1731156E+03  0.7818608E-02  0.1174840E+00
         21   -1    0    0  501  502  0.00000000000E+00  0.00000000000E+00  0.94627853842E+02  0.94627853842E+02  0.00000000000E+00 0.  1.
         21   -1    0    0  502  503 -0.00000000000E+00 -0.00000000000E+00 -0.12588621156E+04  0.12588621156E+04  0.00000000000E+00 0.  1.
         -6    2    1    2    0  503 -0.97294194636E+01 -0.12681436930E+02 -0.11683630791E+04  0.11811186631E+04  0.17237613316E+03 0.  0.
        -24    2    3    3    0    0 -0.54771543456E+02 -0.98236650475E+01 -0.38096680959E+03  0.39241597195E+03  0.75882532016E+02 0.  0.
          6    2    1    2  501    0  0.97294194636E+01  0.12681436930E+02  0.41288173639E+01  0.17237130632E+03  0.17157896043E+03 0.  0.
         24    2    5    5    0    0  0.24529626364E+02  0.27185570745E+02  0.62302432653E+02  0.11043847546E+03  0.83512309998E+02 0.  0.
          5    1    5    5  501    0 -0.14800206901E+02 -0.14504133815E+02 -0.58173615289E+02  0.61932830856E+02  0.47000000000E+01 0. -1.
        -13    1    6    6    0    0  0.15504897278E+02 -0.27678870708E+02  0.79994802223E+01  0.32718701183E+02  0.00000000000E+00 0.  1.
         14    1    6    6    0    0  0.90247290863E+01  0.54864441453E+02  0.54302952430E+02  0.77719774277E+02  0.00000000000E+00 0. -1.
         -5    1    3    3    0  503  0.45042123993E+02 -0.28577718824E+01 -0.78739626952E+03  0.78870269116E+03  0.47000000000E+01 0.  1.
         11    1    4    4    0    0  0.17473874149E+02 -0.13005772317E+02 -0.87583867854E+02  0.90251982247E+02  0.00000000000E+00 0. -1.
        -12    1    4    4    0    0 -0.72245417605E+02  0.31821072699E+01 -0.29338294174E+03  0.30216398970E+03  0.00000000000E+00 0.  1.
</event>
<event>
12    1  0.8406581E-002  0.1846340E+03  0.7818608E-02  0.1163432E+00
         21   -1    0    0  503  502  0.00000000000E+00  0.00000000000E+00  0.56343910752E+03  0.56343910752E+03  0.00000000000E+00 0.  1.
         21   -1    0    0  501  503 -0.00000000000E+00 -0.00000000000E+00 -0.88287238539E+02  0.88287238539E+02  0.00000000000E+00 0.  1.
          6    2    1    2  501    0  0.58466056254E+02 -0.38019684362E+02  0.54662323206E+02  0.19255570280E+03  0.17095599718E+03 0.  0.
         24    2    3    3    0    0  0.29667649562E+02  0.18670025801E+02  0.85197640758E+02  0.12186223009E+03  0.79768576757E+02 0.  0.
         -6    2    1    2    0  502 -0.58466056254E+02  0.38019684362E+02  0.42048954578E+03  0.45917064326E+03  0.17077015368E+03 0.  0.
        -24    2    5    5    0    0 -0.38434628136E+02  0.56307062829E+02  0.41884328155E+03  0.43159372339E+03  0.78713033271E+02 0.  0.
          5    1    3    3  501    0  0.28798406691E+02 -0.56689710163E+02 -0.30535317552E+02  0.70693472714E+02  0.47000000000E+01 0. -1.
        -13    1    4    4    0    0  0.54739839331E+00  0.44507518206E+02  0.27704436238E+02  0.52428566728E+02  0.00000000000E+00 0.  1.
         14    1    4    4    0    0  0.29120251169E+02 -0.25837492405E+02  0.57493204520E+02  0.69433663363E+02  0.00000000000E+00 0. -1.
         -5    1    5    5    0  502 -0.20031428118E+02 -0.18287378467E+02  0.16462642317E+01  0.27576919870E+02  0.47000000000E+01 0.  1.
         11    1    6    6    0    0  0.15834343815E+02  0.37068180598E+02  0.10418409870E+03  0.11170990501E+03  0.00000000000E+00 0. -1.
        -12    1    6    6    0    0 -0.54268971951E+02  0.19238882232E+02  0.31465918285E+03  0.31988381837E+03  0.00000000000E+00 0.  1.
</event>
<event>
12    1  0.8406581E-002  0.1832624E+03  0.7818608E-02  0.1165397E+00
         21   -1    0    0  503  502  0.00000000000E+00  0.00000000000E+00  0.55036664088E+03  0.55036664088E+03  0.00000000000E+00 0.  1.
         21   -1    0    0  501  503 -0.00000000000E+00 -0.00000000000E+00 -0.61584761164E+02  0.61584761164E+02  0.00000000000E+00 0.  1.
          6    2    1    2  501    0 -0.34308418898E+02 -0.44085288602E+02  0.29105182395E+03  0.34235485374E+03  0.17139166074E+03 0.  0.
         24    2    3    3    0    0 -0.37261506490E+02 -0.43540763214E+02  0.70171693707E+02  0.12140431816E+03  0.80812894659E+02 0.  0.
         -6    2    1    2    0  502  0.34308418898E+02  0.44085288602E+02  0.19773005576E+03  0.26959654831E+03  0.17454095115E+03 0.  0.
        -24    2    5    5    0    0 -0.87760849088E+01 -0.36745166345E+02  0.10798959473E+03  0.14127945178E+03  0.82890916323E+02 0.  0.
          5    1    3    3  501    0  0.29530875917E+01 -0.54452538730E+00  0.22088013025E+03  0.22095053558E+03  0.47000000000E+01 0. -1.
        -13    1    4    4    0    0 -0.27078388282E+02 -0.16744470090E+02  0.83814386605E+02  0.89657502712E+02  0.00000000000E+00 0.  1.
         14    1    4    4    0    0 -0.10183118208E+02 -0.26796293124E+02 -0.13642692898E+02  0.31746815449E+02  0.00000000000E+00 0. -1.
         -5    1    5    5    0  502  0.43084503807E+02  0.80830454947E+02  0.89740461032E+02  0.12831709653E+03  0.47000000000E+01 0.  1.
         13    1    6    6    0    0  0.14664700021E+02 -0.47022579775E+02  0.26640775904E+02  0.55999172996E+02  0.00000000000E+00 0. -1.
        -14    1    6    6    0    0 -0.23440784930E+02  0.10277413430E+02  0.81348818826E+02  0.85280278783E+02  0.00000000000E+00 0.  1.
</event>
<event>
12    1  0.8406581E-002  0.1815888E+03  0.7818608E-02  0.1166449E+00
         21   -1    0    0  503  502  0.00000000000E+00  0.00000000000E+00  0.10902714015E+03  0.10902714015E+03  0.00000000000E+00 0. -1.
         21   -1    0    0  501  503 -0.00000000000E+00 -0.00000000000E+00 -0.32011182333E+03  0.32011182333E+03  0.00000000000E+00 0. -1.
          6    2    1    2  501    0 -0.59111509217E+01 -0.54565222929E+02 -0.53633615471E+02  0.18934379782E+03  0.17309593815E+03 0.  0.
         24    2    3    3    0    0 -0.14610181348E+02 -0.48968838137E+01 -0.94659551745E+02  0.12416838460E+03  0.78866470238E+02 0.  0.
         -6    2    1    2    0  502  0.59111509217E+01  0.54565222929E+02 -0.15745106772E+03  0.23979516566E+03  0.17233275223E+03 0.  0.
        -24    2    5    5    0    0  0.34495754023E+02 -0.51601111171E+01 -0.14231270473E+03  0.17171098912E+03  0.89527504520E+02 0.  0.
          5    1    3    3  501    0  0.86990304266E+01 -0.49668339115E+02  0.41025936274E+02  0.65175413217E+02  0.47000000000E+01 0. -1.
        -11    1    4    4    0    0  0.26045292131E+02  0.32202577033E+01 -0.72619543064E+02  0.77216095063E+02  0.00000000000E+00 0.  1.
         12    1    4    4    0    0 -0.40655473480E+02 -0.81171415170E+01 -0.22040008681E+02  0.46952289539E+02  0.00000000000E+00 0. -1.
         -5    1    5    5    0  502 -0.28584603102E+02  0.59725334046E+02 -0.15138362985E+02  0.68084176541E+02  0.47000000000E+01 0.  1.
         11    1    6    6    0    0  0.75529249354E+01  0.14084009649E+02 -0.13729645833E+03  0.13822345486E+03  0.00000000000E+00 0. -1.
        -12    1    6    6    0    0  0.26942829088E+02 -0.19244120766E+02 -0.50162464023E+01  0.33487534267E+02  0.00000000000E+00 0.  1.
</event>
<event>
12    1  0.8406581E-002  0.1761595E+03  0.7818608E-02  0.1173781E+00
         21   -1    0    0  501  502  0.00000000000E+00  0.00000000000E+00  0.14252709288E+03  0.14252709288E+03  0.00000000000E+00 0. -1.
         21   -1    0    0  502  503 -0.00000000000E+00 -0.00000000000E+00 -0.21776676761E+03  0.21776676761E+03  0.00000000000E+00 0. -1.
         -6    2    1    2    0  503  0.15405799721E+02  0.19774240254E+02  0.29882122396E+01  0.16754593399E+03  0.16563318309E+03 0.  0.
        -24    2    3    3    0    0 -0.37613813219E+02 -0.31480557504E+02 -0.66743382866E+01  0.93023531098E+02  0.78759165186E+02 0.  0.
          6    2    1    2  501    0 -0.15405799721E+02 -0.19774240254E+02 -0.78227886972E+02  0.19274792650E+03  0.17436685932E+03 0.  0.
         24    2    5    5    0    0  0.30554470905E+02 -0.17543236618E+02  0.15302616812E+02  0.88405370510E+02  0.79624108223E+02 0.  0.
          5    1    5    5  501    0 -0.45960270626E+02 -0.22310036357E+01 -0.93530503784E+02  0.10434255599E+03  0.47000000000E+01 0. -1.
        -11    1    6    6    0    0  0.29571753021E+01 -0.46760956860E+02  0.93115716005E+01  0.47770674455E+02  0.00000000000E+00 0.  1.
         12    1    6    6    0    0  0.27597295603E+02  0.29217720242E+02  0.59910452111E+01  0.40634696054E+02  0.00000000000E+00 0. -1.
         -5    1    3    3    0  503  0.53019612940E+02  0.51254797759E+02  0.96625505261E+01  0.74522402888E+02  0.47000000000E+01 0.  1.
         13    1    4    4    0    0 -0.29552290710E+02  0.11514491189E+02  0.23849281715E+02  0.39682611203E+02  0.00000000000E+00 0. -1.
        -14    1    4    4    0    0 -0.80615225087E+01 -0.42995048693E+02 -0.30523620001E+02  0.53340919895E+02  0.00000000000E+00 0.  1.
</event>
<event>
12    1  0.8406581E-002  0.2479251E+03  0.7818608E-02  0.1115026E+00
         21   -1    0    0  503  502  0.00000000000E+00  0.00000000000E+00  0.74283731671E+02  0.74283731671E+02  0.00000000000E+00 0.  1.
         21   -1    0    0  501  503 -0.00000000000E+00 -0.00000000000E+00 -0.89599584766E+03  0.89599584766E+03  0.00000000000E+00 0. -1.
          6    2    1    2  501    0  0.14339675414E+03  0.10023820057E+03 -0.55106505855E+03  0.60324187646E+03  0.17209804420E+03 0.  0.
         24    2    3    3    0    0  0.12937603637E+02  0.24842120244E+02 -0.15351912133E+03  0.17807247366E+03  0.85773963049E+02 0.  0.
         -6    2    1    2    0  502 -0.14339675414E+03 -0.10023820057E+03 -0.27064705744E+03  0.36703770287E+03  0.17566023931E+03 0.  0.
        -24    2    5    5    0    0 -0.34907330906E+01 -0.66842989354E+02 -0.11921608478E+03  0.15813015313E+03  0.79451243000E+02 0.  0.
          5    1    3    3  501    0  0.13045915050E+03  0.75396080322E+02 -0.39754593722E+03  0.42516940280E+03  0.47000000000E+01 0. -1.
        -11    1    4    4    0    0 -0.34209183444E+02 -0.40111190413E+01 -0.68361089511E+02  0.76547997145E+02  0.00000000000E+00 0.  1.
         12    1    4    4    0    0  0.47146787081E+02  0.28853239285E+02 -0.85158031815E+02  0.10152447652E+03  0.00000000000E+00 0. -1.
         -5    1    5    5    0  502 -0.13990602105E+03 -0.33395211212E+02 -0.15143097266E+03  0.20890754974E+03  0.47000000000E+01 0.  1.
         13    1    6    6    0    0  0.30623226441E+02 -0.12720082152E+02 -0.69849715920E+02  0.77321182749E+02  0.00000000000E+00 0. -1.
        -14    1    6    6    0    0 -0.34113959532E+02 -0.54122907203E+02 -0.49366368858E+02  0.80808970376E+02  0.00000000000E+00 0.  1.
</event>
<event>
12    1  0.8406581E-002  0.2086283E+03  0.7818608E-02  0.1143668E+00
         21   -1    0    0  501  502  0.00000000000E+00  0.00000000000E+00  0.25764617077E+02  0.25764617077E+02  0.00000000000E+00 0.  1.
         21   -1    0    0  502  503 -0.00000000000E+00 -0.00000000000E+00 -0.21695327422E+04  0.21695327422E+04  0.00000000000E+00 0. -1.
         -6    2    1    2    0  503 -0.41508520243E+02  0.11018627285E+03 -0.15995658614E+04  0.16124750304E+04  0.16613490564E+03 0.  0.
        -24    2    3    3    0    0 -0.79220982068E+01  0.13795808974E+03 -0.11751490655E+04  0.11858006485E+04  0.77798828353E+02 0.  0.
          6    2    1    2  501    0  0.41508520243E+02 -0.11018627285E+03 -0.54420226369E+03  0.58282232880E+03  0.17222598864E+03 0.  0.
         24    2    5    5    0    0  0.16737064988E+02 -0.16318592043E+02 -0.40434998681E+03  0.41251227083E+03  0.78237049823E+02 0.  0.
          5    1    5    5  501    0  0.24771455255E+02 -0.93867680807E+02 -0.13985227688E+03  0.17031005797E+03  0.47000000000E+01 0. -1.
        -13    1    6    6    0    0  0.80423402660E+01  0.27683218542E+02 -0.79201026557E+02  0.84284295296E+02  0.00000000000E+00 0.  1.
         14    1    6    6    0    0  0.86947247224E+01 -0.44001810585E+02 -0.32514896025E+03  0.32822797553E+03  0.00000000000E+00 0. -1.
         -5    1    3    3    0  503 -0.33586422036E+02 -0.27771816888E+02 -0.42441679591E+03  0.42667438195E+03  0.47000000000E+01 0.  1.
         13    1    4    4    0    0 -0.10445050797E+02  0.30824003646E+02 -0.59151820930E+03  0.59241287142E+03  0.00000000000E+00 0. -1.
        -14    1    4    4    0    0  0.25229525900E+01  0.10713408609E+03 -0.58363085617E+03  0.59338777706E+03  0.00000000000E+00 0.  1.
</event>
<event>
12    1  0.8406581E-002  0.1969866E+03  0.7818608E-02  0.1152517E+00
         21   -1    0    0  503  502  0.00000000000E+00  0.00000000000E+00  0.10293788749E+03  0.10293788749E+03  0.00000000000E+00 0.  1.
         21   -1    0    0  501  503 -0.00000000000E+00 -0.00000000000E+00 -0.52019128598E+03  0.52019128598E+03  0.00000000000E+00 0.  1.
          6    2    1    2  501    0  0.46259127913E+01 -0.95939120362E+02 -0.37279903303E+03  0.42118882187E+03  0.17086600234E+03 0.  0.
         24    2    3    3    0    0  0.28449085775E+02 -0.12545555538E+03 -0.24845394583E+03  0.29110210381E+03  0.80390452061E+02 0.  0.
         -6    2    1    2    0  502 -0.46259127913E+01  0.95939120362E+02 -0.44454365462E+02  0.20194035160E+03  0.17198256048E+03 0.  0.
        -24    2    5    5    0    0  0.21692998995E+02 -0.97358800854E+01  0.19886138203E+01  0.83454355963E+02  0.79970628220E+02 0.  0.
          5    1    3    3  501    0 -0.23823172984E+02  0.29516435019E+02 -0.12434508720E+03  0.13008671807E+03  0.47000000000E+01 0. -1.
        -13    1    4    4    0    0 -0.14836595096E+02 -0.14817806587E+02 -0.71793269197E+01  0.22163814679E+02  0.00000000000E+00 0.  1.
         14    1    4    4    0    0  0.43285680871E+02 -0.11063774879E+03 -0.24127461891E+03  0.26893828913E+03  0.00000000000E+00 0. -1.
         -5    1    5    5    0  502 -0.26318911786E+02  0.10567500045E+03 -0.46442979282E+02  0.11848599564E+03  0.47000000000E+01 0.  1.
         13    1    6    6    0    0 -0.15320289075E+02 -0.35106048396E+02  0.41586808407E+01  0.38528437779E+02  0.00000000000E+00 0. -1.
        -14    1    6    6    0    0  0.37013288070E+02  0.25370168311E+02 -0.21700670204E+01  0.44925918184E+02  0.00000000000E+00 0.  1.
</event>
<event>
12    1  0.8406581E-002  0.2034601E+03  0.7818608E-02  0.1146870E+00
         21   -1    0    0  503  502  0.00000000000E+00  0.00000000000E+00  0.22010719332E+03  0.22010719332E+03  0.00000000000E+00 0. -1.
         21   -1    0    0  501  503 -0.00000000000E+00 -0.00000000000E+00 -0.18804595759E+03  0.18804595759E+03  0.00000000000E+00 0.  1.
          6    2    1    2  501    0  0.87329290759E+01  0.10887895966E+03  0.19443503228E+02  0.20430218771E+03  0.17155303022E+03 0.  0.
         24    2    3    3    0    0  0.52500292323E+02  0.11233741237E+03  0.43625405133E+02  0.15395938921E+03  0.80151997119E+02 0.  0.
         -6    2    1    2    0  502 -0.87329290759E+01 -0.10887895966E+03  0.12617732505E+02  0.20385096320E+03  0.17165405943E+03 0.  0.
        -24    2    5    5    0    0  0.56182055413E+02 -0.71337503061E+02  0.34772032689E+02  0.12551694000E+03  0.79372194600E+02 0.  0.
          5    1    3    3  501    0 -0.43767363247E+02 -0.34584527059E+01 -0.24181901905E+02  0.50342798497E+02  0.47000000000E+01 0. -1.
        -11    1    4    4    0    0  0.11965818083E+02  0.37810292540E+02 -0.23216116500E+02  0.45954184681E+02  0.00000000000E+00 0.  1.
         12    1    4    4    0    0  0.40534474240E+02  0.74527119829E+02  0.66841521633E+02  0.10800520453E+03  0.00000000000E+00 0. -1.
         -5    1    5    5    0  502 -0.64914984489E+02 -0.37541456603E+02 -0.22154300185E+02  0.78334023207E+02  0.47000000000E+01 0.  1.
         13    1    6    6    0    0  0.12306086522E+02 -0.44594078979E+02  0.53590348756E+02  0.70795459779E+02  0.00000000000E+00 0. -1.
        -14    1    6    6    0    0  0.43875968891E+02 -0.26743424082E+02 -0.18818316067E+02  0.54721480219E+02  0.00000000000E+00 0.  1.
</event>
<event>
12    1  0.8406581E-002  0.2942360E+03  0.7818608E-02  0.1088268E+00
         21   -1    0    0  501  502  0.00000000000E+00  0.00000000000E+00  0.16506757999E+03  0.16506757999E+03  0.00000000000E+00 0. -1.
         21   -1    0    0  502  503 -0.00000000000E+00 -0.00000000000E+00 -0.69150086091E+03  0.69150086091E+03  0.00000000000E+00 0. -1.
         -6    2    1    2    0  503  0.73513100109E+02  0.22590062578E+03 -0.51481437198E+02  0.29786093509E+03  0.17214973036E+03 0.  0.
        -24    2    3    3    0    0 -0.11172058279E+02  0.16911598105E+03 -0.10537597629E+02  0.18788566548E+03  0.80404927682E+02 0.  0.
          6    2    1    2  501    0 -0.73513100109E+02 -0.22590062578E+03 -0.47495184373E+03  0.55870750581E+03  0.17360747267E+03 0.  0.
         24    2    5    5    0    0 -0.48357455052E+02 -0.36439619626E+02 -0.13160614870E+03  0.16572323688E+03  0.80484306094E+02 0.  0.
          5    1    5    5  501    0 -0.25155645057E+02 -0.18946100616E+03 -0.34334569503E+03  0.39298426893E+03  0.47000000000E+01 0. -1.
        -11    1    6    6    0    0  0.12171562451E+02 -0.28086720591E+02 -0.15023576088E+02  0.34098660451E+02  0.00000000000E+00 0.  1.
         12    1    6    6    0    0 -0.60529017504E+02 -0.83528990342E+01 -0.11658257261E+03  0.13162457643E+03  0.00000000000E+00 0. -1.
         -5    1    3    3    0  503  0.84685158388E+02  0.56784644734E+02 -0.40943839569E+02  0.10997526962E+03  0.47000000000E+01 0.  1.
         13    1    4    4    0    0  0.22415123857E+02  0.14372859908E+03 -0.69849265046E+01  0.14563357157E+03  0.00000000000E+00 0. -1.
        -14    1    4    4    0    0 -0.33587182135E+02  0.25387381967E+02 -0.35526711246E+01  0.42252093901E+02  0.00000000000E+00 0.  1.
</event>
<event>
12    1  0.8406581E-002  0.1793626E+03  0.7818608E-02  0.1168644E+00
         21   -1    0    0  501  502  0.00000000000E+00  0.00000000000E+00  0.26692420556E+03  0.26692420556E+03  0.00000000000E+00 0. -1.
         21   -1    0    0  502  503 -0.00000000000E+00 -0.00000000000E+00 -0.13762684461E+03  0.13762684461E+03  0.00000000000E+00 0. -1.
         -6    2    1    2    0  503  0.61795048003E+02  0.18118612974E+02 -0.77778191811E+01  0.17953112961E+03  0.16740376320E+03 0.  0.
        -24    2    3    3    0    0  0.24637820475E+02 -0.47962285229E+02  0.17838015709E+02  0.99371253974E+02  0.81541696755E+02 0.  0.
          6    2    1    2  501    0 -0.61795048003E+02 -0.18118612974E+02  0.13707518013E+03  0.22501992056E+03  0.16642550149E+03 0.  0.
         24    2    5    5    0    0 -0.69894818789E+02  0.29229396567E+02  0.13892704288E+03  0.17671919914E+03  0.78672160150E+02 0.  0.
          5    1    5    5  501    0  0.80997707853E+01 -0.47348009541E+02 -0.18518627492E+01  0.48300721422E+02  0.47000000000E+01 0. -1.
        -11    1    6    6    0    0  0.77851254974E+01 -0.16170177074E+02  0.34414015615E+02  0.38812462900E+02  0.00000000000E+00 0.  1.
         12    1    6    6    0    0 -0.77679944286E+02  0.45399573641E+02  0.10451302727E+03  0.13790673624E+03  0.00000000000E+00 0. -1.
         -5    1    3    3    0  503  0.37157227528E+02  0.66080898203E+02 -0.25615834890E+02  0.80159875636E+02  0.47000000000E+01 0.  1.
         11    1    4    4    0    0 -0.28780962558E+02 -0.54059308475E+01  0.80898291703E+01  0.30381132798E+02  0.00000000000E+00 0. -1.
        -12    1    4    4    0    0  0.53418783033E+02 -0.42556354382E+02  0.97481865391E+01  0.68990121176E+02  0.00000000000E+00 0.  1.
</event>
<event>
12    1  0.8406581E-002  0.2133573E+03  0.7818608E-02  0.1139119E+00
         21   -1    0    0  501  502  0.00000000000E+00  0.00000000000E+00  0.35836422159E+03  0.35836422159E+03  0.00000000000E+00 0. -1.
         21   -1    0    0  502  503 -0.00000000000E+00 -0.00000000000E+00 -0.16355101698E+03  0.16355101698E+03  0.00000000000E+00 0. -1.
         -6    2    1    2    0  503  0.24156448266E+02  0.12335780157E+03 -0.26696948644E+02  0.21502111260E+03  0.17239684044E+03 0.  0.
        -24    2    3    3    0    0  0.36030095284E+02  0.75893724688E+02 -0.80724989497E+02  0.14198043019E+03  0.81141194316E+02 0.  0.
          6    2    1    2  501    0 -0.24156448266E+02 -0.12335780157E+03  0.22151015325E+03  0.30689412598E+03  0.17122083801E+03 0.  0.
         24    2    5    5    0    0 -0.62363611510E+02 -0.89504284754E+02  0.21796162643E+03  0.25550803870E+03  0.76660617096E+02 0.  0.
          5    1    5    5  501    0  0.38207163244E+02 -0.33853516815E+02  0.35485268246E+01  0.51386087285E+02  0.47000000000E+01 0. -1.
        -13    1    6    6    0    0 -0.28965006591E+02  0.41558178419E+01  0.81998913272E+02  0.87063564173E+02  0.00000000000E+00 0.  1.
         14    1    6    6    0    0 -0.33398604919E+02 -0.93660102595E+02  0.13596271316E+03  0.16844447452E+03  0.00000000000E+00 0. -1.
         -5    1    3    3    0  503 -0.11873647018E+02  0.47464076881E+02  0.54028040853E+02  0.73040682404E+02  0.47000000000E+01 0.  1.
         13    1    4    4    0    0  0.12722589417E+02  0.81015999962E+02 -0.32575733414E+02  0.88241911464E+02  0.00000000000E+00 0. -1.
        -14    1    4    4    0    0  0.23307505867E+02 -0.51222752745E+01 -0.48149256083E+02  0.53738518728E+02  0.00000000000E+00 0.  1.
</event>
<event>
12    1  0.8406581E-002  0.2931222E+03  0.7818608E-02  0.1088733E+00
         21   -1    0    0  503  502  0.00000000000E+00  0.00000000000E+00  0.15684949432E+04  0.15684949432E+04  0.00000000000E+00 0.  1.
         21   -1    0    0  501  503 -0.00000000000E+00 -0.00000000000E+00 -0.63434924632E+02  0.63434924632E+02  0.00000000000E+00 0. -1.
          6    2    1    2  501    0  0.23178353107E+03 -0.49520105522E+02  0.10540318204E+04  0.10940309438E+04  0.17246675458E+03 0.  0.
         24    2    3    3    0    0  0.10001518836E+03  0.80493898082E+01  0.70519159691E+03  0.71668662561E+03  0.79225629758E+02 0.  0.
         -6    2    1    2    0  502 -0.23178353107E+03  0.49520105522E+02  0.45102819817E+03  0.53789892404E+03  0.17243251089E+03 0.  0.
        -24    2    5    5    0    0 -0.24616188247E+03  0.69541622724E+02  0.41018192258E+03  0.48996035534E+03  0.79876345161E+02 0.  0.
          5    1    3    3  501    0  0.13176834271E+03 -0.57569495330E+02  0.34884022348E+03  0.37734431817E+03  0.47000000000E+01 0. -1.
        -13    1    4    4    0    0  0.24141921563E+02 -0.33246671539E+02  0.25367640048E+03  0.25698227509E+03  0.00000000000E+00 0.  1.
         14    1    4    4    0    0  0.75873266797E+02  0.41296061347E+02  0.45151519642E+03  0.45970435053E+03  0.00000000000E+00 0. -1.
         -5    1    5    5    0  502  0.14378351395E+02 -0.20021517202E+02  0.40846275590E+02  0.47938568705E+02  0.47000000000E+01 0.  1.
         13    1    6    6    0    0 -0.17189652362E+03  0.85546231721E+02  0.29431043100E+03  0.35140461350E+03  0.00000000000E+00 0. -1.
        -14    1    6    6    0    0 -0.74265358846E+02 -0.16004608997E+02  0.11587149159E+03  0.13855574184E+03  0.00000000000E+00 0.  1.
</event>
<event>
12    1  0.8406581E-002  0.3324254E+03  0.7818608E-02  0.1070120E+00
         21   -1    0    0  501  502  0.00000000000E+00  0.00000000000E+00  0.70157453551E+02  0.70157453551E+02  0.00000000000E+00 0. -1.
         21   -1    0    0  502  503 -0.00000000000E+00 -0.00000000000E+00 -0.18041989199E+04  0.18041989199E+04  0.00000000000E+00 0. -1.
         -6    2    1    2    0  503 -0.48871169824E+02 -0.28079144421E+03 -0.53092570662E+03  0.62615999573E+03  0.17018227852E+03 0.  0.
        -24    2    3    3    0    0 -0.95540724492E+02 -0.17503973196E+03 -0.37300769918E+03  0.43040080936E+03  0.79644053422E+02 0.  0.
          6    2    1    2  501    0  0.48871169824E+02  0.28079144421E+03 -0.12031157597E+04  0.12481963777E+04  0.17109774886E+03 0.  0.
         24    2    5    5    0    0 -0.36943816918E+02  0.17965708421E+03 -0.72234012087E+03  0.74943824431E+03  0.78999482921E+02 0.  0.
          5    1    5    5  501    0  0.85814986742E+02  0.10113436000E+03 -0.48077563885E+03  0.49875813340E+03  0.47000000000E+01 0. -1.
        -11    1    6    6    0    0  0.14923196724E+02  0.16591710597E+02 -0.16267564192E+03  0.16419912038E+03  0.00000000000E+00 0.  1.
         12    1    6    6    0    0 -0.51867013642E+02  0.16306537361E+03 -0.55966447896E+03  0.58523912393E+03  0.00000000000E+00 0. -1.
         -5    1    3    3    0  503  0.46669554668E+02 -0.10575171225E+03 -0.15791800744E+03  0.19575918637E+03  0.47000000000E+01 0.  1.
         11    1    4    4    0    0 -0.52790225964E+02 -0.70212002803E+02 -0.24092696610E+03  0.25644168204E+03  0.00000000000E+00 0. -1.
        -12    1    4    4    0    0 -0.42750498529E+02 -0.10482772916E+03 -0.13208073308E+03  0.17395912732E+03  0.00000000000E+00 0.  1.
</event>
<event>
12    1  0.8406581E-002  0.2002786E+03  0.7818608E-02  0.1149629E+00
         21   -1    0    0  501  502  0.00000000000E+00  0.00000000000E+00  0.92288284846E+03  0.92288284846E+03  0.00000000000E+00 0.  1.
         21   -1    0    0  502  503 -0.00000000000E+00 -0.00000000000E+00 -0.43393757451E+02  0.43393757451E+02  0.00000000000E+00 0. -1.
         -6    2    1    2    0  503 -0.69700746374E+02 -0.73839328220E+02  0.42132446844E+03  0.46625025043E+03  0.17194344384E+03 0.  0.
        -24    2    3    3    0    0 -0.31423424171E+02 -0.11258946198E+03  0.34221764973E+03  0.37009046139E+03  0.78677895806E+02 0.  0.
          6    2    1    2  501    0  0.69700746374E+02  0.73839328220E+02  0.45816462256E+03  0.50002635548E+03  0.17262993474E+03 0.  0.
         24    2    5    5    0    0  0.29377961852E+02 -0.24799678158E+02  0.25988149142E+03  0.27487336166E+03  0.80863382853E+02 0.  0.
          5    1    5    5  501    0  0.40322784521E+02  0.98639006377E+02  0.19828313114E+03  0.22515299382E+03  0.47000000000E+01 0. -1.
        -11    1    6    6    0    0  0.46709539568E+02  0.10126849757E+02  0.17597694822E+03  0.18235191383E+03  0.00000000000E+00 0.  1.
         12    1    6    6    0    0 -0.17331577716E+02 -0.34926527914E+02  0.83904543198E+02  0.92521447824E+02  0.00000000000E+00 0. -1.
         -5    1    3    3    0  503 -0.38277322203E+02  0.38750133762E+02  0.79106818710E+02  0.96159789039E+02  0.47000000000E+01 0.  1.
         11    1    4    4    0    0 -0.96464926540E+00 -0.10486823135E+03  0.21732549972E+03  0.24130613197E+03  0.00000000000E+00 0. -1.
        -12    1    4    4    0    0 -0.30458774905E+02 -0.77212306290E+01  0.12489215001E+03  0.12878432942E+03  0.00000000000E+00 0.  1.
</event>
<event>
12    1  0.8406581E-002  0.1753607E+03  0.7818608E-02  0.1173070E+00
         21   -1    0    0  501  502  0.00000000000E+00  0.00000000000E+00  0.10751968884E+04  0.10751968884E+04  0.00000000000E+00 0.  1.
         21   -1    0    0  502  503 -0.00000000000E+00 -0.00000000000E+00 -0.10092054795E+03  0.10092054795E+03  0.00000000000E+00 0.  1.
         -6    2    1    2    0  503 -0.22048012378E+02  0.16335247864E+02 -0.11127950386E+02  0.17571343745E+03  0.17320053593E+03 0.  0.
        -24    2    3    3    0    0  0.17827078911E+02 -0.41890772805E+02 -0.39641780940E+02  0.99454530290E+02  0.79038542563E+02 0.  0.
          6    2    1    2  501    0  0.22048012378E+02 -0.16335247864E+02  0.98540429081E+03  0.10004039989E+04  0.17039245711E+03 0.  0.
         24    2    5    5    0    0 -0.14550587622E+02  0.15367503619E+02  0.88303755826E+03  0.88706574449E+03  0.81746106820E+02 0.  0.
          5    1    5    5  501    0  0.36598600000E+02 -0.31702751483E+02  0.10236673255E+03  0.11333825439E+03  0.47000000000E+01 0. -1.
        -11    1    6    6    0    0 -0.44781105530E+02  0.18301309585E+01  0.32896797646E+03  0.33200696729E+03  0.00000000000E+00 0.  1.
         12    1    6    6    0    0  0.30230517907E+02  0.13537372660E+02  0.55406958179E+03  0.55505877720E+03  0.00000000000E+00 0. -1.
         -5    1    3    3    0  503 -0.39875091289E+02  0.58226020669E+02  0.28513830553E+02  0.76258907159E+02  0.47000000000E+01 0.  1.
         11    1    4    4    0    0  0.52297669513E+01 -0.29632575472E+02  0.20753563660E+02  0.36553391034E+02  0.00000000000E+00 0. -1.
        -12    1    4    4    0    0  0.12597311959E+02 -0.12258197332E+02 -0.60395344600E+02  0.62901139257E+02  0.00000000000E+00 0.  1.
</event>
<event>
12    1  0.8406581E-002  0.2950637E+03  0.7818608E-02  0.1087755E+00
         21   -1    0    0  503  502  0.00000000000E+00  0.00000000000E+00  0.99929586267E+03  0.99929586267E+03  0.00000000000E+00 0. -1.
         21   -1    0    0  501  503 -0.00000000000E+00 -0.00000000000E+00 -0.51675087660E+03  0.51675087660E+03  0.00000000000E+00 0.  1.
          6    2    1    2  501    0  0.11248692220E+03  0.21147168995E+03 -0.44992936546E+03  0.53805112421E+03  0.17230494783E+03 0.  0.
         24    2    3    3    0    0  0.45688191047E+02  0.34728290573E+02 -0.22764571083E+03  0.24627653173E+03  0.74404942386E+02 0.  0.
         -6    2    1    2    0  502 -0.11248692220E+03 -0.21147168995E+03  0.93247435153E+03  0.97799561505E+03  0.17202739170E+03 0.  0.
        -24    2    5    5    0    0 -0.10956912089E+03 -0.69120881944E+02  0.51145517129E+03  0.53352794893E+03  0.79262800084E+02 0.  0.
          5    1    3    3  501    0  0.66798731155E+02  0.17674339938E+03 -0.22228365463E+03  0.29177459249E+03  0.47000000000E+01 0. -1.
        -13    1    4    4    0    0  0.43633252401E+02  0.55030067487E+02 -0.19958722220E+03  0.21158267488E+03  0.00000000000E+00 0.  1.
         14    1    4    4    0    0  0.20549386454E+01 -0.20301776914E+02 -0.28058488632E+02  0.34693856849E+02  0.00000000000E+00 0. -1.
         -5    1    5    5    0  502 -0.29178013159E+01 -0.14235080800E+03  0.42101918023E+03  0.44446766612E+03  0.47000000000E+01 0.  1.
         11    1    6    6    0    0 -0.74902448712E+02 -0.63430811751E+02  0.23249419634E+03  0.25236361868E+03  0.00000000000E+00 0. -1.
        -12    1    6    6    0    0 -0.34666672174E+02 -0.56900701934E+01  0.27896097496E+03  0.28116433025E+03  0.00000000000E+00 0.  1.
</event>
<event>
12    1  0.8406581E-002  0.1923805E+03  0.7818608E-02  0.1156411E+00
         21   -1    0    0  501  502  0.00000000000E+00  0.00000000000E+00  0.19282968332E+03  0.19282968332E+03  0.00000000000E+00 0. -1.
         21   -1    0    0  502  503 -0.00000000000E+00 -0.00000000000E+00 -0.35462144320E+03  0.35462144320E+03  0.00000000000E+00 0.  1.
         -6    2    1    2    0  503  0.25018069617E+02  0.80887997201E+02 -0.26645929207E+03  0.32844070255E+03  0.17234839385E+03 0.  0.
        -24    2    3    3    0    0  0.17737767770E+02  0.10227469531E+03 -0.12234042137E+03  0.18248614612E+03  0.86944080413E+02 0.  0.
          6    2    1    2  501    0 -0.25018069617E+02 -0.80887997201E+02  0.10466753218E+03  0.21901042398E+03  0.17274692941E+03 0.  0.
         24    2    5    5    0    0  0.42127903023E+02 -0.85370947302E+02  0.75833901157E+02  0.14564730817E+03  0.79996243381E+02 0.  0.
          5    1    5    5  501    0 -0.67145972640E+02  0.44829501005E+01  0.28833631023E+02  0.73363115810E+02  0.47000000000E+01 0. -1.
        -11    1    6    6    0    0  0.25961938832E+02 -0.17899490783E+02 -0.11978948559E+02  0.33732910441E+02  0.00000000000E+00 0.  1.
         12    1    6    6    0    0  0.16165964191E+02 -0.67471456518E+02  0.87812849717E+02  0.11191439773E+03  0.00000000000E+00 0. -1.
         -5    1    3    3    0  503  0.72803018471E+01 -0.21386698108E+02 -0.14411887070E+03  0.14595455643E+03  0.47000000000E+01 0.  1.
         11    1    4    4    0    0  0.12031804837E+02  0.51107030046E+02 -0.30884690938E+01  0.52594975892E+02  0.00000000000E+00 0. -1.
        -12    1    4    4    0    0  0.57059629332E+01  0.51167665263E+02 -0.11925195228E+03  0.12989117023E+03  0.00000000000E+00 0.  1.
</event>
<event>
12    1  0.8406581E-002  0.1776830E+03  0.7818608E-02  0.1170292E+00
         21   -1    0    0  501  502  0.00000000000E+00  0.00000000000E+00  0.12252360746E+03  0.12252360746E+03  0.00000000000E+00 0.  1.
         21   -1    0    0  502  503 -0.00000000000E+00 -0.00000000000E+00 -0.25923635613E+03  0.25923635613E+03  0.00000000000E+00 0.  1.
         -6    2    1    2    0  503  0.95742852607E+01  0.43970042685E+02 -0.48354236588E+02  0.18414498663E+03  0.17189011697E+03 0.  0.
        -24    2    3    3    0    0  0.38624913406E+02  0.65872819506E+02 -0.79676312490E+02  0.13590772855E+03  0.79318873057E+02 0.  0.
          6    2    1    2  501    0 -0.95742852607E+01 -0.43970042685E+02 -0.88358512081E+02  0.19761497697E+03  0.17093689149E+03 0.  0.
         24    2    5    5    0    0  0.13951312669E+02 -0.20166402248E+01  0.14716973999E+02  0.83772157402E+02  0.81255640229E+02 0.  0.
          5    1    5    5  501    0 -0.23525597930E+02 -0.41953402460E+02 -0.10307548608E+03  0.11384281956E+03  0.47000000000E+01 0. -1.
        -11    1    6    6    0    0 -0.19531056807E+02 -0.22511020542E+02  0.29395919652E+02  0.41860820799E+02  0.00000000000E+00 0.  1.
         12    1    6    6    0    0  0.33482369476E+02  0.20494380317E+02 -0.14678945653E+02  0.41911336602E+02  0.00000000000E+00 0. -1.
         -5    1    3    3    0  503 -0.29050628145E+02 -0.21902776821E+02  0.31322075902E+02  0.48237258078E+02  0.47000000000E+01 0.  1.
         11    1    4    4    0    0  0.27253822029E+02 -0.15371593500E+01  0.42892271647E+01  0.27632067308E+02  0.00000000000E+00 0. -1.
        -12    1    4    4    0    0  0.11371091377E+02  0.67409978856E+02 -0.83965539654E+02  0.10827566124E+03  0.00000000000E+00 0.  1.
</event>
<event>
12    1  0.8406581E-002  0.3040720E+03  0.7818608E-02  0.1083468E+00
         21   -1    0    0  503  502  0.00000000000E+00  0.00000000000E+00  0.23905530286E+03  0.23905530286E+03  0.00000000000E+00 0. -1.
         21   -1    0    0  501  503 -0.00000000000E+00 -0.00000000000E+00 -0.45376364455E+03  0.45376364455E+03  0.00000000000E+00 0. -1.
          6    2    1    2  501    0  0.22648319758E+03  0.97999883048E+02 -0.24264651335E+03  0.38746620257E+03  0.17422431469E+03 0.  0.
         24    2    3    3    0    0  0.18420471412E+03  0.10727950280E+03 -0.25460758896E+03  0.34231380689E+03  0.83147156307E+02 0.  0.
         -6    2    1    2    0  502 -0.22648319758E+03 -0.97999883048E+02  0.27938171666E+02  0.30535274484E+03  0.17765455660E+03 0.  0.
        -24    2    5    5    0    0 -0.78111326850E+02 -0.10377499248E+03  0.34101959719E+02  0.15666634265E+03  0.80689347594E+02 0.  0.
          5    1    3    3  501    0  0.42278483458E+02 -0.92796197551E+01  0.11961075611E+02  0.45152395685E+02  0.47000000000E+01 0. -1.
        -11    1    4    4    0    0  0.16643019476E+02  0.45871250004E+02 -0.72051743500E+02  0.87020775770E+02  0.00000000000E+00 0.  1.
         12    1    4    4    0    0  0.16756169465E+03  0.61408252800E+02 -0.18255584546E+03  0.25529303112E+03  0.00000000000E+00 0. -1.
         -5    1    5    5    0  502 -0.14837187073E+03  0.57751094360E+01 -0.61637880533E+01  0.14868640219E+03  0.47000000000E+01 0.  1.
         13    1    6    6    0    0 -0.47130563571E+02 -0.66067412080E+01  0.26314310696E+02  0.54381816807E+02  0.00000000000E+00 0. -1.
        -14    1    6    6    0    0 -0.30980763279E+02 -0.97168251276E+02  0.77876490233E+01  0.10228452584E+03  0.00000000000E+00 0.  1.
</event>
<event>
12    1  0.8406581E-002  0.1910113E+03  0.7818608E-02  0.1158994E+00
         21   -1    0    0  501  502  0.00000000000E+00  0.00000000000E+00  0.32225211865E+03  0.32225211865E+03  0.00000000000E+00 0.  1.
         21   -1    0    0  502  503 -0.00000000000E+00 -0.00000000000E+00 -0.21429014860E+03  0.21429014860E+03  0.00000000000E+00 0.  1.
         -6    2    1    2    0  503  0.73754502084E+02  0.23580559810E+02 -0.13406633488E+03  0.22821937139E+03  0.16767387975E+03 0.  0.
        -24    2    3    3    0    0  0.12967837363E+02  0.57529698214E+02 -0.22712518770E+02  0.96806567716E+02  0.73333635267E+02 0.  0.
          6    2    1    2  501    0 -0.73754502084E+02 -0.23580559810E+02  0.24202830493E+03  0.30832289587E+03  0.17461253778E+03 0.  0.
         24    2    5    5    0    0 -0.10228936831E+03 -0.60837470905E+02  0.17806389951E+03  0.22885056625E+03  0.80631982665E+02 0.  0.
          5    1    5    5  501    0  0.28534866222E+02  0.37256911096E+02  0.63964405417E+02  0.79472329619E+02  0.47000000000E+01 0. -1.
        -13    1    6    6    0    0 -0.22383314598E+02  0.17871537629E+02  0.57147594778E+02  0.63923800095E+02  0.00000000000E+00 0.  1.
         14    1    6    6    0    0 -0.79906053708E+02 -0.78709008534E+02  0.12091630473E+03  0.16492676615E+03  0.00000000000E+00 0. -1.
         -5    1    3    3    0  503  0.60786664720E+02 -0.33949138405E+02 -0.11135381611E+03  0.13141280367E+03  0.47000000000E+01 0.  1.
         13    1    4    4    0    0  0.34819005160E+01  0.58306249813E+01  0.24946746402E+02  0.25854592918E+02  0.00000000000E+00 0. -1.
        -14    1    4    4    0    0  0.94859368475E+01  0.51699073233E+02 -0.47659265172E+02  0.70951974798E+02  0.00000000000E+00 0.  1.
</event>
<event>
12    1  0.8406581E-002  0.2000665E+03  0.7818608E-02  0.1149699E+00
         21   -1    0    0  503  502  0.00000000000E+00  0.00000000000E+00  0.40387638996E+03  0.40387638996E+03  0.00000000000E+00 0. -1.
         21   -1    0    0  501  503 -0.00000000000E+00 -0.00000000000E+00 -0.50337607434E+03  0.50337607434E+03  0.00000000000E+00 0. -1.
          6    2    1    2  501    0  0.96880212125E+02  0.37135197735E+02 -0.45629593790E+03  0.49822945310E+03  0.17106082714E+03 0.  0.
         24    2    3    3    0    0  0.21816188478E+02 -0.38489017656E+02 -0.17731212776E+03  0.19955289574E+03  0.80152460886E+02 0.  0.
         -6    2    1    2    0  502 -0.96880212125E+02 -0.37135197735E+02  0.35679625352E+03  0.40902301120E+03  0.17097209933E+03 0.  0.
        -24    2    5    5    0    0 -0.65050364330E+02  0.46819043687E+01  0.97270410073E+02  0.14418803870E+03  0.84114134967E+02 0.  0.
          5    1    3    3  501    0  0.75064023647E+02  0.75624215391E+02 -0.27898381014E+03  0.29867655737E+03  0.47000000000E+01 0. -1.
        -13    1    4    4    0    0  0.44309003227E+02 -0.48856969674E+02 -0.11622528340E+03  0.13363610198E+03  0.00000000000E+00 0.  1.
         14    1    4    4    0    0 -0.22492814749E+02  0.10367952018E+02 -0.61086844364E+02  0.65916793753E+02  0.00000000000E+00 0. -1.
         -5    1    5    5    0  502 -0.31829847795E+02 -0.41817102104E+02  0.25952584345E+03  0.26483497249E+03  0.47000000000E+01 0.  1.
         11    1    6    6    0    0 -0.78788545713E+02  0.40150809332E+01  0.10261163438E+03  0.12943300708E+03  0.00000000000E+00 0. -1.
        -12    1    6    6    0    0  0.13738181382E+02  0.66682343556E+00 -0.53412243086E+01  0.14755031627E+02  0.00000000000E+00 0.  1.
</event>
<event>
12    1  0.8406581E-002  0.2392173E+03  0.7818608E-02  0.1120472E+00
         21   -1    0    0  503  502  0.00000000000E+00  0.00000000000E+00  0.11966478335E+04  0.11966478335E+04  0.00000000000E+00 0. -1.
         21   -1    0    0  501  503 -0.00000000000E+00 -0.00000000000E+00 -0.51424346629E+02  0.51424346629E+02  0.00000000000E+00 0.  1.
          6    2    1    2  501    0 -0.51451533340E+02 -0.15670894007E+03  0.40216849979E+03  0.46745984995E+03  0.17197167474E+03 0.  0.
         24    2    3    3    0    0 -0.79534987159E+02 -0.52904852493E+02  0.26812885796E+03  0.29555090731E+03  0.79577111940E+02 0.  0.
         -6    2    1    2    0  502  0.51451533340E+02  0.15670894007E+03  0.74305498705E+03  0.78061233014E+03  0.17326264460E+03 0.  0.
        -24    2    5    5    0    0  0.34124243704E+02  0.11054023701E+03  0.70353334746E+03  0.71724172099E+03  0.78057077429E+02 0.  0.
          5    1    3    3  501    0  0.28083453818E+02 -0.10380408758E+03  0.13403964184E+03  0.17190894264E+03  0.47000000000E+01 0. -1.
        -11    1    4    4    0    0  0.10736392168E+02  0.95868894027E+01  0.35843422035E+02  0.38625502824E+02  0.00000000000E+00 0.  1.
         12    1    4    4    0    0 -0.90271379326E+02 -0.62491741896E+02  0.23228543592E+03  0.25692540449E+03  0.00000000000E+00 0. -1.
         -5    1    5    5    0  502  0.17327289637E+02  0.46168703064E+02  0.39521639590E+02  0.63370609154E+02  0.47000000000E+01 0.  1.
         11    1    6    6    0    0 -0.24268841780E+01  0.49488526699E+02  0.48249105362E+03  0.48502847428E+03  0.00000000000E+00 0. -1.
        -12    1    6    6    0    0  0.36551127882E+02  0.61051710309E+02  0.22104229384E+03  0.23221324671E+03  0.00000000000E+00 0.  1.
</event>
<event>
12    1  0.8406581E-002  0.2299294E+03  0.7818608E-02  0.1127027E+00
         21   -1    0    0  501  502  0.00000000000E+00  0.00000000000E+00  0.14289126698E+03  0.14289126698E+03  0.00000000000E+00 0. -1.
         21   -1    0    0  502  503 -0.00000000000E+00 -0.00000000000E+00 -0.38595330845E+03  0.38595330845E+03  0.00000000000E+00 0.  1.
         -6    2    1    2    0  503 -0.14582593138E+03 -0.35893184931E+02 -0.62329304297E+02  0.23638625090E+03  0.17158086855E+03 0.  0.
        -24    2    3    3    0    0 -0.17211182453E+03 -0.18122611291E+02 -0.70567669828E+02  0.20326975753E+03  0.79924271166E+02 0.  0.
          6    2    1    2  501    0  0.14582593138E+03  0.35893184931E+02 -0.18073273717E+03  0.29245832453E+03  0.17410923674E+03 0.  0.
         24    2    5    5    0    0  0.56851041629E+02 -0.36617337841E+02 -0.12979972533E+03  0.16679779528E+03  0.80004158941E+02 0.  0.
          5    1    5    5  501    0  0.88974889748E+02  0.72510522772E+02 -0.50933011841E+02  0.12566052926E+03  0.47000000000E+01 0. -1.
        -11    1    6    6    0    0  0.72842068507E+02 -0.12144370260E+02 -0.78666575984E+02  0.10789755720E+03  0.00000000000E+00 0.  1.
         12    1    6    6    0    0 -0.15991026878E+02 -0.24472967581E+02 -0.51133149348E+02  0.58900238073E+02  0.00000000000E+00 0. -1.
         -5    1    3    3    0  503  0.26285893150E+02 -0.17770573640E+02  0.82383655304E+01  0.33116493365E+02  0.47000000000E+01 0.  1.
         13    1    4    4    0    0  0.22534146107E+01 -0.15661282556E+02 -0.22476032784E+01  0.15981406984E+02  0.00000000000E+00 0. -1.
        -14    1    4    4    0    0 -0.17436523914E+03 -0.24613287350E+01 -0.68320066549E+02  0.18728835055E+03  0.00000000000E+00 0.  1.
</event>
<event>
12    1  0.8406581E-002  0.1763138E+03  0.7818608E-02  0.1171503E+00
         21   -1    0    0  503  502  0.00000000000E+00  0.00000000000E+00  0.11617754547E+03  0.11617754547E+03  0.00000000000E+00 0.  1.
         21   -1    0    0  501  503 -0.00000000000E+00 -0.00000000000E+00 -0.46580054065E+03  0.46580054065E+03  0.00000000000E+00 0.  1.
          6    2    1    2  501    0  0.12003407567E+02  0.35810054875E+02 -0.36478615979E+03  0.40501348409E+03  0.17187361082E+03 0.  0.
         24    2    3    3    0    0 -0.30995713319E+02  0.69845988324E+02 -0.16539532420E+03  0.19816531639E+03  0.77940252913E+02 0.  0.
         -6    2    1    2    0  502 -0.12003407567E+02 -0.35810054875E+02  0.15163164596E+02  0.17696460203E+03  0.17222109914E+03 0.  0.
        -24    2    5    5    0    0 -0.91423763396E+01  0.46518013656E+02  0.47567780702E+01  0.93799229142E+02  0.80797028475E+02 0.  0.
          5    1    3    3  501    0  0.42999120886E+02 -0.34035933450E+02 -0.19939083559E+03  0.20684816770E+03  0.47000000000E+01 0. -1.
        -13    1    4    4    0    0  0.42991659400E+00  0.73855716361E+02 -0.13691403813E+03  0.15556447379E+03  0.00000000000E+00 0.  1.
         14    1    4    4    0    0 -0.31425629913E+02 -0.40097280365E+01 -0.28481286063E+02  0.42600842599E+02  0.00000000000E+00 0. -1.
         -5    1    5    5    0  502 -0.28610312278E+01 -0.82328068531E+02  0.10406386526E+02  0.83165372892E+02  0.47000000000E+01 0.  1.
         11    1    6    6    0    0  0.34630733293E+02  0.12086130800E+02 -0.57420431565E+01  0.37125911514E+02  0.00000000000E+00 0. -1.
        -12    1    6    6    0    0 -0.43773109632E+02  0.34431882856E+02  0.10498821227E+02  0.56673317628E+02  0.00000000000E+00 0.  1.
</event>
<event>
12    1  0.8406581E-002  0.2020156E+03  0.7818608E-02  0.1148417E+00
         21   -1    0    0  503  502  0.00000000000E+00  0.00000000000E+00  0.27774770709E+03  0.27774770709E+03  0.00000000000E+00 0.  1.
         21   -1    0    0  501  503 -0.00000000000E+00 -0.00000000000E+00 -0.15799466421E+03  0.15799466421E+03  0.00000000000E+00 0.  1.
          6    2    1    2  501    0  0.10416791070E+03 -0.22257252781E+01  0.12051349098E+03  0.23372531767E+03  0.17102080322E+03 0.  0.
         24    2    3    3    0    0  0.18940150992E+02 -0.49924750483E+02  0.88768674732E+02  0.13092069039E+03  0.80057101668E+02 0.  0.
         -6    2    1    2    0  502 -0.10416791070E+03  0.22257252781E+01 -0.76044809780E+00  0.20201705363E+03  0.17307340698E+03 0.  0.
        -24    2    5    5    0    0 -0.99275782380E+02 -0.16809678549E+02 -0.60253329659E+02  0.13918575192E+03  0.74859625581E+02 0.  0.
          5    1    3    3  501    0  0.85227759712E+02  0.47699025205E+02  0.31744816251E+02  0.10280462728E+03  0.47000000000E+01 0. -1.
        -11    1    4    4    0    0  0.44255128705E+02 -0.49784752402E+02  0.80064652223E+02  0.10415078744E+03  0.00000000000E+00 0.  1.
         12    1    4    4    0    0 -0.25314977713E+02 -0.13999808056E+00  0.87040225088E+01  0.26769902949E+02  0.00000000000E+00 0. -1.
         -5    1    5    5    0  502 -0.48921283235E+01  0.19035403827E+02  0.59492881561E+02  0.62831301712E+02  0.47000000000E+01 0.  1.
         11    1    6    6    0    0 -0.10795757430E+03 -0.48722084551E+01 -0.61553350019E+02  0.12436796679E+03  0.00000000000E+00 0. -1.
        -12    1    6    6    0    0  0.86817919228E+01 -0.11937470094E+02  0.13000203601E+01  0.14817785130E+02  0.00000000000E+00 0.  1.
</event>
<event>
12    1  0.8406581E-002  0.2121932E+03  0.7818608E-02  0.1140249E+00
         21   -1    0    0  501  502  0.00000000000E+00  0.00000000000E+00  0.23072365559E+03  0.23072365559E+03  0.00000000000E+00 0.  1.
         21   -1    0    0  502  503 -0.00000000000E+00 -0.00000000000E+00 -0.30620420693E+03  0.30620420693E+03  0.00000000000E+00 0. -1.
         -6    2    1    2    0  503 -0.96639206263E+02 -0.72883216997E+02 -0.20067928005E+03  0.29055276462E+03  0.17174875860E+03 0.  0.
        -24    2    3    3    0    0 -0.71232832116E+02 -0.11005681753E+03 -0.18913688162E+03  0.24383363165E+03  0.80594419658E+02 0.  0.
          6    2    1    2  501    0  0.96639206263E+02  0.72883216997E+02  0.12519872871E+03  0.24637509790E+03  0.17428387099E+03 0.  0.
         24    2    5    5    0    0  0.13329960039E+03  0.64391683028E+02  0.12356387808E+03  0.20841652333E+03  0.79084403802E+02 0.  0.
          5    1    5    5  501    0 -0.36660394124E+02  0.84915339693E+01  0.16348506258E+01  0.37958574566E+02  0.47000000000E+01 0. -1.
        -13    1    6    6    0    0  0.66107778511E+02  0.40433368641E+02  0.11193175183E+03  0.13613894647E+03  0.00000000000E+00 0.  1.
         14    1    6    6    0    0  0.67191821876E+02  0.23958314388E+02  0.11632126252E+02  0.72277576858E+02  0.00000000000E+00 0. -1.
         -5    1    3    3    0  503 -0.25406374147E+02  0.37173600533E+02 -0.11542398438E+02  0.46719132972E+02  0.47000000000E+01 0.  1.
         13    1    4    4    0    0  0.16981117244E+02 -0.20102519168E+02 -0.20649587914E+02  0.33449590443E+02  0.00000000000E+00 0. -1.
        -14    1    4    4    0    0 -0.88213949360E+02 -0.89954298363E+02 -0.16848729370E+03  0.21038404121E+03  0.00000000000E+00 0.  1.
</event>
<event>
12    1  0.8406581E-002  0.1821177E+03  0.7818608E-02  0.1167277E+00
         21   -1    0    0  501  502  0.00000000000E+00  0.00000000000E+00  0.25880902868E+03  0.25880902868E+03  0.00000000000E+00 0. -1.
         21   -1    0    0  502  503 -0.00000000000E+00 -0.00000000000E+00 -0.15365876193E+03  0.15365876193E+03  0.00000000000E+00 0. -1.
         -6    2    1    2    0  503 -0.30429418325E+02 -0.30311230992E+02 -0.39033323003E+02  0.18018396707E+03  0.17058118730E+03 0.  0.
        -24    2    3    3    0    0  0.19204697889E-01  0.98475873717E+01  0.38009556637E+02  0.88001839525E+02  0.78756726812E+02 0.  0.
          6    2    1    2  501    0  0.30429418325E+02  0.30311230992E+02  0.14418358976E+03  0.23228382354E+03  0.17698063989E+03 0.  0.
         24    2    5    5    0    0 -0.48813048044E+02  0.19036327343E+02  0.49084682532E+02  0.10789578519E+03  0.80542529038E+02 0.  0.
          5    1    5    5  501    0  0.79242466369E+02  0.11274903649E+02  0.95098907228E+02  0.12438803835E+03  0.47000000000E+01 0. -1.
        -13    1    6    6    0    0 -0.52770432745E+02  0.38011183958E+02  0.57458085781E+02  0.86781336125E+02  0.00000000000E+00 0.  1.
         14    1    6    6    0    0  0.39573847012E+01 -0.18974856615E+02 -0.83734032496E+01  0.21114449062E+02  0.00000000000E+00 0. -1.
         -5    1    3    3    0  503 -0.30448623023E+02 -0.40158818364E+02 -0.77042879640E+02  0.92182127550E+02  0.47000000000E+01 0.  1.
         11    1    4    4    0    0 -0.10878602116E+02  0.28323097057E+01 -0.23016368158E+02  0.25614823158E+02  0.00000000000E+00 0. -1.
        -12    1    4    4    0    0  0.10897806814E+02  0.70152776660E+01  0.61025924794E+02  0.62387016366E+02  0.00000000000E+00 0.  1.
</event>
<event>
12    1  0.8406581E-002  0.2004577E+03  0.7818608E-02  0.1149794E+00
         21   -1    0    0  503  502  0.00000000000E+00  0.00000000000E+00  0.17159049844E+03  0.17159049844E+03  0.00000000000E+00 0.  1.
         21   -1    0    0  501  503 -0.00000000000E+00 -0.00000000000E+00 -0.32004972366E+03  0.32004972366E+03  0.00000000000E+00 0.  1.
          6    2    1    2  501    0 -0.90568723624E+02  0.40134063370E+02  0.55164229722E+02  0.20590295475E+03  0.17187058443E+03 0.  0.
         24    2    3    3    0    0 -0.61235256645E+02 -0.39821013174E+02  0.93674999677E+01  0.10909026443E+03  0.80482706162E+02 0.  0.
         -6    2    1    2    0  502  0.90568723624E+02 -0.40134063370E+02 -0.20362345494E+03  0.28573726736E+03  0.17426944028E+03 0.  0.
        -24    2    5    5    0    0  0.73395534720E+02  0.27546392711E+02 -0.60142827294E+02  0.12609910443E+03  0.78346130702E+02 0.  0.
          5    1    3    3  501    0 -0.29333466978E+02  0.79955076544E+02  0.45796729754E+02  0.96812690316E+02  0.47000000000E+01 0. -1.
        -13    1    4    4    0    0  0.10500967464E+02 -0.20562212377E+02  0.24091213576E+02  0.33368570048E+02  0.00000000000E+00 0.  1.
         14    1    4    4    0    0 -0.71736224109E+02 -0.19258800797E+02 -0.14723713608E+02  0.75721694381E+02  0.00000000000E+00 0. -1.
         -5    1    5    5    0  502  0.17173188903E+02 -0.67680456080E+02 -0.14348062765E+03  0.15963816293E+03  0.47000000000E+01 0.  1.
         13    1    6    6    0    0  0.24900128911E+02 -0.20147426606E+02  0.44011076810E+01  0.32331176401E+02  0.00000000000E+00 0. -1.
        -14    1    6    6    0    0  0.48495405809E+02  0.47693819317E+02 -0.64543934975E+02  0.93767928033E+02  0.00000000000E+00 0.  1.
</event>
<event>
12    1  0.8406581E-002  0.1725748E+03  0.7818608E-02  0.1175241E+00
         21   -1    0    0  501  502  0.00000000000E+00  0.00000000000E+00  0.10013802579E+04  0.10013802579E+04  0.00000000000E+00 0.  1.
         21   -1    0    0  502  503 -0.00000000000E+00 -0.00000000000E+00 -0.36104130697E+02  0.36104130697E+02  0.00000000000E+00 0.  1.
         -6    2    1    2    0  503  0.98163803163E+00  0.63093207538E+01  0.26449784615E+03  0.31581824460E+03  0.17245660863E+03 0.  0.
        -24    2    3    3    0    0  0.63276958766E+02  0.10334259880E+02  0.12301076122E+03  0.16110046177E+03  0.81920333063E+02 0.  0.
          6    2    1    2  501    0 -0.98163803163E+00 -0.63093207538E+01  0.70077828109E+03  0.72166614404E+03  0.17225287534E+03 0.  0.
         24    2    5    5    0    0  0.12967746473E+02  0.49016906622E+02  0.58639898000E+03  0.59375878975E+03  0.78197935236E+02 0.  0.
          5    1    5    5  501    0 -0.13949384505E+02 -0.55326227376E+02  0.11437930109E+03  0.12790735429E+03  0.47000000000E+01 0. -1.
        -13    1    6    6    0    0  0.37912239420E+02  0.11302245566E+01  0.29154010955E+03  0.29399702513E+03  0.00000000000E+00 0.  1.
         14    1    6    6    0    0 -0.24944492947E+02  0.47886682065E+02  0.29485887045E+03  0.29976176462E+03  0.00000000000E+00 0. -1.
         -5    1    3    3    0  503 -0.62295320734E+02 -0.40249391262E+01  0.14148708493E+03  0.15471778283E+03  0.47000000000E+01 0.  1.
         13    1    4    4    0    0  0.18823280332E+02  0.43484598528E+02  0.68902614779E+02  0.83622942515E+02  0.00000000000E+00 0. -1.
        -14    1    4    4    0    0  0.44453678434E+02 -0.33150338648E+02  0.54108146445E+02  0.77477519259E+02  0.00000000000E+00 0.  1.
</event>
<event>
12    1  0.8406581E-002  0.2102481E+03  0.7818608E-02  0.1141692E+00
         21   -1    0    0  503  502  0.00000000000E+00  0.00000000000E+00  0.23133898691E+03  0.23133898691E+03  0.00000000000E+00 0. -1.
         21   -1    0    0  501  503 -0.00000000000E+00 -0.00000000000E+00 -0.18968322194E+03  0.18968322194E+03  0.00000000000E+00 0. -1.
          6    2    1    2  501    0  0.10620543768E+03 -0.54539386397E+02  0.24951280190E+02  0.21011158437E+03  0.17108527652E+03 0.  0.
         24    2    3    3    0    0  0.50152618755E+02  0.32172607038E+02 -0.12057624949E+02  0.10032708012E+03  0.79810869396E+02 0.  0.
         -6    2    1    2    0  502 -0.10620543768E+03  0.54539386397E+02  0.16704484787E+02  0.21091062448E+03  0.17306100671E+03 0.  0.
        -24    2    5    5    0    0 -0.13256998314E+03  0.22582151506E+02 -0.16973436789E+02  0.15731354880E+03  0.79841725203E+02 0.  0.
          5    1    3    3  501    0  0.56052818928E+02 -0.86711993435E+02  0.37008905139E+02  0.10978450426E+03  0.47000000000E+01 0. -1.
        -11    1    4    4    0    0 -0.53737090346E+01 -0.33815852434E+01 -0.31065782287E+02  0.31707959516E+02  0.00000000000E+00 0.  1.
         12    1    4    4    0    0  0.55526327790E+02  0.35554192282E+02  0.19008157338E+02  0.68619120601E+02  0.00000000000E+00 0. -1.
         -5    1    5    5    0  502  0.26364545460E+02  0.31957234891E+02  0.33677921576E+02  0.53597075674E+02  0.47000000000E+01 0.  1.
         13    1    6    6    0    0 -0.35542445345E+02 -0.23629585136E+01  0.30087958414E+02  0.46627612373E+02  0.00000000000E+00 0. -1.
        -14    1    6    6    0    0 -0.97027537798E+02  0.24945110020E+02 -0.47061395203E+02  0.11068593643E+03  0.00000000000E+00 0.  1.
</event>
<event>
12    1  0.8406581E-002  0.2005257E+03  0.7818608E-02  0.1149793E+00
         21   -1    0    0  501  502  0.00000000000E+00  0.00000000000E+00  0.24746034581E+03  0.24746034581E+03  0.00000000000E+00 0.  1.
         21   -1    0    0  502  503 -0.00000000000E+00 -0.00000000000E+00 -0.26166549693E+03  0.26166549693E+03  0.00000000000E+00 0. -1.
         -6    2    1    2    0  503 -0.33106755452E+02  0.95624978940E+02 -0.16528468918E+03  0.25805698967E+03  0.17039421230E+03 0.  0.
        -24    2    3    3    0    0 -0.86496278531E+02  0.76602367374E+02 -0.11237319995E+03  0.18037805676E+03  0.80987520065E+02 0.  0.
          6    2    1    2  501    0  0.33106755452E+02 -0.95624978940E+02  0.15107953806E+03  0.25106885307E+03  0.17311946253E+03 0.  0.
         24    2    5    5    0    0  0.10970618451E+02 -0.73984703563E+02  0.17813499519E+03  0.20968772403E+03  0.81503216307E+02 0.  0.
          5    1    5    5  501    0  0.22136137000E+02 -0.21640275376E+02 -0.27055457129E+02  0.41381129034E+02  0.47000000000E+01 0. -1.
        -13    1    6    6    0    0 -0.66160417205E+01  0.82418546528E+01  0.78959065830E+02  0.79663255350E+02  0.00000000000E+00 0.  1.
         14    1    6    6    0    0  0.17586660172E+02 -0.82226558216E+02  0.99175929361E+02  0.13002446868E+03  0.00000000000E+00 0. -1.
         -5    1    3    3    0  503  0.53389523079E+02  0.19022611566E+02 -0.52911489236E+02  0.77678932914E+02  0.47000000000E+01 0.  1.
         11    1    4    4    0    0 -0.46510252329E+02  0.11545716271E+02 -0.88030882421E+02  0.10022945373E+03  0.00000000000E+00 0. -1.
        -12    1    4    4    0    0 -0.39986026202E+02  0.65056651103E+02 -0.24342317525E+02  0.80148603023E+02  0.00000000000E+00 0.  1.
</event>
<event>
12    1  0.8406581E-002  0.1772013E+03  0.7818608E-02  0.1170606E+00
         21   -1    0    0  501  502  0.00000000000E+00  0.00000000000E+00  0.81756034156E+03  0.81756034156E+03  0.00000000000E+00 0. -1.
         21   -1    0    0  502  503 -0.00000000000E+00 -0.00000000000E+00 -0.47140030052E+02  0.47140030052E+02  0.00000000000E+00 0. -1.
         -6    2    1    2    0  503  0.14681891564E+02 -0.36560403531E+02  0.19874219611E+03  0.26626820890E+03  0.17276596166E+03 0.  0.
        -24    2    3    3    0    0 -0.40155496426E+02 -0.58035063791E+02  0.79721457454E+02  0.13339109881E+03  0.80356343505E+02 0.  0.
          6    2    1    2  501    0 -0.14681891564E+02  0.36560403531E+02  0.57167811539E+03  0.59843216271E+03  0.17249047712E+03 0.  0.
         24    2    5    5    0    0 -0.40134232251E+02  0.23879352102E+02  0.15165687270E+03  0.17742317821E+03  0.79361181159E+02 0.  0.
          5    1    5    5  501    0  0.25452340687E+02  0.12681051429E+02  0.42002124270E+03  0.42100898450E+03  0.47000000000E+01 0. -1.
        -13    1    6    6    0    0  0.15273802061E+02 -0.16768480172E+02  0.28868147918E+02  0.36712953040E+02  0.00000000000E+00 0.  1.
         14    1    6    6    0    0 -0.55408034311E+02  0.40647832274E+02  0.12278872478E+03  0.14071022517E+03  0.00000000000E+00 0. -1.
         -5    1    3    3    0  503  0.54837387989E+02  0.21474660260E+02  0.11902073866E+03  0.13287711009E+03  0.47000000000E+01 0.  1.
         11    1    4    4    0    0 -0.17434254571E+02 -0.63735969413E+02  0.19686495200E+02  0.68947698459E+02  0.00000000000E+00 0. -1.
        -12    1    4    4    0    0 -0.22721241855E+02  0.57009056227E+01  0.60034962253E+02  0.64443400353E+02  0.00000000000E+00 0.  1.
</event>
<event>
12    1  0.8406581E-002  0.1746542E+03  0.7818608E-02  0.1173217E+00
         21   -1    0    0  503  502  0.00000000000E+00  0.00000000000E+00  0.48378724182E+03  0.48378724182E+03  0.00000000000E+00 0.  1.
         21   -1    0    0  501  503 -0.00000000000E+00 -0.00000000000E+00 -0.11951491305E+03  0.11951491305E+03  0.00000000000E+00 0.  1.
          6    2    1    2  501    0 -0.12641249624E+01  0.21085464266E+02 -0.25410855953E+02  0.17649308893E+03  0.17337215470E+03 0.  0.
         24    2    3    3    0    0 -0.33434588814E+02 -0.33389830129E+02 -0.49341384467E+02  0.10869001644E+03  0.84535170003E+02 0.  0.
         -6    2    1    2    0  502  0.12641249624E+01 -0.21085464266E+02  0.38968318472E+03  0.42680906595E+03  0.17282013628E+03 0.  0.
        -24    2    5    5    0    0 -0.35109117559E+02 -0.25469205524E+02  0.10959069976E+03  0.14429159730E+03  0.83238290535E+02 0.  0.
          5    1    3    3  501    0  0.32170463852E+02  0.54475294395E+02  0.23930528514E+02  0.67803072488E+02  0.47000000000E+01 0. -1.
        -11    1    4    4    0    0 -0.45378683652E+02 -0.37934741199E+02 -0.65392481863E+02  0.88172820098E+02  0.00000000000E+00 0.  1.
         12    1    4    4    0    0  0.11944094838E+02  0.45449110702E+01  0.16051097396E+02  0.20517196342E+02  0.00000000000E+00 0. -1.
         -5    1    5    5    0  502  0.36373242521E+02  0.43837412575E+01  0.28009248497E+03  0.28251746865E+03  0.47000000000E+01 0.  1.
         11    1    6    6    0    0 -0.20592621988E+02  0.29528660607E+02  0.52869496675E+02  0.63962344831E+02  0.00000000000E+00 0. -1.
        -12    1    6    6    0    0 -0.14516495571E+02 -0.54997866131E+02  0.56721203082E+02  0.80329252465E+02  0.00000000000E+00 0.  1.
</event>
<event>
12    1  0.8406581E-002  0.1968994E+03  0.7818608E-02  0.1152553E+00
         21   -1    0    0  501  502  0.00000000000E+00  0.00000000000E+00  0.13490983788E+03  0.13490983788E+03  0.00000000000E+00 0.  1.
         21   -1    0    0  502  503 -0.00000000000E+00 -0.00000000000E+00 -0.67744941426E+03  0.67744941426E+03  0.00000000000E+00 0.  1.
         -6    2    1    2    0  503  0.39093199123E+02 -0.86195418423E+02 -0.57971042348E+03  0.61198197536E+03  0.17175515917E+03 0.  0.
        -24    2    3    3    0    0 -0.25093243073E+02  0.82353647108E+01 -0.23765280629E+03  0.25134008145E+03  0.77430537430E+02 0.  0.
          6    2    1    2  501    0 -0.39093199123E+02  0.86195418423E+02  0.37170847100E+02  0.20037727679E+03  0.17265993399E+03 0.  0.
         24    2    5    5    0    0  0.12682368985E+02  0.12424694417E+02  0.69012970907E+02  0.10467544806E+03  0.76674270513E+02 0.  0.
          5    1    5    5  501    0 -0.51775568108E+02  0.73770724006E+02 -0.31842123807E+02  0.95701828728E+02  0.47000000000E+01 0. -1.
        -11    1    6    6    0    0 -0.18416591443E+02  0.33472767320E+02  0.48967262709E+02  0.62107888466E+02  0.00000000000E+00 0.  1.
         12    1    6    6    0    0  0.31098960428E+02 -0.21048072903E+02  0.20045708198E+02  0.42567559594E+02  0.00000000000E+00 0. -1.
         -5    1    3    3    0  503  0.64186442197E+02 -0.94430783134E+02 -0.34205761719E+03  0.36064189391E+03  0.47000000000E+01 0.  1.
         11    1    4    4    0    0 -0.44559944859E+02 -0.11369697761E+02 -0.89397585376E+02  0.10053251705E+03  0.00000000000E+00 0. -1.
        -12    1    4    4    0    0  0.19466701786E+02  0.19605062471E+02 -0.14825522091E+03  0.15080756440E+03  0.00000000000E+00 0.  1.
</event>
<event>
12    1  0.8406581E-002  0.1940240E+03  0.7818608E-02  0.1155563E+00
         21   -1    0    0  501  502  0.00000000000E+00  0.00000000000E+00  0.66640405027E+03  0.66640405027E+03  0.00000000000E+00 0.  1.
         21   -1    0    0  502  503 -0.00000000000E+00 -0.00000000000E+00 -0.96602632984E+02  0.96602632984E+02  0.00000000000E+00 0. -1.
         -6    2    1    2    0  503  0.47682944220E+02 -0.70696349493E+02  0.35038165580E+02  0.19413319752E+03  0.17084609545E+03 0.  0.
        -24    2    3    3    0    0 -0.10392649386E+02 -0.12352247836E+02  0.66666031753E+02  0.10582000094E+03  0.80578704515E+02 0.  0.
          6    2    1    2  501    0 -0.47682944220E+02  0.70696349493E+02  0.53476325171E+03  0.56887348574E+03  0.17428043608E+03 0.  0.
         24    2    5    5    0    0  0.37475077522E+02  0.38484296472E+02  0.34712296258E+03  0.36025787479E+03  0.80037258136E+02 0.  0.
          5    1    5    5  501    0 -0.85158021742E+02  0.32212053020E+02  0.18764028913E+03  0.20861561095E+03  0.47000000000E+01 0. -1.
        -11    1    6    6    0    0  0.56414483307E+01 -0.20901345275E+02  0.15829109802E+03  0.15976471415E+03  0.00000000000E+00 0.  1.
         12    1    6    6    0    0  0.31833629191E+02  0.59385641747E+02  0.18883186456E+03  0.20049316064E+03  0.00000000000E+00 0. -1.
         -5    1    3    3    0  503  0.58075593606E+02 -0.58344101657E+02 -0.31627866173E+02  0.88313196576E+02  0.47000000000E+01 0.  1.
         11    1    4    4    0    0 -0.44033205110E+02 -0.18747279925E+02  0.36565610800E+02  0.60228129226E+02  0.00000000000E+00 0. -1.
        -12    1    4    4    0    0  0.33640555724E+02  0.63950320895E+01  0.30100420952E+02  0.45591871714E+02  0.00000000000E+00 0.  1.
</event>
<event>
12    1  0.8406581E-002  0.1852516E+03  0.7818608E-02  0.1163679E+00
         21   -1    0    0  503  502  0.00000000000E+00  0.00000000000E+00  0.12858368917E+04  0.12858368917E+04  0.00000000000E+00 0.  1.
         21   -1    0    0  501  503 -0.00000000000E+00 -0.00000000000E+00 -0.29264031276E+02  0.29264031276E+02  0.00000000000E+00 0.  1.
          6    2    1    2  501    0  0.56087575234E+02 -0.41253016061E+02  0.41987702482E+03  0.45892796792E+03  0.17166984689E+03 0.  0.
         24    2    3    3    0    0  0.98199576651E+01 -0.83153137029E+02  0.32777572584E+03  0.34756795783E+03  0.79722538173E+02 0.  0.
         -6    2    1    2    0  502 -0.56087575234E+02  0.41253016061E+02  0.83669583563E+03  0.85617295509E+03  0.16770384681E+03 0.  0.
        -24    2    5    5    0    0  0.71430433961E+01  0.44946938023E+02  0.69592903481E+03  0.70174129252E+03  0.77796978237E+02 0.  0.
          5    1    3    3  501    0  0.46267617569E+02  0.41900120967E+02  0.92101298979E+02  0.11136001009E+03  0.47000000000E+01 0. -1.
        -11    1    4    4    0    0 -0.25355987586E+02 -0.68662009249E+02  0.16671305725E+03  0.18207317507E+03  0.00000000000E+00 0.  1.
         12    1    4    4    0    0  0.35175945251E+02 -0.14491127779E+02  0.16106266859E+03  0.16549478276E+03  0.00000000000E+00 0. -1.
         -5    1    5    5    0  502 -0.63230618630E+02 -0.36939219611E+01  0.14076680082E+03  0.15443166257E+03  0.47000000000E+01 0.  1.
         13    1    6    6    0    0 -0.17249227671E+01 -0.22124282021E+02  0.14893603464E+03  0.15058021658E+03  0.00000000000E+00 0. -1.
        -14    1    6    6    0    0  0.88679661632E+01  0.67071220043E+02  0.54699300018E+03  0.55116107594E+03  0.00000000000E+00 0.  1.
</event>
<event>
12    1  0.8406581E-002  0.1872119E+03  0.7818608E-02  0.1161392E+00
         21   -1    0    0  503  502  0.00000000000E+00  0.00000000000E+00  0.23422019376E+03  0.23422019376E+03  0.00000000000E+00 0. -1.
         21   -1    0    0  501  503 -0.00000000000E+00 -0.00000000000E+00 -0.15425887923E+03  0.15425887923E+03  0.00000000000E+00 0.  1.
          6    2    1    2  501    0  0.61966197297E+02 -0.32564166738E+02  0.19358954343E+01  0.18722186514E+03  0.17363192256E+03 0.  0.
         24    2    3    3    0    0 -0.47707333315E+01  0.31253302126E+02 -0.16825051843E+02  0.92879136830E+02  0.85696691293E+02 0.  0.
         -6    2    1    2    0  502 -0.61966197297E+02  0.32564166738E+02  0.78025419091E+02  0.20125720785E+03  0.17180297764E+03 0.  0.
        -24    2    5    5    0    0 -0.32128310144E+01  0.45448403280E+02 -0.11775709618E+02  0.93070820917E+02  0.80297140207E+02 0.  0.
          5    1    3    3  501    0  0.66736930628E+02 -0.63817468864E+02  0.18760947277E+02  0.94342728308E+02  0.47000000000E+01 0. -1.
        -13    1    4    4    0    0  0.35399933022E+02  0.33376473435E+02  0.14970031970E+01  0.48676331573E+02  0.00000000000E+00 0.  1.
         14    1    4    4    0    0 -0.40170666353E+02 -0.21231713087E+01 -0.18322055040E+02  0.44202805257E+02  0.00000000000E+00 0. -1.
         -5    1    5    5    0  502 -0.58753366282E+02 -0.12884236542E+02  0.89801128709E+02  0.10818638694E+03  0.47000000000E+01 0.  1.
         13    1    6    6    0    0  0.50667034296E+01  0.37112277995E+02  0.31056162893E+02  0.48656735559E+02  0.00000000000E+00 0. -1.
        -14    1    6    6    0    0 -0.82795344440E+01  0.83361252845E+01 -0.42831872511E+02  0.44414085358E+02  0.00000000000E+00 0.  1.
</event>
<event>
12    1  0.8406581E-002  0.2089049E+03  0.7818608E-02  0.1142829E+00
         21   -1    0    0  503  502  0.00000000000E+00  0.00000000000E+00  0.48108865993E+02  0.48108865993E+02  0.00000000000E+00 0.  1.
         21   -1    0    0  501  503 -0.00000000000E+00 -0.00000000000E+00 -0.91109819724E+03  0.91109819724E+03  0.00000000000E+00 0.  1.
          6    2    1    2  501    0 -0.10616240751E+03 -0.54294948392E+02 -0.48958318073E+03  0.53229027345E+03  0.17153088984E+03 0.  0.
         24    2    3    3    0    0 -0.79718243089E+02 -0.79402627955E+02 -0.47178995901E+03  0.49144448855E+03  0.79196870500E+02 0.  0.
         -6    2    1    2    0  502  0.10616240751E+03  0.54294948392E+02 -0.37340615052E+03  0.42691678978E+03  0.16913720456E+03 0.  0.
        -24    2    5    5    0    0  0.19935499302E+02  0.69479024336E+02 -0.13603614898E+03  0.17387085820E+03  0.80625570054E+02 0.  0.
          5    1    3    3  501    0 -0.26444164419E+02  0.25107679564E+02 -0.17793221720E+02  0.40845784900E+02  0.47000000000E+01 0. -1.
        -11    1    4    4    0    0 -0.34222149887E+02  0.57218105704E+01 -0.20086855750E+03  0.20384325363E+03  0.00000000000E+00 0.  1.
         12    1    4    4    0    0 -0.45496093201E+02 -0.85124438526E+02 -0.27092140152E+03  0.28760123493E+03  0.00000000000E+00 0. -1.
         -5    1    5    5    0  502  0.86226908206E+02 -0.15184075944E+02 -0.23737000154E+03  0.25304593158E+03  0.47000000000E+01 0.  1.
         11    1    6    6    0    0 -0.27181508538E+02  0.28524505559E+02 -0.25528580716E+02  0.46948804640E+02  0.00000000000E+00 0. -1.
        -12    1    6    6    0    0  0.47117007840E+02  0.40954518778E+02 -0.11050756826E+03  0.12692205356E+03  0.00000000000E+00 0.  1.
</event>
<event>
12    1  0.8406581E-002  0.2232144E+03  0.7818608E-02  0.1131964E+00
         21   -1    0    0  503  502  0.00000000000E+00  0.00000000000E+00  0.69527555247E+03  0.69527555247E+03  0.00000000000E+00 0. -1.
         21   -1    0    0  501  503 -0.00000000000E+00 -0.00000000000E+00 -0.21225935532E+03  0.21225935532E+03  0.00000000000E+00 0.  1.
          6    2    1    2  501    0 -0.86201730988E+02  0.10942176775E+03 -0.12838781281E+03  0.25750360107E+03  0.17441563120E+03 0.  0.
         24    2    3    3    0    0 -0.11068055972E+03  0.49827543197E+02 -0.12413901036E+03  0.19276700417E+03  0.83759498821E+02 0.  0.
         -6    2    1    2    0  502  0.86201730988E+02 -0.10942176775E+03  0.61140400996E+03  0.65003130671E+03  0.17123660422E+03 0.  0.
        -24    2    5    5    0    0 -0.15251949583E+02 -0.84200463381E+02  0.30033782973E+03  0.32183438110E+03  0.77795995354E+02 0.  0.
          5    1    3    3  501    0  0.24478828730E+02  0.59594224557E+02 -0.42488024443E+01  0.64736596904E+02  0.47000000000E+01 0. -1.
        -11    1    4    4    0    0 -0.42614576728E+02 -0.12798302887E+02 -0.95528471978E+01  0.45508851843E+02  0.00000000000E+00 0.  1.
         12    1    4    4    0    0 -0.68065982990E+02  0.62625846084E+02 -0.11458616316E+03  0.14725815233E+03  0.00000000000E+00 0. -1.
         -5    1    5    5    0  502  0.10145368057E+03 -0.25221304373E+02  0.31106618023E+03  0.32819692561E+03  0.47000000000E+01 0.  1.
         13    1    6    6    0    0  0.10733682400E+02  0.10546146970E+02  0.66779782091E+02  0.68454163131E+02  0.00000000000E+00 0. -1.
        -14    1    6    6    0    0 -0.25985631983E+02 -0.94746610351E+02  0.23355804763E+03  0.25338021797E+03  0.00000000000E+00 0.  1.
</event>
<event>
12    1  0.8406581E-002  0.1798843E+03  0.7818608E-02  0.1168862E+00
         21   -1    0    0  501  502  0.00000000000E+00  0.00000000000E+00  0.15359219690E+03  0.15359219690E+03  0.00000000000E+00 0. -1.
         21   -1    0    0  502  503 -0.00000000000E+00 -0.00000000000E+00 -0.29422746349E+03  0.29422746349E+03  0.00000000000E+00 0. -1.
         -6    2    1    2    0  503  0.17098052633E+01 -0.49069309553E+02 -0.19226729055E+03  0.26067206534E+03  0.16903400267E+03 0.  0.
        -24    2    3    3    0    0 -0.28624976201E+01 -0.78011044861E+02 -0.20070808782E+03  0.22981972256E+03  0.80246192101E+02 0.  0.
          6    2    1    2  501    0 -0.17098052633E+01  0.49069309553E+02  0.51632023960E+02  0.18714759506E+03  0.17305385249E+03 0.  0.
         24    2    5    5    0    0  0.30156202804E+02 -0.28703184819E+02  0.25022225576E+01  0.89680519915E+02  0.79391845603E+02 0.  0.
          5    1    5    5  501    0 -0.31866008067E+02  0.77772494371E+02  0.49129801402E+02  0.97467075142E+02  0.47000000000E+01 0. -1.
        -11    1    6    6    0    0 -0.17811428468E+02 -0.36903272678E+02  0.16301934878E+01  0.41009219076E+02  0.00000000000E+00 0.  1.
         12    1    6    6    0    0  0.47967631271E+02  0.82000878592E+01  0.87202906983E+00  0.48671300839E+02  0.00000000000E+00 0. -1.
         -5    1    3    3    0  503  0.45723028835E+01  0.28941735308E+02  0.84407972778E+01  0.30852342779E+02  0.47000000000E+01 0.  1.
         13    1    4    4    0    0  0.26850456208E+02 -0.37439922762E+02 -0.15555696253E+03  0.16223644291E+03  0.00000000000E+00 0. -1.
        -14    1    4    4    0    0 -0.29712953828E+02 -0.40571122098E+02 -0.45151125293E+02  0.67583279653E+02  0.00000000000E+00 0.  1.
</event>
<event>
12    1  0.8406581E-002  0.2257529E+03  0.7818608E-02  0.1129699E+00
         21   -1    0    0  503  502  0.00000000000E+00  0.00000000000E+00  0.12434160793E+03  0.12434160793E+03  0.00000000000E+00 0.  1.
         21   -1    0    0  501  503 -0.00000000000E+00 -0.00000000000E+00 -0.43699848888E+03  0.43699848888E+03  0.00000000000E+00 0. -1.
          6    2    1    2  501    0  0.64993218323E+02 -0.13104120332E+03 -0.22675742563E+03  0.31997388438E+03  0.17195476502E+03 0.  0.
         24    2    3    3    0    0  0.68020004020E+02 -0.45953250937E+02 -0.51018586824E+02  0.12463993818E+03  0.78700671980E+02 0.  0.
         -6    2    1    2    0  502 -0.64993218323E+02  0.13104120332E+03 -0.85899455327E+02  0.24136621243E+03  0.17170619290E+03 0.  0.
        -24    2    5    5    0    0 -0.25588220291E+02  0.28684225150E+01 -0.64960689641E+02  0.10556658975E+03  0.79129190621E+02 0.  0.
          5    1    3    3  501    0 -0.30267856963E+01 -0.85087952385E+02 -0.17573883881E+03  0.19533394620E+03  0.47000000000E+01 0. -1.
        -13    1    4    4    0    0  0.39394157955E+02  0.10476552457E+02 -0.45553318581E+02  0.61129065641E+02  0.00000000000E+00 0.  1.
         14    1    4    4    0    0  0.28625846065E+02 -0.56429803394E+02 -0.54652682426E+01  0.63510872542E+02  0.00000000000E+00 0. -1.
         -5    1    5    5    0  502 -0.39404998033E+02  0.12817278081E+03 -0.20938765686E+02  0.13579962267E+03  0.47000000000E+01 0.  1.
         11    1    6    6    0    0  0.28734792528E+02 -0.22926673398E+00 -0.24467133710E+02  0.37740979013E+02  0.00000000000E+00 0. -1.
        -12    1    6    6    0    0 -0.54323012819E+02  0.30976892490E+01 -0.40493555931E+02  0.67825610741E+02  0.00000000000E+00 0.  1.
</event>
<event>
12    1  0.8406581E-002  0.1821879E+03  0.7818608E-02  0.1166187E+00
         21   -1    0    0  501  502  0.00000000000E+00  0.00000000000E+00  0.77498748644E+02  0.77498748644E+02  0.00000000000E+00 0.  1.
         21   -1    0    0  502  503 -0.00000000000E+00 -0.00000000000E+00 -0.62786769101E+03  0.62786769101E+03  0.00000000000E+00 0.  1.
         -6    2    1    2    0  503  0.46280264711E+02  0.29601729963E+02 -0.47533339065E+03  0.50833147716E+03  0.17158360377E+03 0.  0.
        -24    2    3    3    0    0  0.87569966007E+02  0.27001859035E+02 -0.42894201487E+03  0.44599490275E+03  0.80762626395E+02 0.  0.
          6    2    1    2  501    0 -0.46280264711E+02 -0.29601729963E+02 -0.75035551717E+02  0.19703496250E+03  0.17370756203E+03 0.  0.
         24    2    5    5    0    0  0.78495190892E+01  0.43179914668E+02 -0.32655984921E+02  0.96808623788E+02  0.79870997914E+02 0.  0.
          5    1    5    5  501    0 -0.54129783800E+02 -0.72781644631E+02 -0.42379566796E+02  0.10022633871E+03  0.47000000000E+01 0. -1.
        -13    1    6    6    0    0 -0.22764039241E+02 -0.12649609862E+02 -0.19393531386E+01  0.26114654944E+02  0.00000000000E+00 0.  1.
         14    1    6    6    0    0  0.30613558330E+02  0.55829524530E+02 -0.30716631783E+02  0.70693968844E+02  0.00000000000E+00 0. -1.
         -5    1    3    3    0  503 -0.41289701295E+02  0.25998709281E+01 -0.46391375779E+02  0.62336574405E+02  0.47000000000E+01 0.  1.
         13    1    4    4    0    0  0.21603823609E+02 -0.25643064335E+02 -0.18107157337E+03  0.18414995690E+03  0.00000000000E+00 0. -1.
        -14    1    4    4    0    0  0.65966142398E+02  0.52644923370E+02 -0.24787044149E+03  0.26184494585E+03  0.00000000000E+00 0.  1.
</event>
<event>
12    1  0.8406581E-002  0.2387060E+03  0.7818608E-02  0.1121073E+00
         21   -1    0    0  501  502  0.00000000000E+00  0.00000000000E+00  0.21073175384E+03  0.21073175384E+03  0.00000000000E+00 0. -1.
         21   -1    0    0  502  503 -0.00000000000E+00 -0.00000000000E+00 -0.28298328003E+03  0.28298328003E+03  0.00000000000E+00 0. -1.
         -6    2    1    2    0  503 -0.16009111264E+03 -0.29449605602E+02 -0.93476622827E+02  0.25406722696E+03  0.17121867065E+03 0.  0.
        -24    2    3    3    0    0 -0.11720783679E+03  0.14164129986E+02  0.29712248727E+00  0.14201037268E+03  0.78921214407E+02 0.  0.
          6    2    1    2  501    0  0.16009111264E+03  0.29449605602E+02  0.21225096637E+02  0.23964780692E+03  0.17459703038E+03 0.  0.
         24    2    5    5    0    0  0.87217138960E+02 -0.31705065200E+02 -0.37839485474E+02  0.12757093749E+03  0.78933370277E+02 0.  0.
          5    1    5    5  501    0  0.72873973684E+02  0.61154670802E+02  0.59064582111E+02  0.11207686943E+03  0.47000000000E+01 0. -1.
        -11    1    6    6    0    0  0.16210323507E+02 -0.30436550944E+02  0.16423153786E+02  0.38195264128E+02  0.00000000000E+00 0.  1.
         12    1    6    6    0    0  0.71006815453E+02 -0.12685142561E+01 -0.54262639260E+02  0.89375673361E+02  0.00000000000E+00 0. -1.
         -5    1    3    3    0  503 -0.42883275852E+02 -0.43613735588E+02 -0.93773745315E+02  0.11205685428E+03  0.47000000000E+01 0.  1.
         11    1    4    4    0    0 -0.31431579178E+02 -0.19519501965E+02  0.27302063203E+02  0.45982146337E+02  0.00000000000E+00 0. -1.
        -12    1    4    4    0    0 -0.85776257614E+02  0.33683631951E+02 -0.27004940716E+02  0.96028226344E+02  0.00000000000E+00 0.  1.
</event>
<event>
12    1  0.8406581E-002  0.1795719E+03  0.7818608E-02  0.1168970E+00
         21   -1    0    0  503  502  0.00000000000E+00  0.00000000000E+00  0.12909243875E+03  0.12909243875E+03  0.00000000000E+00 0.  1.
         21   -1    0    0  501  503 -0.00000000000E+00 -0.00000000000E+00 -0.24562381737E+03  0.24562381737E+03  0.00000000000E+00 0.  1.
          6    2    1    2  501    0  0.46644845905E+02 -0.22188597966E+02 -0.55323377057E+02  0.18790085748E+03  0.17198250103E+03 0.  0.
         24    2    3    3    0    0  0.95216525836E+02  0.28859317315E+01 -0.34537272214E+02  0.12923151041E+03  0.80208757105E+02 0.  0.
         -6    2    1    2    0  502 -0.46644845905E+02  0.22188597966E+02 -0.61208001567E+02  0.18681539864E+03  0.16877647403E+03 0.  0.
        -24    2    5    5    0    0 -0.81747810192E+02 -0.67200702842E+01 -0.56316112574E+01  0.11485183591E+03  0.80195793843E+02 0.  0.
          5    1    3    3  501    0 -0.48571679931E+02 -0.25074529697E+02 -0.20786104842E+02  0.58669347068E+02  0.47000000000E+01 0. -1.
        -11    1    4    4    0    0 -0.11128238747E+02 -0.82369278170E+01 -0.15221149168E+02  0.20575909687E+02  0.00000000000E+00 0.  1.
         12    1    4    4    0    0  0.10634476458E+03  0.11122859549E+02 -0.19316123046E+02  0.10865560072E+03  0.00000000000E+00 0. -1.
         -5    1    5    5    0  502  0.35102964287E+02  0.28908668250E+02 -0.55576390309E+02  0.71963562735E+02  0.47000000000E+01 0.  1.
         11    1    6    6    0    0 -0.52016751955E+02  0.32028180604E+02 -0.19426286949E+02  0.64100916229E+02  0.00000000000E+00 0. -1.
        -12    1    6    6    0    0 -0.29731058236E+02 -0.38748250888E+02  0.13794675692E+02  0.50750919678E+02  0.00000000000E+00 0.  1.
</event>
<event>
12    1  0.8406581E-002  0.2087190E+03  0.7818608E-02  0.1142733E+00
         21   -1    0    0  501  502  0.00000000000E+00  0.00000000000E+00  0.29164639064E+03  0.29164639064E+03  0.00000000000E+00 0. -1.
         21   -1    0    0  502  503 -0.00000000000E+00 -0.00000000000E+00 -0.17887060137E+03  0.17887060137E+03  0.00000000000E+00 0.  1.
         -6    2    1    2    0  503  0.33146950881E+02 -0.11164821045E+03 -0.39923791708E+02  0.21250303535E+03  0.17320389037E+03 0.  0.
        -24    2    3    3    0    0 -0.41978353781E+02 -0.97780739909E+02 -0.21665402300E+02  0.13381646138E+03  0.78193352637E+02 0.  0.
          6    2    1    2  501    0 -0.33146950881E+02  0.11164821045E+03  0.15269958098E+03  0.25801395665E+03  0.17230785399E+03 0.  0.
         24    2    5    5    0    0 -0.41699734690E+02  0.83970735445E+02  0.17992114643E+03  0.21798526246E+03  0.79724547243E+02 0.  0.
          5    1    5    5  501    0  0.85527838097E+01  0.27677475006E+02 -0.27221565445E+02  0.40028694194E+02  0.47000000000E+01 0. -1.
        -13    1    6    6    0    0 -0.10040262154E+02  0.11958992046E+02 -0.55100211947E+01  0.16558523135E+02  0.00000000000E+00 0.  1.
         14    1    6    6    0    0 -0.31659472537E+02  0.72011743400E+02  0.18543116762E+03  0.20142673932E+03  0.00000000000E+00 0. -1.
         -5    1    3    3    0  503  0.75125304661E+02 -0.13867470542E+02 -0.18258389408E+02  0.78686573972E+02  0.47000000000E+01 0.  1.
         13    1    4    4    0    0 -0.72571417808E+01  0.13261897147E+02  0.14873553279E+01  0.15190663206E+02  0.00000000000E+00 0. -1.
        -14    1    4    4    0    0 -0.34721212000E+02 -0.11104263706E+03 -0.23152757627E+02  0.11862579818E+03  0.00000000000E+00 0.  1.
</event>
<event>
12    1  0.8406581E-002  0.3256288E+03  0.7818608E-02  0.1073256E+00
         21   -1    0    0  503  502  0.00000000000E+00  0.00000000000E+00  0.49151438704E+03  0.49151438704E+03  0.00000000000E+00 0. -1.
         21   -1    0    0  501  503 -0.00000000000E+00 -0.00000000000E+00 -0.22419706905E+03  0.22419706905E+03  0.00000000000E+00 0. -1.
          6    2    1    2  501    0 -0.19719257540E+03  0.19353786069E+03  0.59870356928E+02  0.32961771175E+03  0.16947436662E+03 0.  0.
         24    2    3    3    0    0 -0.21324387287E+03  0.18288378612E+03  0.79324781573E+02  0.30183789725E+03  0.76774127823E+02 0.  0.
         -6    2    1    2    0  502  0.19719257540E+03 -0.19353786069E+03  0.20744696106E+03  0.38609374435E+03  0.17231460315E+03 0.  0.
        -24    2    5    5    0    0  0.19659672876E+03 -0.19617062206E+03  0.14871609115E+03  0.32711331077E+03  0.88053708590E+02 0.  0.
          5    1    3    3  501    0  0.16051297462E+02  0.10654074572E+02 -0.19454424644E+02  0.27779814496E+02  0.47000000000E+01 0. -1.
        -13    1    4    4    0    0 -0.82235917263E+02  0.76447530796E+02 -0.65155888295E+01  0.11246965791E+03  0.00000000000E+00 0.  1.
         14    1    4    4    0    0 -0.13100795560E+03  0.10643625533E+03  0.85840370402E+02  0.18936823934E+03  0.00000000000E+00 0. -1.
         -5    1    5    5    0  502  0.59584664876E+00  0.26327613679E+01  0.58730869907E+02  0.58980433583E+02  0.47000000000E+01 0. -1.
         13    1    6    6    0    0  0.13248841146E+03 -0.88698349102E+02  0.11772825730E+03  0.19819313528E+03  0.00000000000E+00 0. -1.
        -14    1    6    6    0    0  0.64108317291E+02 -0.10747227296E+03  0.30987833857E+02  0.12892017549E+03  0.00000000000E+00 0.  1.
</event>
<event>
12    1  0.8406581E-002  0.1801067E+03  0.7818608E-02  0.1169248E+00
         21   -1    0    0  503  502  0.00000000000E+00  0.00000000000E+00  0.57117321594E+03  0.57117321594E+03  0.00000000000E+00 0.  1.
         21   -1    0    0  501  503 -0.00000000000E+00 -0.00000000000E+00 -0.12330251977E+03  0.12330251977E+03  0.00000000000E+00 0.  1.
          6    2    1    2  501    0 -0.76100544523E+01 -0.46126421745E+02 -0.36577110985E+02  0.17763135701E+03  0.16741999353E+03 0.  0.
         24    2    3    3    0    0 -0.43262685364E+02 -0.74484071218E+02 -0.54644029801E+02  0.12839955906E+03  0.77980381913E+02 0.  0.
         -6    2    1    2    0  502  0.76100544523E+01  0.46126421745E+02  0.48444780716E+03  0.51684437870E+03  0.17393353393E+03 0.  0.
        -24    2    5    5    0    0  0.71809229797E+02  0.35087318779E+02  0.32602986892E+03  0.34549173337E+03  0.81739690304E+02 0.  0.
          5    1    3    3  501    0  0.35652630912E+02  0.28357649472E+02  0.18066918816E+02  0.49231797957E+02  0.47000000000E+01 0. -1.
        -11    1    4    4    0    0  0.88553058119E+01 -0.55500740871E+02 -0.45222478599E+02  0.72137516237E+02  0.00000000000E+00 0.  1.
         12    1    4    4    0    0 -0.52117991176E+02 -0.18983330347E+02 -0.94215512017E+01  0.56262042820E+02  0.00000000000E+00 0. -1.
         -5    1    5    5    0  502 -0.64199175345E+02  0.11039102967E+02  0.15841793823E+03  0.17135264534E+03  0.47000000000E+01 0.  1.
         11    1    6    6    0    0  0.63518534281E+02  0.17874807808E+02  0.10755541361E+03  0.12618351694E+03  0.00000000000E+00 0. -1.
        -12    1    6    6    0    0  0.82906955162E+01  0.17212510971E+02  0.21847445531E+03  0.21930821642E+03  0.00000000000E+00 0.  1.
</event>
<event>
12    1  0.8406581E-002  0.2094688E+03  0.7818608E-02  0.1142026E+00
         21   -1    0    0  501  502  0.00000000000E+00  0.00000000000E+00  0.14542524875E+04  0.14542524875E+04  0.00000000000E+00 0.  1.
         21   -1    0    0  502  503 -0.00000000000E+00 -0.00000000000E+00 -0.23924660108E+03  0.23924660108E+03  0.00000000000E+00 0. -1.
         -6    2    1    2    0  503  0.10935234496E+03 -0.46570941756E+02 -0.18407294867E+03  0.27885488743E+03  0.17248307119E+03 0.  0.
        -24    2    3    3    0    0 -0.40579678433E+01  0.13232494674E+02 -0.76969293141E+02  0.11172729220E+03  0.79794421594E+02 0.  0.
          6    2    1    2  501    0 -0.10935234496E+03  0.46570941756E+02  0.13990788351E+04  0.14146442012E+04  0.17224935717E+03 0.  0.
         24    2    5    5    0    0 -0.15496987210E+02  0.48935122403E+02  0.39088970334E+03  0.40208218678E+03  0.78996974211E+02 0.  0.
          5    1    5    5  501    0 -0.93855357753E+02 -0.23641806473E+01  0.10081891318E+04  0.10125620144E+04  0.47000000000E+01 0. -1.
        -11    1    6    6    0    0 -0.28245309216E+02  0.91543063889E+01  0.30634293892E+03  0.30777848372E+03  0.00000000000E+00 0.  1.
         12    1    6    6    0    0  0.12748322006E+02  0.39780816014E+02  0.84546764424E+02  0.94303703063E+02  0.00000000000E+00 0. -1.
         -5    1    3    3    0  503  0.11341031281E+03 -0.59803436430E+02 -0.10710365553E+03  0.16712759523E+03  0.47000000000E+01 0.  1.
         11    1    4    4    0    0  0.21615200353E+02  0.38102609037E+02 -0.52666539773E+02  0.68503942320E+02  0.00000000000E+00 0. -1.
        -12    1    4    4    0    0 -0.25673168196E+02 -0.24870114363E+02 -0.24302753367E+02  0.43223349880E+02  0.00000000000E+00 0.  1.
</event>
<event>
12    1  0.8406581E-002  0.1991813E+03  0.7818608E-02  0.1150873E+00
         21   -1    0    0  501  502  0.00000000000E+00  0.00000000000E+00  0.16090618183E+04  0.16090618183E+04  0.00000000000E+00 0.  1.
         21   -1    0    0  502  503 -0.00000000000E+00 -0.00000000000E+00 -0.25007075119E+02  0.25007075119E+02  0.00000000000E+00 0.  1.
         -6    2    1    2    0  503 -0.36707404297E+01  0.98922389912E+02  0.92331318756E+03  0.94455302686E+03  0.17284115445E+03 0.  0.
        -24    2    3    3    0    0  0.11417630644E+02 -0.11521710832E+01  0.60923277427E+03  0.61453609894E+03  0.79739286885E+02 0.  0.
          6    2    1    2  501    0  0.36707404297E+01 -0.98922389912E+02  0.66074155559E+03  0.68951586652E+03  0.17045120517E+03 0.  0.
         24    2    5    5    0    0  0.12766666017E+02 -0.10522003291E+03  0.66400190010E+03  0.67706130848E+03  0.79241712660E+02 0.  0.
          5    1    5    5  501    0 -0.90959255868E+01  0.62976429942E+01 -0.32603445127E+01  0.12454558037E+02  0.47000000000E+01 0. -1.
        -11    1    6    6    0    0 -0.10462914792E+02 -0.64031533031E+02  0.19136067336E+03  0.20206042937E+03  0.00000000000E+00 0.  1.
         12    1    6    6    0    0  0.23229580808E+02 -0.41188499876E+02  0.47264122674E+03  0.47500087911E+03  0.00000000000E+00 0. -1.
         -5    1    3    3    0  503 -0.15088371073E+02  0.10007456100E+03  0.31408041329E+03  0.33001692792E+03  0.47000000000E+01 0.  1.
         11    1    4    4    0    0 -0.46216681988E+01 -0.82867452055E+01  0.58236250204E+03  0.58243979409E+03  0.00000000000E+00 0. -1.
        -12    1    4    4    0    0  0.16039298842E+02  0.71345741223E+01  0.26870272231E+02  0.32096304850E+02  0.00000000000E+00 0.  1.
</event>
<event>
12    1  0.8406581E-002  0.1969057E+03  0.7818608E-02  0.1153134E+00
         21   -1    0    0  501  502  0.00000000000E+00  0.00000000000E+00  0.70891164952E+03  0.70891164952E+03  0.00000000000E+00 0. -1.
         21   -1    0    0  502  503 -0.00000000000E+00 -0.00000000000E+00 -0.53765414960E+02  0.53765414960E+02  0.00000000000E+00 0. -1.
         -6    2    1    2    0  503  0.32551041777E+02  0.89733923440E+02  0.31453056378E+03  0.36924231682E+03  0.16822207240E+03 0.  0.
        -24    2    3    3    0    0  0.12250689976E+02  0.22120240776E+02  0.27680229951E+03  0.28905986056E+03  0.79351783325E+02 0.  0.
          6    2    1    2  501    0 -0.32551041777E+02 -0.89733923440E+02  0.34061567077E+03  0.39343474765E+03  0.17222113154E+03 0.  0.
         24    2    5    5    0    0 -0.69281366568E+01 -0.12757802007E+03  0.25365551278E+03  0.29508400798E+03  0.80058118388E+02 0.  0.
          5    1    5    5  501    0 -0.25622905120E+02  0.37844096629E+02  0.86960157989E+02  0.98350739671E+02  0.47000000000E+01 0. -1.
        -13    1    6    6    0    0  0.31794180364E+02 -0.23660051320E+02  0.74411232197E+02  0.84307172948E+02  0.00000000000E+00 0.  1.
         14    1    6    6    0    0 -0.38722317021E+02 -0.10391796875E+03  0.17924428059E+03  0.21077683503E+03  0.00000000000E+00 0. -1.
         -5    1    3    3    0  503  0.20300351801E+02  0.67613682665E+02  0.37728264273E+02  0.80182456259E+02  0.47000000000E+01 0.  1.
         11    1    4    4    0    0  0.39066222037E+02  0.23841745545E+02  0.23464821750E+03  0.23906983187E+03  0.00000000000E+00 0. -1.
        -12    1    4    4    0    0 -0.26815532062E+02 -0.17215047693E+01  0.42154082015E+02  0.49990028696E+02  0.00000000000E+00 0.  1.
</event>
<event>
12    1  0.8406581E-002  0.2547344E+03  0.7818608E-02  0.1110716E+00
         21   -1    0    0  503  502  0.00000000000E+00  0.00000000000E+00  0.12331505727E+04  0.12331505727E+04  0.00000000000E+00 0.  1.
         21   -1    0    0  501  503 -0.00000000000E+00 -0.00000000000E+00 -0.79536544825E+02  0.79536544825E+02  0.00000000000E+00 0. -1.
          6    2    1    2  501    0  0.18175584326E+03 -0.48389871193E+02  0.18978849914E+03  0.31576722182E+03  0.16826318011E+03 0.  0.
         24    2    3    3    0    0  0.11204959575E+03  0.24623678755E+02  0.15569375858E+03  0.20911601108E+03  0.79545723765E+02 0.  0.
         -6    2    1    2    0  502 -0.18175584326E+03  0.48389871193E+02  0.96382552877E+03  0.99691989573E+03  0.17179308019E+03 0.  0.
        -24    2    5    5    0    0 -0.10944230691E+03 -0.11426916176E+02  0.35164523122E+03  0.37757015422E+03  0.82441856902E+02 0.  0.
          5    1    3    3  501    0  0.69706247516E+02 -0.73013549948E+02  0.34094740557E+02  0.10665121074E+03  0.47000000000E+01 0. -1.
        -13    1    4    4    0    0 -0.97941733239E+01  0.14284090978E+02  0.19666655964E+02  0.26205694858E+02  0.00000000000E+00 0.  1.
         14    1    4    4    0    0  0.12184376907E+03  0.10339587778E+02  0.13602710261E+03  0.18291031623E+03  0.00000000000E+00 0. -1.
         -5    1    5    5    0  502 -0.72313536357E+02  0.59816787369E+02  0.61218029755E+03  0.61934974151E+03  0.47000000000E+01 0.  1.
         13    1    6    6    0    0 -0.71740637436E+02 -0.46640592302E+02  0.20637021444E+03  0.22340709326E+03  0.00000000000E+00 0. -1.
        -14    1    6    6    0    0 -0.37701669469E+02  0.35213676125E+02  0.14527501677E+03  0.15416306096E+03  0.00000000000E+00 0.  1.
</event>
<event>
12    1  0.8406581E-002  0.2006100E+03  0.7818608E-02  0.1149293E+00
         21   -1    0    0  501  502  0.00000000000E+00  0.00000000000E+00  0.21576422638E+03  0.21576422638E+03  0.00000000000E+00 0. -1.
         21   -1    0    0  502  503 -0.00000000000E+00 -0.00000000000E+00 -0.19150808073E+03  0.19150808073E+03  0.00000000000E+00 0. -1.
         -6    2    1    2    0  503 -0.20804520051E+02 -0.10172930351E+03  0.45946679063E+02  0.20549309502E+03  0.17127356929E+03 0.  0.
        -24    2    3    3    0    0 -0.42978464863E+01 -0.77554147651E+02  0.95086227211E+02  0.14810238475E+03  0.82823960667E+02 0.  0.
          6    2    1    2  501    0  0.20804520051E+02  0.10172930351E+03 -0.21690533422E+02  0.20177921209E+03  0.17164699807E+03 0.  0.
         24    2    5    5    0    0  0.19666930833E+02  0.13757775709E+03 -0.29887168748E+02  0.16468904407E+03  0.83155342378E+02 0.  0.
          5    1    5    5  501    0  0.11375892178E+01 -0.35848453583E+02  0.81966353263E+01  0.37090168026E+02  0.47000000000E+01 0. -1.
        -13    1    6    6    0    0  0.82163826243E+00  0.12161105107E+03  0.52638894150E+01  0.12172769349E+03  0.00000000000E+00 0.  1.
         14    1    6    6    0    0  0.18845292570E+02  0.15966706022E+02 -0.35151058163E+02  0.42961350575E+02  0.00000000000E+00 0. -1.
         -5    1    3    3    0  503 -0.16506673564E+02 -0.24175155857E+02 -0.49139548148E+02  0.57390710268E+02  0.47000000000E+01 0.  1.
         13    1    4    4    0    0  0.24931023175E+01  0.17247288114E+02  0.22775401342E+02  0.28677576829E+02  0.00000000000E+00 0. -1.
        -14    1    4    4    0    0 -0.67909488037E+01 -0.94801435766E+02  0.72310825869E+02  0.11942480792E+03  0.00000000000E+00 0.  1.
</event>
<event>
12    1  0.8406581E-002  0.2079832E+03  0.7818608E-02  0.1143503E+00
         21   -1    0    0  503  502  0.00000000000E+00  0.00000000000E+00  0.14717235387E+04  0.14717235387E+04  0.00000000000E+00 0. -1.
         21   -1    0    0  501  503 -0.00000000000E+00 -0.00000000000E+00 -0.31513799398E+02  0.31513799398E+02  0.00000000000E+00 0.  1.
          6    2    1    2  501    0  0.42638412065E+02  0.10768810740E+03  0.92811400289E+03  0.95113227071E+03  0.17274904158E+03 0.  0.
         24    2    3    3    0    0  0.24726987720E+02 -0.13882681302E+02  0.36215894116E+03  0.37197124156E+03  0.79995956924E+02 0.  0.
         -6    2    1    2    0  502 -0.42638412065E+02 -0.10768810740E+03  0.51209573639E+03  0.55210506737E+03  0.17077236170E+03 0.  0.
        -24    2    5    5    0    0 -0.17533411666E+02 -0.48846850926E+02  0.45923697848E+03  0.46898652072E+03  0.79726525335E+02 0.  0.
          5    1    3    3  501    0  0.17911424345E+02  0.12157078871E+03  0.56595506173E+03  0.57916102915E+03  0.47000000000E+01 0. -1.
        -13    1    4    4    0    0  0.31228730082E+02  0.21439943936E+02  0.92878102256E+02  0.10030576582E+03  0.00000000000E+00 0.  1.
         14    1    4    4    0    0 -0.65017423615E+01 -0.35322625238E+02  0.26928083890E+03  0.27166547574E+03  0.00000000000E+00 0. -1.
         -5    1    5    5    0  502 -0.25105000399E+02 -0.58841256478E+02  0.52858757910E+02  0.83118546648E+02  0.47000000000E+01 0.  1.
         13    1    6    6    0    0 -0.87377374867E+01 -0.69601958778E+02  0.29589405342E+03  0.30409549746E+03  0.00000000000E+00 0. -1.
        -14    1    6    6    0    0 -0.87956741790E+01  0.20755107852E+02  0.16334292506E+03  0.16489102326E+03  0.00000000000E+00 0.  1.
</event>
<event>
12    1  0.8406581E-002  0.1900829E+03  0.7818608E-02  0.1158451E+00
         21   -1    0    0  501  502  0.00000000000E+00  0.00000000000E+00  0.13869411269E+04  0.13869411269E+04  0.00000000000E+00 0.  1.
         21   -1    0    0  502  503 -0.00000000000E+00 -0.00000000000E+00 -0.26441181022E+02  0.26441181022E+02  0.00000000000E+00 0.  1.
         -6    2    1    2    0  503  0.39120939053E+02 -0.70620754349E+02  0.58970701200E+03  0.61949739074E+03  0.17176995751E+03 0.  0.
        -24    2    3    3    0    0 -0.12857341427E+02 -0.81667656125E+02  0.24687655723E+03  0.27254121713E+03  0.80596297934E+02 0.  0.
          6    2    1    2  501    0 -0.39120939053E+02  0.70620754349E+02  0.77079293389E+03  0.79388491720E+03  0.17208653640E+03 0.  0.
         24    2    5    5    0    0 -0.31025581127E+02  0.10518272231E+03  0.41297311028E+03  0.43427793643E+03  0.77617939305E+02 0.  0.
          5    1    5    5  501    0 -0.80953579259E+01 -0.34561967960E+02  0.35781982361E+03  0.35960698077E+03  0.47000000000E+01 0. -1.
        -11    1    6    6    0    0  0.15562818364E+02  0.59403089695E+02  0.27291342263E+03  0.27973677741E+03  0.00000000000E+00 0.  1.
         12    1    6    6    0    0 -0.46588399492E+02  0.45779632614E+02  0.14005968765E+03  0.15454115903E+03  0.00000000000E+00 0. -1.
         -5    1    3    3    0  503  0.51978280481E+02  0.11046901775E+02  0.34283045478E+03  0.34695617360E+03  0.47000000000E+01 0.  1.
         13    1    4    4    0    0 -0.23294018255E+02  0.80595194833E+01  0.63688729520E+02  0.68292176775E+02  0.00000000000E+00 0. -1.
        -14    1    4    4    0    0  0.10436676828E+02 -0.89727175608E+02  0.18318782771E+03  0.20424904036E+03  0.00000000000E+00 0.  1.
</event>
<event>
12    1  0.8406581E-002  0.2072030E+03  0.7818608E-02  0.1143989E+00
         21   -1    0    0  503  502  0.00000000000E+00  0.00000000000E+00  0.12075960822E+04  0.12075960822E+04  0.00000000000E+00 0. -1.
         21   -1    0    0  501  503 -0.00000000000E+00 -0.00000000000E+00 -0.35570263020E+02  0.35570263020E+02  0.00000000000E+00 0.  1.
          6    2    1    2  501    0  0.59347853203E+02  0.99957211206E+02  0.54069553822E+03  0.57870341143E+03  0.17038885411E+03 0.  0.
         24    2    3    3    0    0 -0.33654085143E+01  0.43235528346E+01  0.13269649477E+03  0.15495341526E+03  0.79825948732E+02 0.  0.
         -6    2    1    2    0  502 -0.59347853203E+02 -0.99957211206E+02  0.63133028100E+03  0.66446293382E+03  0.17152100445E+03 0.  0.
        -24    2    5    5    0    0 -0.28345921496E+02 -0.84345703652E+02  0.20858776905E+03  0.24027175011E+03  0.79397528363E+02 0.  0.
          5    1    3    3  501    0  0.62713261718E+02  0.95633658371E+02  0.40799904344E+03  0.42374999618E+03  0.47000000000E+01 0. -1.
        -13    1    4    4    0    0  0.37229934607E+02  0.28551556707E+01  0.81117675217E+02  0.89298920360E+02  0.00000000000E+00 0.  1.
         14    1    4    4    0    0 -0.40595343122E+02  0.14683971639E+01  0.51578819557E+02  0.65654494898E+02  0.00000000000E+00 0. -1.
         -5    1    5    5    0  502 -0.31001931707E+02 -0.15611507553E+02  0.42274251194E+03  0.42419118371E+03  0.47000000000E+01 0.  1.
         11    1    6    6    0    0 -0.22390534555E+02 -0.73476275441E+02  0.21353248470E+03  0.22692778832E+03  0.00000000000E+00 0. -1.
        -12    1    6    6    0    0 -0.59553869418E+01 -0.10869428211E+02 -0.49447156468E+01  0.13343961784E+02  0.00000000000E+00 0.  1.
</event>
<event>
12    1  0.8406581E-002  0.1881816E+03  0.7818608E-02  0.1160706E+00
         21   -1    0    0  501  502  0.00000000000E+00  0.00000000000E+00  0.38721014475E+03  0.38721014475E+03  0.00000000000E+00 0. -1.
         21   -1    0    0  502  503 -0.00000000000E+00 -0.00000000000E+00 -0.19728051369E+03  0.19728051369E+03  0.00000000000E+00 0. -1.
         -6    2    1    2    0  503 -0.14370434301E+02 -0.69111490890E+02 -0.12063643541E+03  0.22136037482E+03  0.17165185241E+03 0.  0.
        -24    2    3    3    0    0 -0.72076133302E+02 -0.45384586971E+02 -0.10572810750E+03  0.15703882393E+03  0.78917867312E+02 0.  0.
          6    2    1    2  501    0  0.14370434301E+02  0.69111490890E+02  0.31056606647E+03  0.36313028362E+03  0.17444028686E+03 0.  0.
         24    2    5    5    0    0 -0.31266964747E+02  0.49816513664E+02  0.77766589513E+02  0.12506988202E+03  0.78329590990E+02 0.  0.
          5    1    5    5  501    0  0.45637399048E+02  0.19294977226E+02  0.23279947696E+03  0.23806040160E+03  0.47000000000E+01 0. -1.
        -11    1    6    6    0    0 -0.23236646360E+01 -0.11581064140E+02  0.50595450659E+02  0.51955943753E+02  0.00000000000E+00 0.  1.
         12    1    6    6    0    0 -0.28943300111E+02  0.61397577804E+02  0.27171138855E+02  0.73113938262E+02  0.00000000000E+00 0. -1.
         -5    1    3    3    0  503  0.57705699001E+02 -0.23726903919E+02 -0.14908327916E+02  0.64321550883E+02  0.47000000000E+01 0.  1.
         13    1    4    4    0    0 -0.49182241470E+02 -0.51040666325E+02 -0.11208364515E+03  0.13261518015E+03  0.00000000000E+00 0. -1.
        -14    1    4    4    0    0 -0.22893891832E+02  0.56560793537E+01  0.63555376553E+01  0.24423643785E+02  0.00000000000E+00 0.  1.
</event>
<event>
12    1  0.8406581E-002  0.2262694E+03  0.7818608E-02  0.1129329E+00
         21   -1    0    0  501  502  0.00000000000E+00  0.00000000000E+00  0.15452385167E+03  0.15452385167E+03  0.00000000000E+00 0.  1.
         21   -1    0    0  502  503 -0.00000000000E+00 -0.00000000000E+00 -0.60439299393E+03  0.60439299393E+03  0.00000000000E+00 0. -1.
         -6    2    1    2    0  503 -0.14844459296E+03  0.16955842978E+01 -0.48007351575E+03  0.53064038296E+03  0.17049915930E+03 0.  0.
        -24    2    3    3    0    0 -0.15225473022E+03 -0.25687629206E+02 -0.46969492509E+03  0.50073783003E+03  0.79269758441E+02 0.  0.
          6    2    1    2  501    0  0.14844459296E+03 -0.16955842978E+01  0.30204373486E+02  0.22827646264E+03  0.17076055467E+03 0.  0.
         24    2    5    5    0    0  0.64603353340E+02 -0.46375686315E+02  0.62263299389E+02  0.12789952451E+03  0.78468288980E+02 0.  0.
          5    1    5    5  501    0  0.83841239623E+02  0.44680102017E+02 -0.32058925903E+02  0.10037693813E+03  0.47000000000E+01 0. -1.
        -13    1    6    6    0    0 -0.17032863967E+02  0.14620915601E+01  0.90712282431E+01  0.19353122448E+02  0.00000000000E+00 0.  1.
         14    1    6    6    0    0  0.81636217306E+02 -0.47837777875E+02  0.53192071146E+02  0.10854640206E+03  0.00000000000E+00 0. -1.
         -5    1    3    3    0  503  0.38101372529E+01  0.27383213504E+02 -0.10378590659E+02  0.29902552930E+02  0.47000000000E+01 0.  1.
         11    1    4    4    0    0 -0.13120467470E+03 -0.40568196482E+02 -0.44225911346E+03  0.46309131785E+03  0.00000000000E+00 0. -1.
        -12    1    4    4    0    0 -0.21050055518E+02  0.14880567276E+02 -0.27435811625E+02  0.37646512179E+02  0.00000000000E+00 0.  1.
</event>
<event>
12    1  0.8406581E-002  0.2635604E+03  0.7818608E-02  0.1105047E+00
         21   -1    0    0  501  502  0.00000000000E+00  0.00000000000E+00  0.10073874987E+03  0.10073874987E+03  0.00000000000E+00 0. -1.
         21   -1    0    0  502  503 -0.00000000000E+00 -0.00000000000E+00 -0.78160106818E+03  0.78160106818E+03  0.00000000000E+00 0. -1.
         -6    2    1    2    0  503  0.74146041725E+02  0.18507545134E+03 -0.49209623821E+03  0.55815360580E+03  0.17212257788E+03 0.  0.
        -24    2    3    3    0    0  0.71247417836E+02  0.20717584457E+03 -0.47639590486E+03  0.53048738328E+03  0.80410077324E+02 0.  0.
          6    2    1    2  501    0 -0.74146041725E+02 -0.18507545134E+03 -0.18876608010E+03  0.32418621224E+03  0.17237606857E+03 0.  0.
         24    2    5    5    0    0  0.22573319583E+02 -0.91351217438E+02 -0.12189242251E+03  0.17374338937E+03  0.80463675039E+02 0.  0.
          5    1    5    5  501    0 -0.96719361308E+02 -0.93724233904E+02 -0.66873657593E+02  0.15044282287E+03  0.47000000000E+01 0. -1.
        -13    1    6    6    0    0  0.33122424491E+01 -0.58001234297E+02 -0.12211516199E+03  0.13523027368E+03  0.00000000000E+00 0.  1.
         14    1    6    6    0    0  0.19261077134E+02 -0.33349983141E+02  0.22273948096E+00  0.38513115697E+02  0.00000000000E+00 0. -1.
         -5    1    3    3    0  503  0.28986238887E+01 -0.22100393227E+02 -0.15700333353E+02  0.27666222522E+02  0.47000000000E+01 0.  1.
         13    1    4    4    0    0 -0.16573779921E+02  0.55027338751E+02 -0.12783355779E+03  0.14015747104E+03  0.00000000000E+00 0. -1.
        -14    1    4    4    0    0  0.87821197758E+02  0.15214850582E+03 -0.34856234707E+03  0.39032991224E+03  0.00000000000E+00 0.  1.
</event>
<event>
12    1  0.8406581E-002  0.2607542E+03  0.7818608E-02  0.1107252E+00
         21   -1    0    0  501  502  0.00000000000E+00  0.00000000000E+00  0.65656689352E+02  0.65656689352E+02  0.00000000000E+00 0.  1.
         21   -1    0    0  502  503 -0.00000000000E+00 -0.00000000000E+00 -0.25821442496E+04  0.25821442496E+04  0.00000000000E+00 0. -1.
         -6    2    1    2    0  503 -0.17168563521E+03  0.83928192360E+02 -0.22841109835E+04  0.22985279362E+04  0.17189470510E+03 0.  0.
        -24    2    3    3    0    0 -0.18748372233E+03  0.73160156951E+02 -0.22382147582E+04  0.22485871348E+04  0.77693271101E+02 0.  0.
          6    2    1    2  501    0  0.17168563521E+03 -0.83928192360E+02 -0.23237657677E+03  0.34927300280E+03  0.17740591377E+03 0.  0.
         24    2    5    5    0    0  0.45586959653E+02 -0.72941179860E+02 -0.53991541274E+02  0.13049251621E+03  0.81942807180E+02 0.  0.
          5    1    5    5  501    0  0.12609867555E+03 -0.10987012500E+02 -0.17838503550E+03  0.21878048659E+03  0.47000000000E+01 0. -1.
        -11    1    6    6    0    0 -0.11525360564E+02 -0.34534084588E+02  0.86595099853E+01  0.37422240014E+02  0.00000000000E+00 0.  1.
         12    1    6    6    0    0  0.57112320217E+02 -0.38407095272E+02 -0.62651051259E+02  0.93070276199E+02  0.00000000000E+00 0. -1.
         -5    1    3    3    0  503  0.15798087121E+02  0.10768035410E+02 -0.45896225322E+02  0.49940801376E+02  0.47000000000E+01 0.  1.
         11    1    4    4    0    0 -0.61151674892E+02  0.49852172804E+01 -0.38900586924E+03  0.39381460872E+03  0.00000000000E+00 0. -1.
        -12    1    4    4    0    0 -0.12633204744E+03  0.68174939670E+02 -0.18492088889E+04  0.18547725261E+04  0.00000000000E+00 0.  1.
</event>
<event>
12    1  0.8406581E-002  0.2098534E+03  0.7818608E-02  0.1141746E+00
         21   -1    0    0  503  502  0.00000000000E+00  0.00000000000E+00  0.45774096390E+03  0.45774096390E+03  0.00000000000E+00 0.  1.
         21   -1    0    0  501  503 -0.00000000000E+00 -0.00000000000E+00 -0.11686131945E+03  0.11686131945E+03  0.00000000000E+00 0. -1.
          6    2    1    2  501    0  0.36619889575E+02  0.11456480815E+03  0.49337128288E+02  0.21557500051E+03  0.17196603455E+03 0.  0.
         24    2    3    3    0    0  0.85036270752E+01  0.76940515956E+02  0.97436324688E+02  0.14818261018E+03  0.80449325178E+02 0.  0.
         -6    2    1    2    0  502 -0.36619889575E+02 -0.11456480815E+03  0.29154251616E+03  0.35902728284E+03  0.17157342311E+03 0.  0.
        -24    2    5    5    0    0 -0.76564970429E+02 -0.26937767415E+02  0.12285012016E+03  0.16472514127E+03  0.73853788882E+02 0.  0.
          5    1    3    3  501    0  0.28116262500E+02  0.37624292191E+02 -0.48099196399E+02  0.67392390327E+02  0.47000000000E+01 0. -1.
        -13    1    4    4    0    0 -0.29162330450E+02  0.25608652981E+02  0.10101054730E+02  0.40103315717E+02  0.00000000000E+00 0.  1.
         14    1    4    4    0    0  0.37665957526E+02  0.51331862975E+02  0.87335269958E+02  0.10807929446E+03  0.00000000000E+00 0. -1.
         -5    1    5    5    0  502  0.39945080854E+02 -0.87627040732E+02  0.16869239599E+03  0.19430214157E+03  0.47000000000E+01 0.  1.
         11    1    6    6    0    0 -0.19101327501E+02 -0.26215193514E+02  0.39634532518E+01  0.32677301678E+02  0.00000000000E+00 0. -1.
        -12    1    6    6    0    0 -0.57463642928E+02 -0.72257390136E+00  0.11888666691E+03  0.13204783959E+03  0.00000000000E+00 0.  1.
</event>
<event>
12    1  0.8406581E-002  0.1954007E+03  0.7818608E-02  0.1153994E+00
         21   -1    0    0  503  502  0.00000000000E+00  0.00000000000E+00  0.96635877343E+02  0.96635877343E+02  0.00000000000E+00 0. -1.
         21   -1    0    0  501  503 -0.00000000000E+00 -0.00000000000E+00 -0.46667908852E+03  0.46667908852E+03  0.00000000000E+00 0.  1.
          6    2    1    2  501    0 -0.76713565602E+02  0.53027188707E+02 -0.29697405664E+03  0.35469918254E+03  0.17006194721E+03 0.  0.
         24    2    3    3    0    0  0.21485287574E+02  0.41458446667E+02 -0.17268185293E+03  0.19580458710E+03  0.79624076860E+02 0.  0.
         -6    2    1    2    0  502  0.76713565602E+02 -0.53027188707E+02 -0.73069154537E+02  0.20861578332E+03  0.17171077373E+03 0.  0.
        -24    2    5    5    0    0  0.31448582563E+02  0.17738014384E+02 -0.75206915372E+02  0.12445348369E+03  0.92352254888E+02 0.  0.
          5    1    3    3  501    0 -0.98198853176E+02  0.11568742040E+02 -0.12429220371E+03  0.15889459544E+03  0.47000000000E+01 0. -1.
        -11    1    4    4    0    0  0.17529743801E+02  0.64906111637E+02 -0.11199469811E+03  0.13062506517E+03  0.00000000000E+00 0.  1.
         12    1    4    4    0    0  0.39555437722E+01 -0.23447664970E+02 -0.60687154816E+02  0.65179521928E+02  0.00000000000E+00 0. -1.
         -5    1    5    5    0  502  0.45264983039E+02 -0.70765203091E+02  0.21377608355E+01  0.84162299633E+02  0.47000000000E+01 0.  1.
         11    1    6    6    0    0  0.28408851646E+01  0.36671551361E+02  0.50931275323E+01  0.37132374767E+02  0.00000000000E+00 0. -1.
        -12    1    6    6    0    0  0.28607697399E+02 -0.18933536977E+02 -0.80300042904E+02  0.87321108922E+02  0.00000000000E+00 0.  1.
</event>
<event>
12    1  0.8406581E-002  0.1773674E+03  0.7818608E-02  0.1171223E+00
         21   -1    0    0  503  502  0.00000000000E+00  0.00000000000E+00  0.37875103248E+03  0.37875103248E+03  0.00000000000E+00 0. -1.
         21   -1    0    0  501  503 -0.00000000000E+00 -0.00000000000E+00 -0.10701285576E+03  0.10701285576E+03  0.00000000000E+00 0. -1.
          6    2    1    2  501    0 -0.29436598194E+02  0.33280634151E+02  0.16220955903E+02  0.17472007027E+03  0.16819592630E+03 0.  0.
         24    2    3    3    0    0 -0.26189792535E+02  0.79214818703E+01  0.73433598805E+02  0.11187896224E+03  0.79848316512E+02 0.  0.
         -6    2    1    2    0  502  0.29436598194E+02 -0.33280634151E+02  0.25551722082E+03  0.31104381796E+03  0.17171223787E+03 0.  0.
        -24    2    5    5    0    0  0.32308182016E+02  0.37368300439E+02  0.81919562146E+02  0.12353980454E+03  0.78173269992E+02 0.  0.
          5    1    3    3  501    0 -0.32468056595E+01  0.25359152280E+02 -0.57212642902E+02  0.62841108036E+02  0.47000000000E+01 0. -1.
        -11    1    4    4    0    0 -0.28747780921E+01  0.41362959766E+02  0.24389968364E+02  0.48104358914E+02  0.00000000000E+00 0.  1.
         12    1    4    4    0    0 -0.23315014442E+02 -0.33441477896E+02  0.49043630441E+02  0.63774603324E+02  0.00000000000E+00 0. -1.
         -5    1    5    5    0  502 -0.28715838222E+01 -0.70648934589E+02  0.17359765867E+03  0.18750401342E+03  0.47000000000E+01 0.  1.
         13    1    6    6    0    0 -0.25660094389E+02  0.16474437358E+02  0.22093242779E+02  0.37655795129E+02  0.00000000000E+00 0. -1.
        -14    1    6    6    0    0  0.57968276406E+02  0.20893863081E+02  0.59826319367E+02  0.85884009413E+02  0.00000000000E+00 0.  1.
</event>
<event>
12    1  0.8406581E-002  0.4243134E+03  0.7818608E-02  0.1035684E+00
         21   -1    0    0  501  502  0.00000000000E+00  0.00000000000E+00  0.20655549575E+03  0.20655549575E+03  0.00000000000E+00 0. -1.
         21   -1    0    0  502  503 -0.00000000000E+00 -0.00000000000E+00 -0.87316980809E+03  0.87316980809E+03  0.00000000000E+00 0. -1.
         -6    2    1    2    0  503 -0.62841228826E+02 -0.38325086426E+03 -0.35806777779E+03  0.55508937851E+03  0.17053281107E+03 0.  0.
        -24    2    3    3    0    0 -0.13420659109E+02 -0.35601780924E+03 -0.32878347022E+03  0.49134227923E+03  0.79936665471E+02 0.  0.
          6    2    1    2  501    0  0.62841228826E+02  0.38325086426E+03 -0.30854653455E+03  0.52463592533E+03  0.17091414562E+03 0.  0.
         24    2    5    5    0    0  0.58691214516E+01  0.25527048742E+03 -0.12895629032E+03  0.29682121181E+03  0.79218928514E+02 0.  0.
          5    1    5    5  501    0  0.56972107374E+02  0.12798037684E+03 -0.17959024423E+03  0.22781471352E+03  0.47000000000E+01 0. -1.
        -13    1    6    6    0    0 -0.14508042595E+02  0.67720175346E+01 -0.17475356068E+02  0.23700877434E+02  0.00000000000E+00 0.  1.
         14    1    6    6    0    0  0.20377164046E+02  0.24849846989E+03 -0.11148093425E+03  0.27312033438E+03  0.00000000000E+00 0. -1.
         -5    1    3    3    0  503 -0.49420569717E+02 -0.27233055021E+02 -0.29284307574E+02  0.63747099283E+02  0.47000000000E+01 0.  1.
         11    1    4    4    0    0 -0.15145817378E+02 -0.16408406548E+03 -0.10018117109E+03  0.19284512794E+03  0.00000000000E+00 0. -1.
        -12    1    4    4    0    0  0.17251582687E+01 -0.19193374375E+03 -0.22860229912E+03  0.29849715129E+03  0.00000000000E+00 0.  1.
</event>
<event>
12    1  0.8406581E-002  0.1819850E+03  0.7818608E-02  0.1166097E+00
         21   -1    0    0  501  502  0.00000000000E+00  0.00000000000E+00  0.28234520005E+03  0.28234520005E+03  0.00000000000E+00 0. -1.
         21   -1    0    0  502  503 -0.00000000000E+00 -0.00000000000E+00 -0.19108796276E+03  0.19108796276E+03  0.00000000000E+00 0. -1.
         -6    2    1    2    0  503 -0.22057480598E+02 -0.55611630864E+02 -0.10194436544E+03  0.20859338292E+03  0.17187018303E+03 0.  0.
        -24    2    3    3    0    0 -0.20303340612E+02 -0.39677224120E+02  0.11759688740E+02  0.93668693398E+02  0.81541560506E+02 0.  0.
          6    2    1    2  501    0  0.22057480598E+02  0.55611630864E+02  0.19320160273E+03  0.26483977989E+03  0.17097971744E+03 0.  0.
         24    2    5    5    0    0  0.57728305456E+02  0.27476415698E+01  0.17057577503E+03  0.19700890794E+03  0.79851787676E+02 0.  0.
          5    1    5    5  501    0 -0.35670824858E+02  0.52863989294E+02  0.22625827705E+02  0.67830871950E+02  0.47000000000E+01 0. -1.
        -13    1    6    6    0    0 -0.74793545783E+01 -0.11814453495E+02  0.18215908567E+00  0.13984106629E+02  0.00000000000E+00 0.  1.
         14    1    6    6    0    0  0.65207660034E+02  0.14562095064E+02  0.17039361594E+03  0.18302480131E+03  0.00000000000E+00 0. -1.
         -5    1    3    3    0  503 -0.17541399863E+01 -0.15934406744E+02 -0.11370405418E+03  0.11492468952E+03  0.47000000000E+01 0.  1.
         11    1    4    4    0    0  0.59398929706E+01 -0.39827880691E+02 -0.25817897939E+02  0.47834153727E+02  0.00000000000E+00 0. -1.
        -12    1    4    4    0    0 -0.26243233582E+02  0.15065657043E+00  0.37577586679E+02  0.45834539671E+02  0.00000000000E+00 0.  1.
</event>
<event>
12    1  0.8406581E-002  0.2064585E+03  0.7818608E-02  0.1144461E+00
         21   -1    0    0  503  502  0.00000000000E+00  0.00000000000E+00  0.25910768421E+03  0.25910768421E+03  0.00000000000E+00 0.  1.
         21   -1    0    0  501  503 -0.00000000000E+00 -0.00000000000E+00 -0.18921960312E+03  0.18921960312E+03  0.00000000000E+00 0.  1.
          6    2    1    2  501    0  0.26629515142E+02  0.11093835386E+03 -0.46427236813E+02  0.21161424799E+03  0.17207164844E+03 0.  0.
         24    2    3    3    0    0  0.81592028779E+02  0.78848226596E+02 -0.11963991614E+02  0.13908522315E+03  0.79544077132E+02 0.  0.
         -6    2    1    2    0  502 -0.26629515142E+02 -0.11093835386E+03  0.11631531791E+03  0.23671303934E+03  0.17171884107E+03 0.  0.
        -24    2    5    5    0    0 -0.81485856223E+02 -0.67987266314E+02  0.52689868688E+02  0.14224451619E+03  0.78708747783E+02 0.  0.
          5    1    3    3  501    0 -0.54962513637E+02  0.32090127266E+02 -0.34463245199E+02  0.72529024831E+02  0.47000000000E+01 0. -1.
        -11    1    4    4    0    0  0.78543903429E+02  0.73872884690E+02 -0.36522525904E+02  0.11384306196E+03  0.00000000000E+00 0.  1.
         12    1    4    4    0    0  0.30481253502E+01  0.49753419065E+01  0.24558534290E+02  0.25242161193E+02  0.00000000000E+00 0. -1.
         -5    1    5    5    0  502  0.54856341082E+02 -0.42951087548E+02  0.63625449219E+02  0.94468523154E+02  0.47000000000E+01 0.  1.
         13    1    6    6    0    0 -0.36546309668E+02  0.52652626751E+01  0.41551643434E+02  0.55586822300E+02  0.00000000000E+00 0. -1.
        -14    1    6    6    0    0 -0.44939546555E+02 -0.73252528989E+02  0.11138225255E+02  0.86657693886E+02  0.00000000000E+00 0.  1.
</event>
<event>
12    1  0.8406581E-002  0.2273655E+03  0.7818608E-02  0.1130048E+00
         21   -1    0    0  501  502  0.00000000000E+00  0.00000000000E+00  0.57859266217E+02  0.57859266217E+02  0.00000000000E+00 0. -1.
         21   -1    0    0  502  503 -0.00000000000E+00 -0.00000000000E+00 -0.13147496126E+04  0.13147496126E+04  0.00000000000E+00 0. -1.
         -6    2    1    2    0  503  0.82755354311E+02 -0.10660780718E+03 -0.10239857650E+04  0.10471252032E+04  0.17236783671E+03 0.  0.
        -24    2    3    3    0    0  0.82732588449E+02 -0.50662636025E+01 -0.60919440581E+03  0.62006004750E+03  0.80537508165E+02 0.  0.
          6    2    1    2  501    0 -0.82755354311E+02  0.10660780718E+03 -0.23290458144E+03  0.32548367562E+03  0.18297924971E+03 0.  0.
         24    2    5    5    0    0 -0.96679027496E+02  0.49763591450E+02 -0.23020295444E+03  0.26670849101E+03  0.79478107373E+02 0.  0.
          5    1    5    5  501    0  0.13923673186E+02  0.56844215734E+02 -0.27016269902E+01  0.58775184609E+02  0.47000000000E+01 0. -1.
        -11    1    6    6    0    0  0.87437257342E+01  0.22155190709E+02 -0.60586552396E+02  0.65100196208E+02  0.00000000000E+00 0.  1.
         12    1    6    6    0    0 -0.10542275323E+03  0.27608400740E+02 -0.16961640205E+03  0.20160829480E+03  0.00000000000E+00 0. -1.
         -5    1    3    3    0  503  0.22765861973E-01 -0.10154154358E+03 -0.41479135917E+03  0.42706515573E+03  0.47000000000E+01 0.  1.
         11    1    4    4    0    0  0.78709473383E+02 -0.27614167518E+02 -0.55487039380E+03  0.56110505020E+03  0.00000000000E+00 0. -1.
        -12    1    4    4    0    0  0.40231150654E+01  0.22547903915E+02 -0.54324012011E+02  0.58954997301E+02  0.00000000000E+00 0.  1.
</event>
<event>
12    1  0.8406581E-002  0.1796016E+03  0.7818608E-02  0.1168493E+00
         21   -1    0    0  501  502  0.00000000000E+00  0.00000000000E+00  0.40999747024E+03  0.40999747024E+03  0.00000000000E+00 0. -1.
         21   -1    0    0  502  503 -0.00000000000E+00 -0.00000000000E+00 -0.13230362988E+03  0.13230362988E+03  0.00000000000E+00 0. -1.
         -6    2    1    2    0  503  0.44144832797E+02  0.20957212902E+02 -0.34947806031E+02  0.18174383481E+03  0.17152696962E+03 0.  0.
        -24    2    3    3    0    0  0.22974313079E+02  0.43842498685E+02 -0.81573835901E+02  0.12545881129E+03  0.81459430852E+02 0.  0.
          6    2    1    2  501    0 -0.44144832797E+02 -0.20957212902E+02  0.31264164639E+03  0.36055726532E+03  0.17282584147E+03 0.  0.
         24    2    5    5    0    0 -0.54965679746E+02  0.45362699765E+02  0.24043680532E+03  0.26180985716E+03  0.75203347475E+02 0.  0.
          5    1    5    5  501    0  0.10820846949E+02 -0.66319912667E+02  0.72204841067E+02  0.98747408161E+02  0.47000000000E+01 0. -1.
        -11    1    6    6    0    0  0.85957927636E+01 -0.13769414971E+02  0.28801499147E+02  0.33060713770E+02  0.00000000000E+00 0.  1.
         12    1    6    6    0    0 -0.63561472510E+02  0.59132114736E+02  0.21163530618E+03  0.22874914339E+03  0.00000000000E+00 0. -1.
         -5    1    3    3    0  503  0.21170519718E+02 -0.22885285783E+02  0.46626029870E+02  0.56285023514E+02  0.47000000000E+01 0.  1.
         13    1    4    4    0    0  0.32906073062E+02 -0.92459975910E+01 -0.56218458984E+02  0.65793717378E+02  0.00000000000E+00 0. -1.
        -14    1    4    4    0    0 -0.99317599828E+01  0.53088496276E+02 -0.25355376917E+02  0.59665093914E+02  0.00000000000E+00 0.  1.
</event>
<event>
12    1  0.8406581E-002  0.1852111E+03  0.7818608E-02  0.1163192E+00
         21   -1    0    0  501  502  0.00000000000E+00  0.00000000000E+00  0.48521540003E+03  0.48521540003E+03  0.00000000000E+00 0.  1.
         21   -1    0    0  502  503 -0.00000000000E+00 -0.00000000000E+00 -0.75907581797E+02  0.75907581797E+02  0.00000000000E+00 0. -1.
         -6    2    1    2    0  503  0.52161538090E+02  0.46878877544E+02  0.28270074902E+03  0.33796872643E+03  0.17141963520E+03 0.  0.
        -24    2    3    3    0    0  0.53146899295E+02  0.93684976408E+02  0.17498962286E+03  0.22042912236E+03  0.79788233238E+02 0.  0.
          6    2    1    2  501    0 -0.52161538090E+02 -0.46878877544E+02  0.12660706922E+03  0.22315425541E+03  0.16985292613E+03 0.  0.
         24    2    5    5    0    0 -0.37027493056E+02 -0.86784293364E+02  0.43482764531E+02  0.12959560235E+03  0.77470772047E+02 0.  0.
          5    1    5    5  501    0 -0.15134045034E+02  0.39905415820E+02  0.83124304690E+02  0.93558653053E+02  0.47000000000E+01 0. -1.
        -13    1    6    6    0    0 -0.30256502394E+02 -0.91234190161E+02  0.58506588688E+02  0.11252623832E+03  0.00000000000E+00 0.  1.
         14    1    6    6    0    0 -0.67709906617E+01  0.44498967971E+01 -0.15023824158E+02  0.17069364029E+02  0.00000000000E+00 0. -1.
         -5    1    3    3    0  503 -0.98536120535E+00 -0.46806098864E+02  0.10771112615E+03  0.11753960407E+03  0.47000000000E+01 0.  1.
         11    1    4    4    0    0  0.24645328821E+02 -0.19071046365E+01  0.81208306963E+01  0.26018784983E+02  0.00000000000E+00 0. -1.
        -12    1    4    4    0    0  0.28501570474E+02  0.95592081045E+02  0.16686879217E+03  0.19441033737E+03  0.00000000000E+00 0.  1.
</event>
<event>
12    1  0.8406581E-002  0.2057791E+03  0.7818608E-02  0.1145067E+00
         21   -1    0    0  503  502  0.00000000000E+00  0.00000000000E+00  0.25992116442E+03  0.25992116442E+03  0.00000000000E+00 0. -1.
         21   -1    0    0  501  503 -0.00000000000E+00 -0.00000000000E+00 -0.29462139843E+03  0.29462139843E+03  0.00000000000E+00 0.  1.
          6    2    1    2  501    0 -0.10885980045E+03 -0.28066005377E+02 -0.20303521874E+03  0.28868222714E+03  0.17168567617E+03 0.  0.
         24    2    3    3    0    0 -0.10456374543E+03 -0.56006981155E+02 -0.21435774925E+03  0.25786917936E+03  0.80479253242E+02 0.  0.
         -6    2    1    2    0  502  0.10885980045E+03  0.28066005377E+02  0.16833498474E+03  0.26586033571E+03  0.17235688036E+03 0.  0.
        -24    2    5    5    0    0  0.81061156524E+02  0.79025145061E+02  0.79589689742E+02  0.15971225092E+03  0.79734557955E+02 0.  0.
          5    1    3    3  501    0 -0.42960550213E+01  0.27940975778E+02  0.11322530510E+02  0.30813047778E+02  0.47000000000E+01 0. -1.
        -11    1    4    4    0    0 -0.86639348029E+02 -0.68893280328E+02 -0.13034444179E+03  0.17100390115E+03  0.00000000000E+00 0.  1.
         12    1    4    4    0    0 -0.17924397400E+02  0.12886299172E+02 -0.84013307460E+02  0.86865278213E+02  0.00000000000E+00 0. -1.
         -5    1    5    5    0  502  0.27798643927E+02 -0.50959139684E+02  0.88745294994E+02  0.10614808479E+03  0.47000000000E+01 0.  1.
         13    1    6    6    0    0  0.74368063658E+02  0.24089230213E+02  0.25241808101E+02  0.82146508025E+02  0.00000000000E+00 0. -1.
        -14    1    6    6    0    0  0.66930928663E+01  0.54935914848E+02  0.54347881641E+02  0.77565742897E+02  0.00000000000E+00 0.  1.
</event>
<event>
12    1  0.8406581E-002  0.1762425E+03  0.7818608E-02  0.1171533E+00
         21   -1    0    0  501  502  0.00000000000E+00  0.00000000000E+00  0.99867782320E+03  0.99867782320E+03  0.00000000000E+00 0. -1.
         21   -1    0    0  502  503 -0.00000000000E+00 -0.00000000000E+00 -0.33156363559E+02  0.33156363559E+02  0.00000000000E+00 0. -1.
         -6    2    1    2    0  503 -0.11198171871E+02  0.36458735878E+02  0.35363383508E+03  0.39511807994E+03  0.17206617713E+03 0.  0.
        -24    2    3    3    0    0  0.38165950615E+02 -0.27291668209E+02  0.15421268557E+03  0.17996275122E+03  0.80022274989E+02 0.  0.
          6    2    1    2  501    0  0.11198171871E+02 -0.36458735878E+02  0.61188762457E+03  0.63671610682E+03  0.17189036362E+03 0.  0.
         24    2    5    5    0    0  0.49502187433E+02 -0.29366905628E+02  0.57404644478E+03  0.58220430486E+03  0.78228192683E+02 0.  0.
          5    1    5    5  501    0 -0.38304015563E+02 -0.70918302497E+01  0.37841179791E+02  0.54511801956E+02  0.47000000000E+01 0. -1.
        -11    1    6    6    0    0  0.10829962906E+02  0.26525760170E+02  0.14438762138E+03  0.14720288468E+03  0.00000000000E+00 0.  1.
         12    1    6    6    0    0  0.38672224527E+02 -0.55892665798E+02  0.42965882340E+03  0.43500142018E+03  0.00000000000E+00 0. -1.
         -5    1    3    3    0  503 -0.49364122485E+02  0.63750404087E+02  0.19942114951E+03  0.21515532873E+03  0.47000000000E+01 0.  1.
         11    1    4    4    0    0  0.31090504128E+02  0.18696855358E+02  0.10980400747E+03  0.11564217182E+03  0.00000000000E+00 0. -1.
        -12    1    4    4    0    0  0.70754464871E+01 -0.45988523567E+02  0.44408678098E+02  0.64320579392E+02  0.00000000000E+00 0.  1.
</event>
<event>
12    1  0.8406581E-002  0.1756910E+03  0.7818608E-02  0.1172438E+00
         21   -1    0    0  503  502  0.00000000000E+00  0.00000000000E+00  0.85037383521E+02  0.85037383521E+02  0.00000000000E+00 0.  1.
         21   -1    0    0  501  503 -0.00000000000E+00 -0.00000000000E+00 -0.37459859452E+03  0.37459859452E+03  0.00000000000E+00 0.  1.
          6    2    1    2  501    0 -0.55375143999E+01  0.37944824094E+02 -0.18996440561E+03  0.25767841539E+03  0.16982701969E+03 0.  0.
         24    2    3    3    0    0  0.13387354328E+02  0.23995932234E+02 -0.20958275672E+03  0.22669952030E+03  0.81931157519E+02 0.  0.
         -6    2    1    2    0  502  0.55375143999E+01 -0.37944824094E+02 -0.99596805391E+02  0.20195756265E+03  0.17145512453E+03 0.  0.
        -24    2    5    5    0    0  0.29817660478E+02 -0.65776579895E+01 -0.12753650325E+03  0.15321188264E+03  0.79220974886E+02 0.  0.
          5    1    3    3  501    0 -0.18924868728E+02  0.13948891860E+02  0.19618351109E+02  0.30978895086E+02  0.47000000000E+01 0. -1.
        -11    1    4    4    0    0  0.42491185044E+02  0.11398407557E+01 -0.66624268960E+02  0.79029065905E+02  0.00000000000E+00 0.  1.
         12    1    4    4    0    0 -0.29103830716E+02  0.22856091478E+02 -0.14295848776E+03  0.14767045440E+03  0.00000000000E+00 0. -1.
         -5    1    5    5    0  502 -0.24280146078E+02 -0.31367166104E+02  0.27939697857E+02  0.48745680007E+02  0.47000000000E+01 0.  1.
         13    1    6    6    0    0  0.48081831389E+02 -0.83965879358E+01 -0.38121126846E+02  0.61932104039E+02  0.00000000000E+00 0. -1.
        -14    1    6    6    0    0 -0.18264170912E+02  0.18189299463E+01 -0.89415376402E+02  0.91279778606E+02  0.00000000000E+00 0.  1.
</event>
<event>
12    1  0.8406581E-002  0.1977174E+03  0.7818608E-02  0.1151825E+00
         21   -1    0    0  503  502  0.00000000000E+00  0.00000000000E+00  0.47423206578E+02  0.47423206578E+02  0.00000000000E+00 0. -1.
         21   -1    0    0  501  503 -0.00000000000E+00 -0.00000000000E+00 -0.82180168559E+03  0.82180168559E+03  0.00000000000E+00 0. -1.
          6    2    1    2  501    0  0.65093037289E+01 -0.96538136233E+02 -0.39618853798E+03  0.44278385573E+03  0.17242448343E+03 0.  0.
         24    2    3    3    0    0  0.21890916194E+02 -0.82138215300E+02 -0.40269693316E+03  0.42023610789E+03  0.84897984477E+02 0.  0.
         -6    2    1    2    0  502 -0.65093037289E+01  0.96538136233E+02 -0.37818994103E+03  0.42644103644E+03  0.17164598241E+03 0.  0.
        -24    2    5    5    0    0  0.94422018595E+01  0.19090967299E+02 -0.76673392813E+02  0.11469300780E+03  0.82595742417E+02 0.  0.
          5    1    3    3  501    0 -0.15381612465E+02 -0.14399920933E+02  0.65083951847E+01  0.22547747843E+02  0.47000000000E+01 0. -1.
        -11    1    4    4    0    0  0.32220911626E+02  0.39180601679E+01 -0.87015239646E+02  0.92871902491E+02  0.00000000000E+00 0.  1.
         12    1    4    4    0    0 -0.10329995432E+02 -0.86056275468E+02 -0.31568169352E+03  0.32736420540E+03  0.00000000000E+00 0. -1.
         -5    1    5    5    0  502 -0.15951505588E+02  0.77447168934E+02 -0.30151654822E+03  0.31174802863E+03  0.47000000000E+01 0.  1.
         13    1    6    6    0    0  0.16303803079E+02  0.33195133732E+02 -0.56698886238E+00  0.36987192035E+02  0.00000000000E+00 0. -1.
        -14    1    6    6    0    0 -0.68616012195E+01 -0.14104166433E+02 -0.76106403950E+02  0.77705815769E+02  0.00000000000E+00 0.  1.
</event>
<event>
12    1  0.8406581E-002  0.1916688E+03  0.7818608E-02  0.1158059E+00
         21   -1    0    0  503  502  0.00000000000E+00  0.00000000000E+00  0.59917725317E+02  0.59917725317E+02  0.00000000000E+00 0.  1.
         21   -1    0    0  501  503 -0.00000000000E+00 -0.00000000000E+00 -0.60284072839E+03  0.60284072839E+03  0.00000000000E+00 0.  1.
          6    2    1    2  501    0  0.22901523081E+02 -0.70192023247E+02 -0.24441629759E+03  0.31060628745E+03  0.17687718731E+03 0.  0.
         24    2    3    3    0    0  0.41748679800E+02  0.22942944725E+02 -0.10075004447E+03  0.13829430337E+03  0.81886579517E+02 0.  0.
         -6    2    1    2    0  502 -0.22901523081E+02  0.70192023247E+02 -0.29850670549E+03  0.35215216625E+03  0.17162020595E+03 0.  0.
        -24    2    5    5    0    0 -0.58034309542E+02  0.99946155348E+02 -0.21971508236E+03  0.26077475692E+03  0.79821935442E+02 0.  0.
          5    1    3    3  501    0 -0.18847156719E+02 -0.93134967972E+02 -0.14366625311E+03  0.17231198408E+03  0.47000000000E+01 0. -1.
        -11    1    4    4    0    0  0.99295736857E+01 -0.14607891552E+02 -0.84703384384E+02  0.86525431263E+02  0.00000000000E+00 0.  1.
         12    1    4    4    0    0  0.31819106115E+02  0.37550836276E+02 -0.16046660089E+02  0.51768872105E+02  0.00000000000E+00 0. -1.
         -5    1    5    5    0  502  0.35132786461E+02 -0.29754132101E+02 -0.78791623129E+02  0.91377409335E+02  0.47000000000E+01 0.  1.
         13    1    6    6    0    0  0.94801696958E+01  0.62480846557E+02 -0.10236250517E+03  0.12029884567E+03  0.00000000000E+00 0. -1.
        -14    1    6    6    0    0 -0.67514479238E+02  0.37465308791E+02 -0.11735257718E+03  0.14047591125E+03  0.00000000000E+00 0.  1.
</event>
<event>
12    1  0.8406581E-002  0.1768088E+03  0.7818608E-02  0.1171294E+00
         21   -1    0    0  501  502  0.00000000000E+00  0.00000000000E+00  0.76622335791E+03  0.76622335791E+03  0.00000000000E+00 0.  1.
         21   -1    0    0  502  503 -0.00000000000E+00 -0.00000000000E+00 -0.82712399764E+03  0.82712399764E+03  0.00000000000E+00 0.  1.
         -6    2    1    2    0  503 -0.33438767680E+02  0.13908798223E+02 -0.80738780806E+03  0.82620693186E+03  0.17155528496E+03 0.  0.
        -24    2    3    3    0    0 -0.73863194794E+02 -0.20101209754E+02 -0.39082432973E+03  0.40628070449E+03  0.80377384615E+02 0.  0.
          6    2    1    2  501    0  0.33438767680E+02 -0.13908798223E+02  0.74648716833E+03  0.76714042369E+03  0.17305990673E+03 0.  0.
         24    2    5    5    0    0  0.16194474009E+02 -0.73789448491E+02  0.55217568456E+03  0.56302746313E+03  0.79967455402E+02 0.  0.
          5    1    5    5  501    0  0.17244293671E+02  0.59880650268E+02  0.19431148378E+03  0.20411296056E+03  0.47000000000E+01 0. -1.
        -11    1    6    6    0    0 -0.31567333431E+02 -0.18880947026E+02  0.21020225378E+03  0.21339628440E+03  0.00000000000E+00 0.  1.
         12    1    6    6    0    0  0.47761807440E+02 -0.54908501465E+02  0.34197343078E+03  0.34963117873E+03  0.00000000000E+00 0. -1.
         -5    1    3    3    0  503  0.40424427114E+02  0.34010007977E+02 -0.41656347833E+03  0.41992622737E+03  0.47000000000E+01 0.  1.
         13    1    4    4    0    0  0.55403436933E+01 -0.24240214276E+02 -0.16509720876E+03  0.16695919183E+03  0.00000000000E+00 0. -1.
        -14    1    4    4    0    0 -0.79403538488E+02  0.41390045227E+01 -0.22572712097E+03  0.23932151267E+03  0.00000000000E+00 0.  1.
</event>
<event>
12    1  0.8406581E-002  0.1768819E+03  0.7818608E-02  0.1171603E+00
         21   -1    0    0  503  502  0.00000000000E+00  0.00000000000E+00  0.26626679892E+02  0.26626679892E+02  0.00000000000E+00 0. -1.
         21   -1    0    0  501  503 -0.00000000000E+00 -0.00000000000E+00 -0.12583769438E+04  0.12583769438E+04  0.00000000000E+00 0. -1.
          6    2    1    2  501    0  0.16526676428E+02 -0.21071602205E+02 -0.42712488809E+03  0.46116552496E+03  0.17181626213E+03 0.  0.
         24    2    3    3    0    0 -0.22898774861E+02 -0.10923813173E+02 -0.94184574076E+02  0.12571256771E+03  0.79304678944E+02 0.  0.
         -6    2    1    2    0  502 -0.16526676428E+02  0.21071602205E+02 -0.80462537581E+03  0.82383809872E+03  0.17484299831E+03 0.  0.
        -24    2    5    5    0    0  0.26314795768E+02 -0.33187797690E+02 -0.62046134780E+03  0.62706931708E+03  0.80310310151E+02 0.  0.
          5    1    3    3  501    0  0.39425451289E+02 -0.10147789032E+02 -0.33294031401E+03  0.33545295725E+03  0.47000000000E+01 0. -1.
        -13    1    4    4    0    0  0.59673579953E+01  0.29079113498E+02 -0.17285877202E+02  0.34351211826E+02  0.00000000000E+00 0.  1.
         14    1    4    4    0    0 -0.28866132856E+02 -0.40002926671E+02 -0.76898696874E+02  0.91361355886E+02  0.00000000000E+00 0. -1.
         -5    1    5    5    0  502 -0.42841472196E+02  0.54259399895E+02 -0.18416402801E+03  0.19676878164E+03  0.47000000000E+01 0.  1.
         11    1    6    6    0    0  0.28039690906E+02  0.21958767827E+02 -0.24698785796E+03  0.24954240868E+03  0.00000000000E+00 0. -1.
        -12    1    6    6    0    0 -0.17248951377E+01 -0.55146565517E+02 -0.37347348984E+03  0.37752690840E+03  0.00000000000E+00 0.  1.
</event>
<event>
12    1  0.8406581E-002  0.1841566E+03  0.7818608E-02  0.1165282E+00
         21   -1    0    0  501  502  0.00000000000E+00  0.00000000000E+00  0.26215517783E+03  0.26215517783E+03  0.00000000000E+00 0. -1.
         21   -1    0    0  502  503 -0.00000000000E+00 -0.00000000000E+00 -0.29527847418E+03  0.29527847418E+03  0.00000000000E+00 0. -1.
         -6    2    1    2    0  503 -0.36938714310E+02  0.24422053389E+02 -0.22798506680E+03  0.28932028847E+03  0.17253444099E+03 0.  0.
        -24    2    3    3    0    0 -0.86310449406E+02 -0.89391513660E+01 -0.14048991562E+03  0.18335789094E+03  0.79707576017E+02 0.  0.
          6    2    1    2  501    0  0.36938714310E+02 -0.24422053389E+02  0.19486177045E+03  0.26811336354E+03  0.17875335190E+03 0.  0.
         24    2    5    5    0    0 -0.46182934614E+02 -0.12682971452E+02  0.66789467789E+02  0.11490886205E+03  0.80308731510E+02 0.  0.
          5    1    5    5  501    0  0.83121648924E+02 -0.11739081937E+02  0.12807230267E+03  0.15320450148E+03  0.47000000000E+01 0. -1.
        -13    1    6    6    0    0 -0.16917768976E+02 -0.45607751829E+02  0.27485256012E+02  0.55872329754E+02  0.00000000000E+00 0.  1.
         14    1    6    6    0    0 -0.29265165638E+02  0.32924780377E+02  0.39304211777E+02  0.59036532301E+02  0.00000000000E+00 0. -1.
         -5    1    3    3    0  503  0.49371735097E+02  0.33361204755E+02 -0.87495151184E+02  0.10596239753E+03  0.47000000000E+01 0.  1.
         13    1    4    4    0    0 -0.42697941816E+02  0.33540689964E+02 -0.85699749484E+02  0.10145215217E+03  0.00000000000E+00 0. -1.
        -14    1    4    4    0    0 -0.43612507590E+02 -0.42479841330E+02 -0.54790166135E+02  0.81905738766E+02  0.00000000000E+00 0.  1.
</event>
<event>
12    1  0.8406581E-002  0.1814536E+03  0.7818608E-02  0.1166576E+00
         21   -1    0    0  503  502  0.00000000000E+00  0.00000000000E+00  0.61398920882E+03  0.61398920882E+03  0.00000000000E+00 0. -1.
         21   -1    0    0  501  503 -0.00000000000E+00 -0.00000000000E+00 -0.27074632143E+03  0.27074632143E+03  0.00000000000E+00 0. -1.
          6    2    1    2  501    0  0.29573443452E+02 -0.48941087452E+02 -0.22464859847E+03  0.28877744747E+03  0.17220802181E+03 0.  0.
         24    2    3    3    0    0 -0.20235929173E+02 -0.84400368819E+02 -0.13441253331E+03  0.17967670644E+03  0.81756190239E+02 0.  0.
         -6    2    1    2    0  502 -0.29573443452E+02  0.48941087452E+02  0.56789148586E+03  0.59595808278E+03  0.17145109544E+03 0.  0.
        -24    2    5    5    0    0  0.33814938298E+02 -0.75481765248E+01  0.40213924533E+03  0.40966525113E+03  0.70065828529E+02 0.  0.
          5    1    3    3  501    0  0.49809372625E+02  0.35459281367E+02 -0.90236065163E+02  0.10910074103E+03  0.47000000000E+01 0. -1.
        -13    1    4    4    0    0  0.28377708976E+01 -0.58272316146E+02 -0.22615414411E+02  0.62571341217E+02  0.00000000000E+00 0.  1.
         14    1    4    4    0    0 -0.23073700071E+02 -0.26128052672E+02 -0.11179711890E+03  0.11710536523E+03  0.00000000000E+00 0. -1.
         -5    1    5    5    0  502 -0.63388381750E+02  0.56489263977E+02  0.16575224053E+03  0.18629283165E+03  0.47000000000E+01 0.  1.
         11    1    6    6    0    0 -0.25917150996E+01  0.25302769241E+02  0.20252932679E+03  0.20412024722E+03  0.00000000000E+00 0. -1.
        -12    1    6    6    0    0  0.36406653398E+02 -0.32850945766E+02  0.19960991855E+03  0.20554500391E+03  0.00000000000E+00 0.  1.
</event>
<event>
12    1  0.8406581E-002  0.2293356E+03  0.7818608E-02  0.1127422E+00
         21   -1    0    0  503  502  0.00000000000E+00  0.00000000000E+00  0.49916359944E+02  0.49916359944E+02  0.00000000000E+00 0. -1.
         21   -1    0    0  501  503 -0.00000000000E+00 -0.00000000000E+00 -0.19017793198E+04  0.19017793198E+04  0.00000000000E+00 0. -1.
          6    2    1    2  501    0 -0.31524828293E+01  0.15043091824E+03 -0.15826910541E+04  0.15992203733E+04  0.17307637123E+03 0.  0.
         24    2    3    3    0    0  0.24954172309E+02  0.19097875327E+02 -0.46012402281E+03  0.46863769963E+03  0.83184960109E+02 0.  0.
         -6    2    1    2    0  502  0.31524828293E+01 -0.15043091824E+03 -0.26917190571E+03  0.35247530642E+03  0.17072178391E+03 0.  0.
        -24    2    5    5    0    0 -0.39975263476E+02 -0.11425307613E+03 -0.10484923613E+03  0.17871435425E+03  0.79332660382E+02 0.  0.
          5    1    3    3  501    0 -0.28106655138E+02  0.13133304291E+03 -0.11225670313E+04  0.11305826737E+04  0.47000000000E+01 0. -1.
        -11    1    4    4    0    0 -0.15431712188E+02  0.24440389626E+02 -0.35048708710E+03  0.35167693785E+03  0.00000000000E+00 0.  1.
         12    1    4    4    0    0  0.40385884497E+02 -0.53425142984E+01 -0.10963693570E+03  0.11696076178E+03  0.00000000000E+00 0. -1.
         -5    1    5    5    0  502  0.43127746305E+02 -0.36177842110E+02 -0.16432266958E+03  0.17376095217E+03  0.47000000000E+01 0.  1.
         11    1    6    6    0    0 -0.16148704447E+02 -0.36319575053E+02  0.69648982886E+01  0.40353463240E+02  0.00000000000E+00 0. -1.
        -12    1    6    6    0    0 -0.23826559029E+02 -0.77933501073E+02 -0.11181413442E+03  0.13836089101E+03  0.00000000000E+00 0.  1.
</event>
<event>
12    1  0.8406581E-002  0.2026592E+03  0.7818608E-02  0.1147974E+00
         21   -1    0    0  503  502  0.00000000000E+00  0.00000000000E+00  0.36950562247E+03  0.36950562247E+03  0.00000000000E+00 0. -1.
         21   -1    0    0  501  503 -0.00000000000E+00 -0.00000000000E+00 -0.11044084667E+03  0.11044084667E+03  0.00000000000E+00 0. -1.
          6    2    1    2  501    0  0.93559601440E+02  0.49972666878E+02  0.11417817089E+03  0.23260997511E+03  0.17268491353E+03 0.  0.
         24    2    3    3    0    0  0.12326661203E+03  0.67209192174E+02  0.70338527804E+02  0.17672072223E+03  0.81061532294E+02 0.  0.
         -6    2    1    2    0  502 -0.93559601440E+02 -0.49972666878E+02  0.14488660492E+03  0.24733649403E+03  0.17009569817E+03 0.  0.
        -24    2    5    5    0    0 -0.52659545237E+01 -0.33574514979E+02  0.12033279606E+03  0.15411821791E+03  0.90096975271E+02 0.  0.
          5    1    3    3  501    0 -0.29707010590E+02 -0.17236525296E+02  0.43839643082E+02  0.55889252885E+02  0.47000000000E+01 0. -1.
        -11    1    4    4    0    0  0.10550923936E+03  0.66263423221E+02  0.87310699644E+02  0.15213874957E+03  0.00000000000E+00 0.  1.
         12    1    4    4    0    0  0.17757372668E+02  0.94576895296E+00 -0.16972171840E+02  0.24581972662E+02  0.00000000000E+00 0. -1.
         -5    1    5    5    0  502 -0.88293646916E+02 -0.16398151899E+02  0.24553808863E+02  0.93218276112E+02  0.47000000000E+01 0.  1.
         13    1    6    6    0    0 -0.35567103374E+01  0.30300494112E+02  0.25473587560E+02  0.39745110328E+02  0.00000000000E+00 0. -1.
        -14    1    6    6    0    0 -0.17092441863E+01 -0.63875009091E+02  0.94859208498E+02  0.11437310759E+03  0.00000000000E+00 0.  1.
</event>
<event>
12    1  0.8406581E-002  0.3171198E+03  0.7818608E-02  0.1076984E+00
         21   -1    0    0  501  502  0.00000000000E+00  0.00000000000E+00  0.16825986295E+04  0.16825986295E+04  0.00000000000E+00 0. -1.
         21   -1    0    0  502  503 -0.00000000000E+00 -0.00000000000E+00 -0.60831126583E+02  0.60831126583E+02  0.00000000000E+00 0. -1.
         -6    2    1    2    0  503 -0.51982137491E+02  0.26165860029E+03  0.92627816645E+03  0.97905395109E+03  0.17142937842E+03 0.  0.
        -24    2    3    3    0    0 -0.21537827520E+02  0.20034431556E+03  0.46877197315E+03  0.51643066543E+03  0.79697845667E+02 0.  0.
          6    2    1    2  501    0  0.51982137491E+02 -0.26165860029E+03  0.69548933646E+03  0.76437580498E+03  0.17145724945E+03 0.  0.
         24    2    5    5    0    0 -0.33375348994E+01 -0.17446489633E+03  0.30628423513E+03  0.36167776791E+03  0.80942176383E+02 0.  0.
          5    1    5    5  501    0  0.55319672390E+02 -0.87193703961E+02  0.38920510133E+03  0.40269803708E+03  0.47000000000E+01 0. -1.
        -13    1    6    6    0    0  0.37046405436E+02 -0.55547762380E+02  0.10669209823E+03  0.12586180472E+03  0.00000000000E+00 0.  1.
         14    1    6    6    0    0 -0.40383940335E+02 -0.11891713395E+03  0.19959213690E+03  0.23581596319E+03  0.00000000000E+00 0. -1.
         -5    1    3    3    0  503 -0.30444309970E+02  0.61314284735E+02  0.45750619330E+03  0.46262328566E+03  0.47000000000E+01 0.  1.
         13    1    4    4    0    0  0.15392226174E+02  0.15758994011E+03  0.37334126579E+03  0.40553077638E+03  0.00000000000E+00 0. -1.
        -14    1    4    4    0    0 -0.36930053694E+02  0.42754375441E+02  0.95430707360E+02  0.11089988906E+03  0.00000000000E+00 0.  1.
</event>
<event>
12    1  0.8406581E-002  0.1727036E+03  0.7818608E-02  0.1175387E+00
         21   -1    0    0  503  502  0.00000000000E+00  0.00000000000E+00  0.11535629030E+04  0.11535629030E+04  0.00000000000E+00 0. -1.
         21   -1    0    0  501  503 -0.00000000000E+00 -0.00000000000E+00 -0.31341496613E+02  0.31341496613E+02  0.00000000000E+00 0. -1.
          6    2    1    2  501    0 -0.17208871403E+01 -0.10339977231E+02  0.30723797188E+03  0.35182305051E+03  0.17109766488E+03 0.  0.
         24    2    3    3    0    0 -0.57053646253E+02  0.20017170106E+02  0.23413356790E+03  0.25512964584E+03  0.81343733143E+02 0.  0.
         -6    2    1    2    0  502  0.17208871403E+01  0.10339977231E+02  0.81498343451E+03  0.83308134910E+03  0.17238520560E+03 0.  0.
        -24    2    5    5    0    0 -0.34996535487E+02 -0.51309658290E+02  0.46761004017E+03  0.47834311916E+03  0.79344511167E+02 0.  0.
          5    1    3    3  501    0  0.55332759113E+02 -0.30357147336E+02  0.73104403976E+02  0.96693404667E+02  0.47000000000E+01 0. -1.
        -11    1    4    4    0    0 -0.10913455370E+02  0.89970066910E+01  0.18939709602E+03  0.18992448399E+03  0.00000000000E+00 0.  1.
         12    1    4    4    0    0 -0.46140190883E+02  0.11020163415E+02  0.44736471879E+02  0.65205161856E+02  0.00000000000E+00 0. -1.
         -5    1    5    5    0  502  0.36717422627E+02  0.61649635520E+02  0.34737339434E+03  0.35473822994E+03  0.47000000000E+01 0.  1.
         11    1    6    6    0    0  0.18719440382E+02  0.70693037233E+01  0.13044633589E+03  0.13197211467E+03  0.00000000000E+00 0. -1.
        -12    1    6    6    0    0 -0.53715975868E+02 -0.58378962013E+02  0.33716370428E+03  0.34637100449E+03  0.00000000000E+00 0.  1.
</event>
<event>
12    1  0.8406581E-002  0.1728521E+03  0.7818608E-02  0.1175046E+00
         21   -1    0    0  501  502  0.00000000000E+00  0.00000000000E+00  0.98604357816E+02  0.98604357816E+02  0.00000000000E+00 0. -1.
         21   -1    0    0  502  503 -0.00000000000E+00 -0.00000000000E+00 -0.30557504950E+03  0.30557504950E+03  0.00000000000E+00 0. -1.
         -6    2    1    2    0  503 -0.10114508499E+01  0.10657550193E+02 -0.12536919816E+03  0.21353053686E+03  0.17252028262E+03 0.  0.
        -24    2    3    3    0    0  0.49014171756E+01  0.71262520575E+02 -0.10237589491E+03  0.14827177165E+03  0.80008272569E+02 0.  0.
          6    2    1    2  501    0  0.10114508499E+01 -0.10657550193E+02 -0.81601493527E+02  0.19064887045E+03  0.17196971143E+03 0.  0.
         24    2    5    5    0    0  0.66390978798E+02 -0.20213873493E+02 -0.50511163099E+02  0.11747438969E+03  0.80202817201E+02 0.  0.
          5    1    5    5  501    0 -0.65379527948E+02  0.95563233001E+01 -0.31090330428E+02  0.73174480769E+02  0.47000000000E+01 0. -1.
        -11    1    6    6    0    0  0.60624958268E+02  0.19237816303E+02 -0.18205407326E+02  0.66158264768E+02  0.00000000000E+00 0.  1.
         12    1    6    6    0    0  0.57660205301E+01 -0.39451689796E+02 -0.32305755772E+02  0.51316124918E+02  0.00000000000E+00 0. -1.
         -5    1    3    3    0  503 -0.59128680255E+01 -0.60604970382E+02 -0.22993303248E+02  0.65258765216E+02  0.47000000000E+01 0.  1.
         13    1    4    4    0    0  0.37137116206E+02  0.41855264429E+02 -0.29306675033E+02  0.63165732498E+02  0.00000000000E+00 0. -1.
        -14    1    4    4    0    0 -0.32235699030E+02  0.29407256145E+02 -0.73069219878E+02  0.85106039148E+02  0.00000000000E+00 0.  1.
</event>
<event>
12    1  0.8406581E-002  0.2748593E+03  0.7818608E-02  0.1098560E+00
         21   -1    0    0  503  502  0.00000000000E+00  0.00000000000E+00  0.75577464812E+03  0.75577464812E+03  0.00000000000E+00 0.  1.
         21   -1    0    0  501  503 -0.00000000000E+00 -0.00000000000E+00 -0.11706404467E+03  0.11706404467E+03  0.00000000000E+00 0. -1.
          6    2    1    2  501    0 -0.28421434627E+02 -0.21245289715E+03  0.15226637125E+03  0.31421757022E+03  0.17205703173E+03 0.  0.
         24    2    3    3    0    0 -0.14521473283E+02 -0.23236883462E+03  0.15342652825E+03  0.28945288862E+03  0.77698948958E+02 0.  0.
         -6    2    1    2    0  502  0.28421434627E+02  0.21245289715E+03  0.48644423219E+03  0.55862112257E+03  0.17171358740E+03 0.  0.
        -24    2    5    5    0    0 -0.51268728232E+02  0.10106193078E+03  0.23334389509E+03  0.27080114396E+03  0.77729594418E+02 0.  0.
          5    1    3    3  501    0 -0.13899961343E+02  0.19915937469E+02 -0.11601569975E+01  0.24764681602E+02  0.47000000000E+01 0. -1.
        -11    1    4    4    0    0 -0.15613376182E+02 -0.15005427512E+03  0.14043599483E+03  0.20611242476E+03  0.00000000000E+00 0.  1.
         12    1    4    4    0    0  0.10919028986E+01 -0.82314559498E+02  0.12990533426E+02  0.83340463857E+02  0.00000000000E+00 0. -1.
         -5    1    5    5    0  502  0.79690162859E+02  0.11139096637E+03  0.25310033710E+03  0.28781997861E+03  0.47000000000E+01 0.  1.
         11    1    6    6    0    0 -0.56933886523E+02  0.11153649195E+03  0.20777116006E+03  0.24259165572E+03  0.00000000000E+00 0. -1.
        -12    1    6    6    0    0  0.56651582902E+01 -0.10474561170E+02  0.25572735027E+02  0.28209488243E+02  0.00000000000E+00 0.  1.
</event>
<event>
12    1  0.8406581E-002  0.1750979E+03  0.7818608E-02  0.1172726E+00
         21   -1    0    0  501  502  0.00000000000E+00  0.00000000000E+00  0.31393592889E+03  0.31393592889E+03  0.00000000000E+00 0.  1.
         21   -1    0    0  502  503 -0.00000000000E+00 -0.00000000000E+00 -0.15629538608E+03  0.15629538608E+03  0.00000000000E+00 0.  1.
         -6    2    1    2    0  503 -0.37750522946E+01  0.29997311363E+02 -0.65492084323E+02  0.18659873035E+03  0.17209236866E+03 0.  0.
        -24    2    3    3    0    0  0.10476755857E+02  0.19491675748E+02 -0.10987822312E+03  0.13858100724E+03  0.81497139921E+02 0.  0.
          6    2    1    2  501    0  0.37750522946E+01 -0.29997311363E+02  0.22313262714E+03  0.28363258462E+03  0.17246792182E+03 0.  0.
         24    2    5    5    0    0  0.16404681462E+02 -0.12982071763E+02  0.24083538252E+03  0.25562359571E+03  0.83090874627E+02 0.  0.
          5    1    5    5  501    0 -0.12629629167E+02 -0.17015239601E+02 -0.17702755386E+02  0.28008988911E+02  0.47000000000E+01 0. -1.
        -11    1    6    6    0    0 -0.21957463146E+02  0.12461511761E+02  0.16492494738E+03  0.16684620982E+03  0.00000000000E+00 0.  1.
         12    1    6    6    0    0  0.38362144608E+02 -0.25443583524E+02  0.75910435148E+02  0.88777385892E+02  0.00000000000E+00 0. -1.
         -5    1    3    3    0  503 -0.14251808152E+02  0.10505635615E+02  0.44386138798E+02  0.48017723110E+02  0.47000000000E+01 0.  1.
         11    1    4    4    0    0  0.21918850993E+02  0.22972905210E+02 -0.39695626244E+01  0.31999184835E+02  0.00000000000E+00 0. -1.
        -12    1    4    4    0    0 -0.11442095136E+02 -0.34812294615E+01 -0.10590866050E+03  0.10658182241E+03  0.00000000000E+00 0.  1.
</event>
<event>
12    1  0.8406581E-002  0.1890338E+03  0.7818608E-02  0.1159461E+00
         21   -1    0    0  503  502  0.00000000000E+00  0.00000000000E+00  0.75428771676E+02  0.75428771676E+02  0.00000000000E+00 0.  1.
         21   -1    0    0  501  503 -0.00000000000E+00 -0.00000000000E+00 -0.48300462302E+03  0.48300462302E+03  0.00000000000E+00 0.  1.
          6    2    1    2  501    0 -0.52324913558E+02  0.57836726902E+02 -0.24552117915E+03  0.30986196745E+03  0.17219409370E+03 0.  0.
         24    2    3    3    0    0  0.24976036999E+02  0.38383686991E+02 -0.65960733496E+02  0.11334758792E+03  0.79998421693E+02 0.  0.
         -6    2    1    2    0  502  0.52324913558E+02 -0.57836726902E+02 -0.16205467220E+03  0.24857142725E+03  0.17158978438E+03 0.  0.
        -24    2    5    5    0    0  0.70638339901E+02 -0.67920171018E+02 -0.51782257500E+02  0.13623642436E+03  0.79221439246E+02 0.  0.
          5    1    3    3  501    0 -0.77300950557E+02  0.19453039912E+02 -0.17956044566E+03  0.19651437953E+03  0.47000000000E+01 0. -1.
        -13    1    4    4    0    0  0.50592598124E+02  0.36004182455E+02 -0.61196610673E+02  0.87183354472E+02  0.00000000000E+00 0.  1.
         14    1    4    4    0    0 -0.25616561126E+02  0.23795045356E+01 -0.47641228228E+01  0.26164233450E+02  0.00000000000E+00 0. -1.
         -5    1    5    5    0  502 -0.18313426342E+02  0.10083444116E+02 -0.11027241470E+03  0.11233500288E+03  0.47000000000E+01 0.  1.
         13    1    6    6    0    0  0.58349345847E+02 -0.20006549368E+02 -0.60048961315E+02  0.86085921807E+02  0.00000000000E+00 0. -1.
        -14    1    6    6    0    0  0.12288994054E+02 -0.47913621651E+02  0.82667038155E+01  0.50150502555E+02  0.00000000000E+00 0.  1.
</event>
<event>
12    1  0.8406581E-002  0.2335071E+03  0.7818608E-02  0.1124251E+00
         21   -1    0    0  503  502  0.00000000000E+00  0.00000000000E+00  0.33185930576E+03  0.33185930576E+03  0.00000000000E+00 0.  1.
         21   -1    0    0  501  503 -0.00000000000E+00 -0.00000000000E+00 -0.16582701477E+03  0.16582701477E+03  0.00000000000E+00 0. -1.
          6    2    1    2  501    0 -0.15725152679E+03  0.11787838652E+02  0.57512016189E+02  0.24048530525E+03  0.17221659101E+03 0.  0.
         24    2    3    3    0    0 -0.69887716141E+02 -0.36341079023E+02  0.79810446993E+02  0.13817138566E+03  0.80725816647E+02 0.  0.
         -6    2    1    2    0  502  0.15725152679E+03 -0.11787838652E+02  0.10852027480E+03  0.25720101528E+03  0.17178101292E+03 0.  0.
        -24    2    5    5    0    0  0.17273680750E+02  0.23025824839E+02  0.60005138835E+02  0.10494597607E+03  0.81144762928E+02 0.  0.
          5    1    3    3  501    0 -0.87363810645E+02  0.48128917674E+02 -0.22298430804E+02  0.10231391960E+03  0.47000000000E+01 0. -1.
        -13    1    4    4    0    0 -0.75787952082E+02 -0.35958233549E+01  0.70619844189E+02  0.10365281482E+03  0.00000000000E+00 0.  1.
         14    1    4    4    0    0  0.59002359408E+01 -0.32745255668E+02  0.91906028038E+01  0.34518570839E+02  0.00000000000E+00 0. -1.
         -5    1    5    5    0  502  0.13997784604E+03 -0.34813663490E+02  0.48515135961E+02  0.15225503921E+03  0.47000000000E+01 0.  1.
         13    1    6    6    0    0  0.39645320115E+02  0.92456935517E+01  0.14147662398E+01  0.40733718463E+02  0.00000000000E+00 0. -1.
        -14    1    6    6    0    0 -0.22371639366E+02  0.13780131287E+02  0.58590372595E+02  0.64212257608E+02  0.00000000000E+00 0.  1.
</event>
<event>
12    1  0.8406581E-002  0.2340371E+03  0.7818608E-02  0.1124694E+00
         21   -1    0    0  503  502  0.00000000000E+00  0.00000000000E+00  0.13722147220E+03  0.13722147220E+03  0.00000000000E+00 0.  1.
         21   -1    0    0  501  503 -0.00000000000E+00 -0.00000000000E+00 -0.64744220111E+03  0.64744220111E+03  0.00000000000E+00 0. -1.
          6    2    1    2  501    0  0.13179747466E+03  0.83192907465E+02 -0.50049360576E+03  0.55042451574E+03  0.16787395252E+03 0.  0.
         24    2    3    3    0    0  0.12592772520E+03  0.51332294001E+02 -0.49212152723E+03  0.51663495599E+03  0.78963813248E+02 0.  0.
         -6    2    1    2    0  502 -0.13179747466E+03 -0.83192907465E+02 -0.97271231448E+01  0.23423915758E+03  0.17459018254E+03 0.  0.
        -24    2    5    5    0    0 -0.13063635772E+03 -0.83420758834E+02 -0.59327418359E+02  0.18440263087E+03  0.80372300832E+02 0.  0.
          5    1    3    3  501    0  0.58697494541E+01  0.31860613464E+02 -0.83720785293E+01  0.33789559746E+02  0.47000000000E+01 0. -1.
        -13    1    4    4    0    0 -0.42288681475E+01 -0.11831291716E+02 -0.37494006279E+02  0.39543182679E+02  0.00000000000E+00 0.  1.
         14    1    4    4    0    0  0.13015659335E+03  0.63163585717E+02 -0.45462752095E+03  0.47709177331E+03  0.00000000000E+00 0. -1.
         -5    1    5    5    0  502 -0.11611169392E+01  0.22785136934E+00  0.49600295215E+02  0.49836526707E+02  0.47000000000E+01 0.  1.
         11    1    6    6    0    0 -0.41488752201E+01  0.14210732735E+02 -0.44789598474E+01  0.15466711731E+02  0.00000000000E+00 0. -1.
        -12    1    6    6    0    0 -0.12648748250E+03 -0.97631491570E+02 -0.54848458512E+02  0.16893591914E+03  0.00000000000E+00 0.  1.
</event>
<event>
12    1  0.8406581E-002  0.2116167E+03  0.7818608E-02  0.1140757E+00
         21   -1    0    0  501  502  0.00000000000E+00  0.00000000000E+00  0.48087987259E+03  0.48087987259E+03  0.00000000000E+00 0.  1.
         21   -1    0    0  502  503 -0.00000000000E+00 -0.00000000000E+00 -0.13127249380E+03  0.13127249380E+03  0.00000000000E+00 0. -1.
         -6    2    1    2    0  503  0.11429169475E+03  0.34235729065E+02  0.68990429579E+01  0.20937371865E+03  0.17191591152E+03 0.  0.
        -24    2    3    3    0    0 -0.35532747077E+01  0.19758712245E+02  0.30085149924E+02  0.88308833575E+02  0.80562406684E+02 0.  0.
          6    2    1    2  501    0 -0.11429169475E+03 -0.34235729065E+02  0.34270833584E+03  0.40277864774E+03  0.17477688346E+03 0.  0.
         24    2    5    5    0    0 -0.10416341084E+03 -0.12256749447E+02  0.35219907989E+03  0.37636232887E+03  0.81266023972E+02 0.  0.
          5    1    5    5  501    0 -0.10128283907E+02 -0.21978979618E+02 -0.94907440562E+01  0.26416318871E+02  0.47000000000E+01 0. -1.
        -11    1    6    6    0    0 -0.79275482813E+02 -0.44336936223E+02  0.21830752362E+03  0.23644986986E+03  0.00000000000E+00 0.  1.
         12    1    6    6    0    0 -0.24887928025E+02  0.32080186776E+02  0.13389155627E+03  0.13991245901E+03  0.00000000000E+00 0. -1.
         -5    1    3    3    0  503  0.11784496945E+03  0.14477016819E+02 -0.23186106966E+02  0.12106488507E+03  0.47000000000E+01 0.  1.
         13    1    4    4    0    0 -0.35722526490E+02  0.11068284461E+02 -0.74327273181E+01  0.38129401453E+02  0.00000000000E+00 0. -1.
        -14    1    4    4    0    0  0.32169251783E+02  0.86904277843E+01  0.37517877242E+02  0.50179432122E+02  0.00000000000E+00 0.  1.
</event>
<event>
12    1  0.8406581E-002  0.1870628E+03  0.7818608E-02  0.1162121E+00
         21   -1    0    0  503  502  0.00000000000E+00  0.00000000000E+00  0.23175757682E+03  0.23175757682E+03  0.00000000000E+00 0.  1.
         21   -1    0    0  501  503 -0.00000000000E+00 -0.00000000000E+00 -0.14832383788E+03  0.14832383788E+03  0.00000000000E+00 0.  1.
          6    2    1    2  501    0  0.20497402926E+00  0.73291644363E+02  0.27948107628E+02  0.18496311046E+03  0.16750686064E+03 0.  0.
         24    2    3    3    0    0  0.48358547496E+02  0.23234453374E+01 -0.12672620785E+01  0.94238914470E+02  0.80841941671E+02 0.  0.
         -6    2    1    2    0  502 -0.20497402926E+00 -0.73291644363E+02  0.55485631311E+02  0.19511830424E+03  0.17210691508E+03 0.  0.
        -24    2    5    5    0    0 -0.73897086085E+01 -0.27386573459E+02 -0.28030605114E+02  0.99431587854E+02  0.91083992232E+02 0.  0.
          5    1    3    3  501    0 -0.48153573467E+02  0.70968199026E+02  0.29215369707E+02  0.90724195988E+02  0.47000000000E+01 0. -1.
        -13    1    4    4    0    0  0.58821090634E+02  0.11825193730E+02  0.24534012398E+02  0.64820318377E+02  0.00000000000E+00 0.  1.
         14    1    4    4    0    0 -0.10462543138E+02 -0.95017483921E+01 -0.25801274477E+02  0.29418596093E+02  0.00000000000E+00 0. -1.
         -5    1    5    5    0  502  0.71847345793E+01 -0.45905070904E+02  0.83516236425E+02  0.95686716384E+02  0.47000000000E+01 0.  1.
         13    1    6    6    0    0  0.24607972834E+02 -0.25352556814E+02  0.20812185465E+02  0.41005506067E+02  0.00000000000E+00 0. -1.
        -14    1    6    6    0    0 -0.31997681442E+02 -0.20340166446E+01 -0.48842790579E+02  0.58426081786E+02  0.00000000000E+00 0.  1.
</event>
<event>
12    1  0.8406581E-002  0.2176428E+03  0.7818608E-02  0.1136455E+00
         21   -1    0    0  501  502  0.00000000000E+00  0.00000000000E+00  0.18739272343E+03  0.18739272343E+03  0.00000000000E+00 0. -1.
         21   -1    0    0  502  503 -0.00000000000E+00 -0.00000000000E+00 -0.60372691243E+03  0.60372691243E+03  0.00000000000E+00 0.  1.
         -6    2    1    2    0  503 -0.11073581630E+02  0.12443833559E+03 -0.51099524512E+03  0.55378210849E+03  0.17306345533E+03 0.  0.
        -24    2    3    3    0    0  0.59803480447E+02  0.54427811926E+02 -0.30410248501E+03  0.32410464869E+03  0.77631558843E+02 0.  0.
          6    2    1    2  501    0  0.11073581630E+02 -0.12443833559E+03  0.94661056120E+02  0.23733752738E+03  0.17821577591E+03 0.  0.
         24    2    5    5    0    0 -0.22589547481E+02 -0.75521938764E+02 -0.13124694634E+02  0.11418770722E+03  0.81564232241E+02 0.  0.
          5    1    5    5  501    0  0.33663129112E+02 -0.48916396828E+02  0.10778575075E+03  0.12314982016E+03  0.47000000000E+01 0. -1.
        -13    1    6    6    0    0  0.85399297686E+01 -0.36387615202E+02 -0.42177301647E+02  0.56355245672E+02  0.00000000000E+00 0.  1.
         14    1    6    6    0    0 -0.31129477250E+02 -0.39134323562E+02  0.29052607014E+02  0.57832461549E+02  0.00000000000E+00 0. -1.
         -5    1    3    3    0  503 -0.70877062078E+02  0.70010523665E+02 -0.20689276011E+03  0.22967745980E+03  0.47000000000E+01 0.  1.
         11    1    4    4    0    0  0.72815047130E+02  0.20776411275E+02 -0.21668005819E+03  0.22952981935E+03  0.00000000000E+00 0. -1.
        -12    1    4    4    0    0 -0.13011566683E+02  0.33651400652E+02 -0.87422426815E+02  0.94574829334E+02  0.00000000000E+00 0.  1.
</event>
<event>
12    1  0.8406581E-002  0.1932769E+03  0.7818608E-02  0.1157742E+00
         21   -1    0    0  501  502  0.00000000000E+00  0.00000000000E+00  0.50885584720E+03  0.50885584720E+03  0.00000000000E+00 0.  1.
         21   -1    0    0  502  503 -0.00000000000E+00 -0.00000000000E+00 -0.90138850222E+02  0.90138850222E+02  0.00000000000E+00 0.  1.
         -6    2    1    2    0  503  0.82375781979E+02  0.34630642660E+02  0.62833136141E+02  0.19401408730E+03  0.16033843022E+03 0.  0.
        -24    2    3    3    0    0  0.66842527700E+02 -0.35012304305E+02  0.51399511194E+02  0.12159696343E+03  0.80312681447E+02 0.  0.
          6    2    1    2  501    0 -0.82375781979E+02 -0.34630642660E+02  0.35588386084E+03  0.40498061013E+03  0.17137946582E+03 0.  0.
         24    2    5    5    0    0 -0.89662441341E+02 -0.31392170109E+02  0.12964813311E+03  0.17855561678E+03  0.77773055326E+02 0.  0.
          5    1    5    5  501    0  0.72866593619E+01 -0.32384725517E+01  0.22623572773E+03  0.22642499334E+03  0.47000000000E+01 0. -1.
        -13    1    6    6    0    0  0.80711070175E+01  0.99047602715E+01  0.26141193386E+01  0.13041497784E+02  0.00000000000E+00 0.  1.
         14    1    6    6    0    0 -0.97733548359E+02 -0.41296930380E+02  0.12703401377E+03  0.16551411900E+03  0.00000000000E+00 0. -1.
         -5    1    3    3    0  503  0.15533254279E+02  0.69642946965E+02  0.11433624947E+02  0.72417123872E+02  0.47000000000E+01 0.  1.
         13    1    4    4    0    0  0.15393883550E+02  0.25679636998E+02  0.20286721556E+02  0.36165819203E+02  0.00000000000E+00 0. -1.
        -14    1    4    4    0    0  0.51448644150E+02 -0.60691941303E+02  0.31112789637E+02  0.85431144222E+02  0.00000000000E+00 0.  1.
</event>
<event>
12    1  0.8406581E-002  0.1864750E+03  0.7818608E-02  0.1162393E+00
         21   -1    0    0  503  502  0.00000000000E+00  0.00000000000E+00  0.12994651752E+04  0.12994651752E+04  0.00000000000E+00 0.  1.
         21   -1    0    0  501  503 -0.00000000000E+00 -0.00000000000E+00 -0.36324325861E+02  0.36324325861E+02  0.00000000000E+00 0.  1.
          6    2    1    2  501    0 -0.62164560854E+02 -0.16786160660E+02  0.28488798529E+03  0.34049097576E+03  0.17500495021E+03 0.  0.
         24    2    3    3    0    0 -0.12280294001E+01  0.46940845340E+02  0.18320058309E+03  0.20581800177E+03  0.81201263472E+02 0.  0.
         -6    2    1    2    0  502  0.62164560854E+02  0.16786160660E+02  0.97825286407E+03  0.99529852531E+03  0.17173898980E+03 0.  0.
        -24    2    5    5    0    0 -0.23192537339E+02 -0.18514857442E+02  0.28261100548E+03  0.29353525931E+03  0.73574957056E+02 0.  0.
          5    1    3    3  501    0 -0.60936531454E+02 -0.63727006000E+02  0.10168740220E+03  0.13467297400E+03  0.47000000000E+01 0. -1.
        -11    1    4    4    0    0 -0.33261728065E+02 -0.34172706809E+01  0.78036529070E+02  0.84898293046E+02  0.00000000000E+00 0.  1.
         12    1    4    4    0    0  0.32033698665E+02  0.50358116021E+02  0.10516405402E+03  0.12091970872E+03  0.00000000000E+00 0. -1.
         -5    1    5    5    0  502  0.85357098193E+02  0.35301018102E+02  0.69564185859E+03  0.70176326600E+03  0.47000000000E+01 0.  1.
         13    1    6    6    0    0 -0.10614149261E+02  0.11675423193E+02  0.23637473059E+03  0.23690079978E+03  0.00000000000E+00 0. -1.
        -14    1    6    6    0    0 -0.12578388078E+02 -0.30190280635E+02  0.46236274888E+02  0.56634459536E+02  0.00000000000E+00 0.  1.
</event>
<event>
12    1  0.8406581E-002  0.1822539E+03  0.7818608E-02  0.1166442E+00
         21   -1    0    0  501  502  0.00000000000E+00  0.00000000000E+00  0.14540637993E+03  0.14540637993E+03  0.00000000000E+00 0.  1.
         21   -1    0    0  502  503 -0.00000000000E+00 -0.00000000000E+00 -0.40240611052E+03  0.40240611052E+03  0.00000000000E+00 0. -1.
         -6    2    1    2    0  503  0.37236179877E+02  0.47382953805E+02 -0.31007178898E+03  0.35798850778E+03  0.16846239930E+03 0.  0.
        -24    2    3    3    0    0  0.25569571499E+02  0.35756978408E+01 -0.29961564763E+03  0.31122734528E+03  0.80164428181E+02 0.  0.
          6    2    1    2  501    0 -0.37236179877E+02 -0.47382953805E+02  0.53072058389E+02  0.18982398267E+03  0.17200239420E+03 0.  0.
         24    2    5    5    0    0  0.46160011414E+02 -0.18709212347E+02  0.32344899340E+02  0.99111175999E+02  0.79347661681E+02 0.  0.
          5    1    5    5  501    0 -0.83396191291E+02 -0.28673741457E+02  0.20727159050E+02  0.90712806667E+02  0.47000000000E+01 0. -1.
        -13    1    6    6    0    0  0.19069087805E+02 -0.32542534746E+02  0.50996790155E+02  0.63429640417E+02  0.00000000000E+00 0.  1.
         14    1    6    6    0    0  0.27090923609E+02  0.13833322398E+02 -0.18651890815E+02  0.35681535582E+02  0.00000000000E+00 0. -1.
         -5    1    3    3    0  503  0.11666608378E+02  0.43807255964E+02 -0.10456141353E+02  0.46761162498E+02  0.47000000000E+01 0.  1.
         11    1    4    4    0    0 -0.17871081259E+02 -0.15554561729E+02 -0.19392890102E+03  0.19537077209E+03  0.00000000000E+00 0. -1.
        -12    1    4    4    0    0  0.43440652759E+02  0.19130259569E+02 -0.10568674661E+03  0.11585657320E+03  0.00000000000E+00 0.  1.
</event>
<event>
12    1  0.8406581E-002  0.1869244E+03  0.7818608E-02  0.1161699E+00
         21   -1    0    0  503  502  0.00000000000E+00  0.00000000000E+00  0.15658600488E+04  0.15658600488E+04  0.00000000000E+00 0.  1.
         21   -1    0    0  501  503 -0.00000000000E+00 -0.00000000000E+00 -0.32800263774E+02  0.32800263774E+02  0.00000000000E+00 0.  1.
          6    2    1    2  501    0  0.26252770844E+02 -0.61708428515E+02  0.30718459926E+03  0.35861568034E+03  0.17246938869E+03 0.  0.
         24    2    3    3    0    0  0.14664754768E+02 -0.10845681986E+03  0.23517847686E+03  0.27185932107E+03  0.81367300984E+02 0.  0.
         -6    2    1    2    0  502 -0.26252770844E+02  0.61708428515E+02  0.12258751857E+04  0.12400446322E+04  0.17448088930E+03 0.  0.
        -24    2    5    5    0    0 -0.39273037158E+02  0.87196849109E+02  0.56260854799E+03  0.57614410527E+03  0.79170637377E+02 0.  0.
          5    1    3    3  501    0  0.11588016076E+02  0.46748391345E+02  0.72006122403E+02  0.86756359268E+02  0.47000000000E+01 0. -1.
        -13    1    4    4    0    0  0.40243460033E+02 -0.47030836974E+02  0.68146002784E+02  0.92061465322E+02  0.00000000000E+00 0.  1.
         14    1    4    4    0    0 -0.25578705265E+02 -0.61425982887E+02  0.16703247407E+03  0.17979785575E+03  0.00000000000E+00 0. -1.
         -5    1    5    5    0  502  0.13020266314E+02 -0.25488420594E+02  0.66326663773E+03  0.66390052692E+03  0.47000000000E+01 0.  1.
         13    1    6    6    0    0 -0.48277273790E+02  0.94252046080E+02  0.54466806890E+03  0.55486705492E+03  0.00000000000E+00 0. -1.
        -14    1    6    6    0    0  0.90042366316E+01 -0.70551969711E+01  0.17940479087E+02  0.21277050348E+02  0.00000000000E+00 0.  1.
</event>
<event>
12    1  0.8406581E-002  0.1913970E+03  0.7818608E-02  0.1157854E+00
         21   -1    0    0  503  502  0.00000000000E+00  0.00000000000E+00  0.30149218372E+02  0.30149218372E+02  0.00000000000E+00 0. -1.
         21   -1    0    0  501  503 -0.00000000000E+00 -0.00000000000E+00 -0.16906214992E+04  0.16906214992E+04  0.00000000000E+00 0. -1.
          6    2    1    2  501    0  0.16015529584E+01  0.78151433373E+02 -0.12907458109E+04  0.13044409374E+04  0.17155523689E+03 0.  0.
         24    2    3    3    0    0 -0.17689059977E+02  0.23715661161E+02 -0.11339406668E+04  0.11372723870E+04  0.81802878128E+02 0.  0.
         -6    2    1    2    0  502 -0.16015529584E+01 -0.78151433373E+02 -0.36972646995E+03  0.41632978019E+03  0.17470721732E+03 0.  0.
        -24    2    5    5    0    0  0.38612699702E+02 -0.59058047978E+02 -0.11348628636E+03  0.15620891373E+03  0.80890629419E+02 0.  0.
          5    1    3    3  501    0  0.19290612935E+02  0.54435772212E+02 -0.15680514410E+03  0.16716855045E+03  0.47000000000E+01 0. -1.
        -13    1    4    4    0    0 -0.47475183259E+02  0.15823473028E+02 -0.47893632884E+03  0.48154364538E+03  0.00000000000E+00 0.  1.
         14    1    4    4    0    0  0.29786123283E+02  0.78921881330E+01 -0.65500433797E+03  0.65572874158E+03  0.00000000000E+00 0. -1.
         -5    1    5    5    0  502 -0.40214252661E+02 -0.19093385395E+02 -0.25624018359E+03  0.26012086646E+03  0.47000000000E+01 0.  1.
         13    1    6    6    0    0  0.26805077944E+02 -0.17105948440E+02  0.29001574981E+01  0.31930183043E+02  0.00000000000E+00 0. -1.
        -14    1    6    6    0    0  0.11807621758E+02 -0.41952099538E+02 -0.11638644386E+03  0.12427873069E+03  0.00000000000E+00 0.  1.
</event>
<event>
12    1  0.8406581E-002  0.2429379E+03  0.7818608E-02  0.1117956E+00
         21   -1    0    0  503  502  0.00000000000E+00  0.00000000000E+00  0.15402045984E+03  0.15402045984E+03  0.00000000000E+00 0. -1.
         21   -1    0    0  501  503 -0.00000000000E+00 -0.00000000000E+00 -0.46499671827E+03  0.46499671827E+03  0.00000000000E+00 0.  1.
          6    2    1    2  501    0 -0.50672125025E+02 -0.16375927395E+03 -0.28627166779E+03  0.37546008487E+03  0.17214541381E+03 0.  0.
         24    2    3    3    0    0 -0.32121755202E+02 -0.19096844057E+03 -0.24875749580E+03  0.32532169571E+03  0.80331572456E+02 0.  0.
         -6    2    1    2    0  502  0.50672125025E+02  0.16375927395E+03 -0.24704590638E+02  0.24355709323E+03  0.17124537017E+03 0.  0.
        -24    2    5    5    0    0  0.71649859806E+02  0.78113672439E+02  0.34534697493E+02  0.13722451275E+03  0.80015456851E+02 0.  0.
          5    1    3    3  501    0 -0.18550369822E+02  0.27209166612E+02 -0.37514171982E+02  0.50138389162E+02  0.47000000000E+01 0. -1.
        -11    1    4    4    0    0  0.23435943022E+02 -0.56023380073E+02 -0.99559637157E+02  0.11661896883E+03  0.00000000000E+00 0.  1.
         12    1    4    4    0    0 -0.55557698224E+02 -0.13494506049E+03 -0.14919785865E+03  0.20870272688E+03  0.00000000000E+00 0. -1.
         -5    1    5    5    0  502 -0.20977734782E+02  0.85645601515E+02 -0.59239288131E+02  0.10633258049E+03  0.47000000000E+01 0.  1.
         11    1    6    6    0    0  0.52452154160E+02  0.42573584899E+02 -0.18984826315E+02  0.70172375173E+02  0.00000000000E+00 0. -1.
        -12    1    6    6    0    0  0.19197705646E+02  0.35540087539E+02  0.53519523808E+02  0.67052137572E+02  0.00000000000E+00 0.  1.
</event>
<event>
12    1  0.8406581E-002  0.1842325E+03  0.7818608E-02  0.1164080E+00
         21   -1    0    0  501  502  0.00000000000E+00  0.00000000000E+00  0.31494667390E+03  0.31494667390E+03  0.00000000000E+00 0.  1.
         21   -1    0    0  502  503 -0.00000000000E+00 -0.00000000000E+00 -0.26432351462E+03  0.26432351462E+03  0.00000000000E+00 0.  1.
         -6    2    1    2    0  503  0.52493414192E+02 -0.28159946413E+02 -0.19817577897E+03  0.26968576012E+03  0.17293995700E+03 0.  0.
        -24    2    3    3    0    0  0.65522094872E+02  0.22439852936E+02 -0.57301998933E+02  0.11936078510E+03  0.78528886541E+02 0.  0.
          6    2    1    2  501    0 -0.52493414192E+02  0.28159946413E+02  0.24879893824E+03  0.30958442840E+03  0.17433607062E+03 0.  0.
         24    2    5    5    0    0 -0.55918065706E+02  0.83252600719E+02  0.17248188641E+03  0.21528007433E+03  0.80855943890E+02 0.  0.
          5    1    5    5  501    0  0.34246515138E+01 -0.55092654306E+02  0.76317051830E+02  0.94304354070E+02  0.47000000000E+01 0. -1.
        -11    1    6    6    0    0 -0.39289451760E+01 -0.56663956214E+01  0.68754077528E+02  0.69098971238E+02  0.00000000000E+00 0.  1.
         12    1    6    6    0    0 -0.51989120530E+02  0.88918996341E+02  0.10372780889E+03  0.14618110309E+03  0.00000000000E+00 0. -1.
         -5    1    3    3    0  503 -0.13028680680E+02 -0.50599799350E+02 -0.14087378004E+03  0.15032497502E+03  0.47000000000E+01 0.  1.
         11    1    4    4    0    0  0.15228868941E+01 -0.55443444130E+01  0.16662731200E+02  0.17626841762E+02  0.00000000000E+00 0. -1.
        -12    1    4    4    0    0  0.63999207978E+02  0.27984197349E+02 -0.73964730133E+02  0.10173394334E+03  0.00000000000E+00 0.  1.
</event>
<event>
12    1  0.8406581E-002  0.1855051E+03  0.7818608E-02  0.1162651E+00
         21   -1    0    0  503  502  0.00000000000E+00  0.00000000000E+00  0.23182135467E+03  0.23182135467E+03  0.00000000000E+00 0.  1.
         21   -1    0    0  501  503 -0.00000000000E+00 -0.00000000000E+00 -0.19062089185E+03  0.19062089185E+03  0.00000000000E+00 0. -1.
          6    2    1    2  501    0 -0.13932441006E+01 -0.66990633519E+02 -0.79032759457E+02  0.20163908617E+03  0.17298109115E+03 0.  0.
         24    2    3    3    0    0 -0.58315971907E+02 -0.16273547219E+01 -0.32798580494E+02  0.10329151650E+03  0.78676487184E+02 0.  0.
         -6    2    1    2    0  502  0.13932441006E+01  0.66990633519E+02  0.12023322227E+03  0.22080316035E+03  0.17265086671E+03 0.  0.
        -24    2    5    5    0    0  0.56511700988E+01  0.11329851439E+03  0.89970189220E+02  0.16512110818E+03  0.79384232249E+02 0.  0.
          5    1    3    3  501    0  0.56922727806E+02 -0.65363278797E+02 -0.46234178963E+02  0.98347569672E+02  0.47000000000E+01 0. -1.
        -11    1    4    4    0    0  0.10609236296E+02  0.22495026042E+02 -0.69031561673E+01  0.25811541149E+02  0.00000000000E+00 0.  1.
         12    1    4    4    0    0 -0.68925208202E+02 -0.24122380764E+02 -0.25895424327E+02  0.77479975352E+02  0.00000000000E+00 0. -1.
         -5    1    5    5    0  502 -0.42579259982E+01 -0.46307880875E+02  0.30263033051E+02  0.55682052175E+02  0.47000000000E+01 0.  1.
         11    1    6    6    0    0  0.33808415346E+02  0.48171956754E+02  0.12681237949E+02  0.60202659091E+02  0.00000000000E+00 0. -1.
        -12    1    6    6    0    0 -0.28157245247E+02  0.65126557640E+02  0.77288951271E+02  0.10491844909E+03  0.00000000000E+00 0.  1.
</event>
<event>
12    1  0.8406581E-002  0.1817129E+03  0.7818608E-02  0.1167142E+00
         21   -1    0    0  501  502  0.00000000000E+00  0.00000000000E+00  0.45331093417E+02  0.45331093417E+02  0.00000000000E+00 0. -1.
         21   -1    0    0  502  503 -0.00000000000E+00 -0.00000000000E+00 -0.73679630134E+03  0.73679630134E+03  0.00000000000E+00 0. -1.
         -6    2    1    2    0  503  0.13325521592E+02  0.55250282161E+02 -0.27043368235E+03  0.32355664665E+03  0.16829843683E+03 0.  0.
        -24    2    3    3    0    0  0.59737599867E+02  0.74674228722E+02 -0.16536044349E+03  0.20696399580E+03  0.79656751197E+02 0.  0.
          6    2    1    2  501    0 -0.13325521592E+02 -0.55250282161E+02 -0.42103152557E+03  0.45857074810E+03  0.17259612477E+03 0.  0.
         24    2    5    5    0    0 -0.96737220914E+01 -0.30650558374E+02 -0.80377279464E+02  0.11697758740E+03  0.78677895695E+02 0.  0.
          5    1    5    5  501    0 -0.36517995005E+01 -0.24599723787E+02 -0.34065424611E+03  0.34159316071E+03  0.47000000000E+01 0. -1.
        -13    1    6    6    0    0 -0.33207119929E+02 -0.76464840063E+01 -0.76618550504E+02  0.83854539608E+02  0.00000000000E+00 0.  1.
         14    1    6    6    0    0  0.23533397837E+02 -0.23004074368E+02 -0.37587289602E+01  0.33123047787E+02  0.00000000000E+00 0. -1.
         -5    1    3    3    0  503 -0.46412078275E+02 -0.19423946561E+02 -0.10507323886E+03  0.11659265086E+03  0.47000000000E+01 0.  1.
         13    1    4    4    0    0 -0.12396484302E+02  0.34279170042E+02 -0.81112110578E+02  0.88926423544E+02  0.00000000000E+00 0. -1.
        -14    1    4    4    0    0  0.72134084169E+02  0.40395058680E+02 -0.84248332916E+02  0.11803757225E+03  0.00000000000E+00 0.  1.
</event>
<event>
12    1  0.8406581E-002  0.2116754E+03  0.7818608E-02  0.1140423E+00
         21   -1    0    0  503  502  0.00000000000E+00  0.00000000000E+00  0.50969990624E+03  0.50969990624E+03  0.00000000000E+00 0.  1.
         21   -1    0    0  501  503 -0.00000000000E+00 -0.00000000000E+00 -0.93563439733E+02  0.93563439733E+02  0.00000000000E+00 0.  1.
          6    2    1    2  501    0 -0.11136402117E+03 -0.48563560436E+02  0.13108138444E+03  0.24821000280E+03  0.17223678913E+03 0.  0.
         24    2    3    3    0    0 -0.82995513624E+02  0.37063372812E+02  0.74984085482E+02  0.14188154533E+03  0.79030443142E+02 0.  0.
         -6    2    1    2    0  502  0.11136402117E+03  0.48563560436E+02  0.28505508207E+03  0.35505334318E+03  0.17333814374E+03 0.  0.
        -24    2    5    5    0    0  0.51066597444E+02  0.46069063111E+02  0.27556060441E+03  0.29378151498E+03  0.75125068332E+02 0.  0.
          5    1    3    3  501    0 -0.28368507544E+02 -0.85626933248E+02  0.56097298957E+02  0.10632845747E+03  0.47000000000E+01 0. -1.
        -11    1    4    4    0    0 -0.29799663654E+02  0.41172198585E+01  0.73360073814E+02  0.79288535636E+02  0.00000000000E+00 0.  1.
         12    1    4    4    0    0 -0.53195849969E+02  0.32946152953E+02  0.16240116676E+01  0.62593009692E+02  0.00000000000E+00 0. -1.
         -5    1    5    5    0  502  0.60297423724E+02  0.24944973244E+01  0.94944776648E+01  0.61271828199E+02  0.47000000000E+01 0.  1.
         11    1    6    6    0    0  0.70830087159E+02  0.33874954645E+02  0.20660222239E+03  0.22101785470E+03  0.00000000000E+00 0. -1.
        -12    1    6    6    0    0 -0.19763489715E+02  0.12194108466E+02  0.68958382015E+02  0.72763660279E+02  0.00000000000E+00 0.  1.
</event>
<event>
12    1  0.8406581E-002  0.1907707E+03  0.7818608E-02  0.1157848E+00
         21   -1    0    0  503  502  0.00000000000E+00  0.00000000000E+00  0.36312763062E+03  0.36312763062E+03  0.00000000000E+00 0.  1.
         21   -1    0    0  501  503 -0.00000000000E+00 -0.00000000000E+00 -0.12205464048E+03  0.12205464048E+03  0.00000000000E+00 0.  1.
          6    2    1    2  501    0  0.55957507292E+02 -0.61511717399E+02  0.17592105693E+02  0.19158010996E+03  0.17169310513E+03 0.  0.
         24    2    3    3    0    0  0.69924895433E+02 -0.43009226062E+02 -0.44347189667E+02  0.12527779908E+03  0.83597662554E+02 0.  0.
         -6    2    1    2    0  502 -0.55957507292E+02  0.61511717399E+02  0.22348088444E+03  0.29360216114E+03  0.17129970612E+03 0.  0.
        -24    2    5    5    0    0  0.32581248164E+01  0.13834393057E+02  0.31438140027E+02  0.87005636427E+02  0.79872512876E+02 0.  0.
          5    1    3    3  501    0 -0.13967388141E+02 -0.18502491337E+02  0.61939295360E+02  0.66302310871E+02  0.47000000000E+01 0. -1.
        -13    1    4    4    0    0  0.38734008243E+01 -0.13194441241E+02 -0.50699384117E+02  0.52531172302E+02  0.00000000000E+00 0.  1.
         14    1    4    4    0    0  0.66051494609E+02 -0.29814784821E+02  0.63521944495E+01  0.72746626783E+02  0.00000000000E+00 0. -1.
         -5    1    5    5    0  502 -0.59215632108E+02  0.47677324341E+02  0.19204274442E+03  0.20659652472E+03  0.47000000000E+01 0.  1.
         11    1    6    6    0    0  0.13761120470E+00 -0.32502528922E+02  0.22964616960E+02  0.39797072194E+02  0.00000000000E+00 0. -1.
        -12    1    6    6    0    0  0.31205136117E+01  0.46336921979E+02  0.84735230679E+01  0.47208564232E+02  0.00000000000E+00 0.  1.
</event>
<event>
12    1  0.8406581E-002  0.2086522E+03  0.7818608E-02  0.1143534E+00
         21   -1    0    0  501  502  0.00000000000E+00  0.00000000000E+00  0.12239361664E+04  0.12239361664E+04  0.00000000000E+00 0. -1.
         21   -1    0    0  502  503 -0.00000000000E+00 -0.00000000000E+00 -0.53986588812E+02  0.53986588812E+02  0.00000000000E+00 0. -1.
         -6    2    1    2    0  503  0.91006859717E+02  0.74479345820E+02  0.20018763524E+03  0.28596813673E+03  0.16695288094E+03 0.  0.
        -24    2    3    3    0    0  0.11730309543E+03  0.82749432451E+02  0.12787096495E+03  0.20843313078E+03  0.80535095219E+02 0.  0.
          6    2    1    2  501    0 -0.91006859717E+02 -0.74479345820E+02  0.96976194233E+03  0.99195461846E+03  0.17235521120E+03 0.  0.
         24    2    5    5    0    0 -0.12456585921E+02 -0.82846608604E+02  0.38939512326E+03  0.40621756886E+03  0.79783608228E+02 0.  0.
          5    1    5    5  501    0 -0.78550273796E+02  0.83672627838E+01  0.58036681907E+03  0.58573704960E+03  0.47000000000E+01 0. -1.
        -11    1    6    6    0    0 -0.29544700357E+02 -0.73861788716E+02  0.19126586178E+03  0.20714990474E+03  0.00000000000E+00 0.  1.
         12    1    6    6    0    0  0.17088114435E+02 -0.89848198881E+01  0.19812926148E+03  0.19906766412E+03  0.00000000000E+00 0. -1.
         -5    1    3    3    0  503 -0.26296235713E+02 -0.82700866312E+01  0.72316670290E+02  0.77535005948E+02  0.47000000000E+01 0.  1.
         11    1    4    4    0    0  0.96484005867E+02  0.87356465012E+02  0.72246716146E+02  0.14886202794E+03  0.00000000000E+00 0. -1.
        -12    1    4    4    0    0  0.20819089564E+02 -0.46070325610E+01  0.55624248803E+02  0.59571102845E+02  0.00000000000E+00 0.  1.
</event>
<event>
12    1  0.8406581E-002  0.1850112E+03  0.7818608E-02  0.1163292E+00
         21   -1    0    0  503  502  0.00000000000E+00  0.00000000000E+00  0.48803398877E+03  0.48803398877E+03  0.00000000000E+00 0.  1.
         21   -1    0    0  501  503 -0.00000000000E+00 -0.00000000000E+00 -0.72202396479E+02  0.72202396479E+02  0.00000000000E+00 0.  1.
          6    2    1    2  501    0 -0.83607365393E+01 -0.67321434381E+02  0.26034692387E+03  0.31938952817E+03  0.17212516519E+03 0.  0.
         24    2    3    3    0    0 -0.91454846993E+01 -0.82091813610E+02  0.27554728413E+03  0.29766578806E+03  0.76523916781E+02 0.  0.
         -6    2    1    2    0  502  0.83607365393E+01  0.67321434381E+02  0.15548466842E+03  0.24084685708E+03  0.17096680675E+03 0.  0.
        -24    2    5    5    0    0  0.34165182822E+02  0.23256410874E+02  0.16521970860E+03  0.18865052817E+03  0.81137841375E+02 0.  0.
          5    1    3    3  501    0  0.78474816004E+00  0.14770379229E+02 -0.15200360257E+02  0.21723740106E+02  0.47000000000E+01 0. -1.
        -13    1    4    4    0    0 -0.42439324114E+01 -0.24303410798E+02  0.11312301499E+02  0.27141018845E+02  0.00000000000E+00 0.  1.
         14    1    4    4    0    0 -0.49015522880E+01 -0.57788402811E+02  0.26423498263E+03  0.27052476921E+03  0.00000000000E+00 0. -1.
         -5    1    5    5    0  502 -0.25804446283E+02  0.44065023507E+02 -0.97350401841E+01  0.52196328913E+02  0.47000000000E+01 0.  1.
         13    1    6    6    0    0 -0.15901547091E+02 -0.63134780323E+01  0.44349182460E+01  0.17674493051E+02  0.00000000000E+00 0. -1.
        -14    1    6    6    0    0  0.50066729913E+02  0.29569888906E+02  0.16078479036E+03  0.17097603512E+03  0.00000000000E+00 0.  1.
</event>
<event>
12    1  0.8406581E-002  0.2188505E+03  0.7818608E-02  0.1134834E+00
         21   -1    0    0  503  502  0.00000000000E+00  0.00000000000E+00  0.14957802271E+03  0.14957802271E+03  0.00000000000E+00 0.  1.
         21   -1    0    0  501  503 -0.00000000000E+00 -0.00000000000E+00 -0.35252503958E+03  0.35252503958E+03  0.00000000000E+00 0. -1.
          6    2    1    2  501    0 -0.12579133900E+03  0.50679082623E+02 -0.17821870243E+03  0.28185994840E+03  0.17114699598E+03 0.  0.
         24    2    3    3    0    0 -0.60498093769E+02 -0.10875973989E+02 -0.16118630290E+03  0.19040271522E+03  0.80584511905E+02 0.  0.
         -6    2    1    2    0  502  0.12579133900E+03 -0.50679082623E+02 -0.24728314444E+02  0.22024311389E+03  0.17176643822E+03 0.  0.
        -24    2    5    5    0    0  0.82109198398E+02  0.36773507118E+00 -0.74619850639E+02  0.13642687210E+03  0.79385852833E+02 0.  0.
          5    1    3    3  501    0 -0.65293245230E+02  0.61555056613E+02 -0.17032399529E+02  0.91457233180E+02  0.47000000000E+01 0. -1.
        -11    1    4    4    0    0 -0.72493700673E+01 -0.17195936034E+01  0.90938134227E+01  0.11756181825E+02  0.00000000000E+00 0.  1.
         12    1    4    4    0    0 -0.53248723702E+02 -0.91563803860E+01 -0.17028011632E+03  0.17864653339E+03  0.00000000000E+00 0. -1.
         -5    1    5    5    0  502  0.43682140601E+02 -0.51046817695E+02  0.49891536195E+02  0.83816241792E+02  0.47000000000E+01 0.  1.
         13    1    6    6    0    0  0.48194929357E+02 -0.16821054295E+02  0.17927138892E+01  0.51077518600E+02  0.00000000000E+00 0. -1.
        -14    1    6    6    0    0  0.33914269041E+02  0.17188789366E+02 -0.76412564528E+02  0.85349353496E+02  0.00000000000E+00 0.  1.
</event>
<event>
12    1  0.8406581E-002  0.2040441E+03  0.7818608E-02  0.1146495E+00
         21   -1    0    0  501  502  0.00000000000E+00  0.00000000000E+00  0.28568772859E+03  0.28568772859E+03  0.00000000000E+00 0. -1.
         21   -1    0    0  502  503 -0.00000000000E+00 -0.00000000000E+00 -0.27662062326E+03  0.27662062326E+03  0.00000000000E+00 0.  1.
         -6    2    1    2    0  503 -0.45759168191E+02 -0.10021176879E+03 -0.18918593278E+03  0.27781187121E+03  0.17103163025E+03 0.  0.
        -24    2    3    3    0    0 -0.23409002140E+02 -0.99000079786E+02 -0.53894088222E+02  0.14060046018E+03  0.80715051127E+02 0.  0.
          6    2    1    2  501    0  0.45759168191E+02  0.10021176879E+03  0.19825303812E+03  0.28449648064E+03  0.17174888733E+03 0.  0.
         24    2    5    5    0    0  0.53753008027E+02  0.32296474702E+02  0.18970777521E+03  0.21542043440E+03  0.80526240648E+02 0.  0.
          5    1    5    5  501    0 -0.79938398368E+01  0.67915294087E+02  0.85452629100E+01  0.69076046243E+02  0.47000000000E+01 0. -1.
        -11    1    6    6    0    0  0.89297887126E+01 -0.18862196154E+02  0.10364316553E+03  0.10572336227E+03  0.00000000000E+00 0.  1.
         12    1    6    6    0    0  0.44823219315E+02  0.51158670856E+02  0.86064609680E+02  0.10969707213E+03  0.00000000000E+00 0. -1.
         -5    1    3    3    0  503 -0.22350166051E+02 -0.12116890032E+01 -0.13529184456E+03  0.13721141103E+03  0.47000000000E+01 0.  1.
         13    1    4    4    0    0  0.23895716548E+02 -0.64813325587E+02 -0.15671323804E+02  0.70833345486E+02  0.00000000000E+00 0. -1.
        -14    1    4    4    0    0 -0.47304718688E+02 -0.34186754199E+02 -0.38222764419E+02  0.69767114693E+02  0.00000000000E+00 0.  1.
</event>
<event>
12    1  0.8406581E-002  0.1769264E+03  0.7818608E-02  0.1174501E+00
         21   -1    0    0  501  502  0.00000000000E+00  0.00000000000E+00  0.23926665885E+03  0.23926665885E+03  0.00000000000E+00 0. -1.
         21   -1    0    0  502  503 -0.00000000000E+00 -0.00000000000E+00 -0.31837781226E+03  0.31837781226E+03  0.00000000000E+00 0. -1.
         -6    2    1    2    0  503 -0.37847194869E+02 -0.22694601388E+02 -0.25992441853E+03  0.31442590478E+03  0.17133444241E+03 0.  0.
        -24    2    3    3    0    0 -0.72153895614E+02 -0.49402873901E+02 -0.12371796068E+03  0.17137147214E+03  0.80095062691E+02 0.  0.
          6    2    1    2  501    0  0.37847194869E+02  0.22694601388E+02  0.18081326512E+03  0.24321856634E+03  0.15657068397E+03 0.  0.
         24    2    5    5    0    0  0.16178216985E+02  0.64984963816E+02  0.79980520731E+02  0.13165086628E+03  0.80313676717E+02 0.  0.
          5    1    5    5  501    0  0.21668977884E+02 -0.42290362428E+02  0.10083274439E+03  0.11156770006E+03  0.47000000000E+01 0. -1.
        -13    1    6    6    0    0  0.88663390382E+00 -0.11000690511E+02 -0.85675759661E+01  0.13971566459E+02  0.00000000000E+00 0.  1.
         14    1    6    6    0    0  0.15291583082E+02  0.75985654327E+02  0.88548096697E+02  0.11767929982E+03  0.00000000000E+00 0. -1.
         -5    1    3    3    0  503  0.34306700745E+02  0.26708272514E+02 -0.13620645785E+03  0.14305443264E+03  0.47000000000E+01 0.  1.
         13    1    4    4    0    0  0.16041672417E+02 -0.91575889781E+01 -0.36767225747E+02  0.41146392053E+02  0.00000000000E+00 0. -1.
        -14    1    4    4    0    0 -0.88195568031E+02 -0.40245284923E+02 -0.86950734928E+02  0.13022508009E+03  0.00000000000E+00 0.  1.
</event>
<event>
12    1  0.8406581E-002  0.1725653E+03  0.7818608E-02  0.1175199E+00
         21   -1    0    0  503  502  0.00000000000E+00  0.00000000000E+00  0.84710005616E+03  0.84710005616E+03  0.00000000000E+00 0. -1.
         21   -1    0    0  501  503 -0.00000000000E+00 -0.00000000000E+00 -0.41669489012E+02  0.41669489012E+02  0.00000000000E+00 0. -1.
          6    2    1    2  501    0 -0.50849352697E+01 -0.18562157604E+01  0.22698080500E+03  0.28512816020E+03  0.17247747620E+03 0.  0.
         24    2    3    3    0    0 -0.53712058415E+02 -0.45500615206E+02  0.14862277505E+03  0.18299343757E+03  0.80265669670E+02 0.  0.
         -6    2    1    2    0  502  0.50849352697E+01  0.18562157604E+01  0.57844976215E+03  0.60364138497E+03  0.17248041112E+03 0.  0.
        -24    2    5    5    0    0 -0.39825175912E+02 -0.49776387426E+02  0.29792670551E+03  0.31485405994E+03  0.79429363709E+02 0.  0.
          5    1    3    3  501    0  0.48627123145E+02  0.43644399446E+02  0.78358029950E+02  0.10213472263E+03  0.47000000000E+01 0. -1.
        -11    1    4    4    0    0 -0.66652929683E+02 -0.25966801117E+02  0.14141661774E+03  0.15847885527E+03  0.00000000000E+00 0.  1.
         12    1    4    4    0    0  0.12940871268E+02 -0.19533814089E+02  0.72061573073E+01  0.24514582297E+02  0.00000000000E+00 0. -1.
         -5    1    5    5    0  502  0.44910111182E+02  0.51632603186E+02  0.28052305663E+03  0.28878732504E+03  0.47000000000E+01 0.  1.
         11    1    6    6    0    0 -0.41695916317E+02 -0.67055990577E+02  0.27482842428E+03  0.28594705472E+03  0.00000000000E+00 0. -1.
        -12    1    6    6    0    0  0.18707404044E+01  0.17279603152E+02  0.23098281229E+02  0.28907005215E+02  0.00000000000E+00 0.  1.
</event>
<event>
12    1  0.8406581E-002  0.1801267E+03  0.7818608E-02  0.1167927E+00
         21   -1    0    0  501  502  0.00000000000E+00  0.00000000000E+00  0.56535382465E+03  0.56535382465E+03  0.00000000000E+00 0. -1.
         21   -1    0    0  502  503 -0.00000000000E+00 -0.00000000000E+00 -0.13845465902E+03  0.13845465902E+03  0.00000000000E+00 0. -1.
         -6    2    1    2    0  503 -0.50928492340E+02 -0.97234154625E+01 -0.56107396061E+02  0.18866284395E+03  0.17250325404E+03 0.  0.
        -24    2    3    3    0    0 -0.54757557116E+02 -0.40474885749E+02 -0.92140609193E+02  0.14090515232E+03  0.82022945869E+02 0.  0.
          6    2    1    2  501    0  0.50928492340E+02  0.97234154625E+01  0.48300656169E+03  0.51514563972E+03  0.17143930514E+03 0.  0.
         24    2    5    5    0    0  0.33115358258E+02 -0.18563373208E+02  0.47136376260E+03  0.47943716832E+03  0.78961863572E+02 0.  0.
          5    1    5    5  501    0  0.17813134083E+02  0.28286788670E+02  0.11642799096E+02  0.35708471403E+02  0.47000000000E+01 0. -1.
        -13    1    6    6    0    0  0.12780471990E+02  0.18094323147E+02  0.37511642609E+02  0.43564530591E+02  0.00000000000E+00 0.  1.
         14    1    6    6    0    0  0.20334886267E+02 -0.36657696354E+02  0.43385211999E+03  0.43587263773E+03  0.00000000000E+00 0. -1.
         -5    1    3    3    0  503  0.38290647758E+01  0.30751470287E+02  0.36033213132E+02  0.47757691637E+02  0.47000000000E+01 0.  1.
         11    1    4    4    0    0 -0.69304545818E+02 -0.12024021058E+02 -0.43488859972E+02  0.82698114218E+02  0.00000000000E+00 0. -1.
        -12    1    4    4    0    0  0.14546988702E+02 -0.28450864691E+02 -0.48651749221E+02  0.58207038099E+02  0.00000000000E+00 0.  1.
</event>
<event>
12    1  0.8406581E-002  0.2308286E+03  0.7818608E-02  0.1126096E+00
         21   -1    0    0  503  502  0.00000000000E+00  0.00000000000E+00  0.75696144517E+03  0.75696144517E+03  0.00000000000E+00 0. -1.
         21   -1    0    0  501  503 -0.00000000000E+00 -0.00000000000E+00 -0.35817017026E+03  0.35817017026E+03  0.00000000000E+00 0.  1.
          6    2    1    2  501    0 -0.11286029225E+03  0.10506024859E+03 -0.30042813142E+03  0.37886527644E+03  0.17177524310E+03 0.  0.
         24    2    3    3    0    0 -0.55750968838E+02  0.25754031587E+02 -0.24880502741E+03  0.26823984653E+03  0.79228990455E+02 0.  0.
         -6    2    1    2    0  502  0.11286029225E+03 -0.10506024859E+03  0.69921940632E+03  0.73626633899E+03  0.17147956835E+03 0.  0.
        -24    2    5    5    0    0  0.42604181507E+02 -0.50721505543E+02  0.16563988384E+03  0.19532473688E+03  0.79544920085E+02 0.  0.
          5    1    3    3  501    0 -0.57109323416E+02  0.79306217002E+02 -0.51623104002E+02  0.11062542991E+03  0.47000000000E+01 0. -1.
        -11    1    4    4    0    0 -0.77457568864E+01 -0.24154489991E+02 -0.11283968946E+03  0.11565565984E+03  0.00000000000E+00 0.  1.
         12    1    4    4    0    0 -0.48005211951E+02  0.49908521579E+02 -0.13596533796E+03  0.15258418669E+03  0.00000000000E+00 0. -1.
         -5    1    5    5    0  502  0.70256110747E+02 -0.54338743046E+02  0.53357952247E+03  0.54094160211E+03  0.47000000000E+01 0.  1.
         11    1    6    6    0    0 -0.97388888762E+01 -0.29406436765E+02  0.11612550800E+03  0.12018618094E+03  0.00000000000E+00 0. -1.
        -12    1    6    6    0    0  0.52343070383E+02 -0.21315068778E+02  0.49514375841E+02  0.75138555942E+02  0.00000000000E+00 0.  1.
</event>
<event>
12    1  0.8406581E-002  0.1795672E+03  0.7818608E-02  0.1172738E+00
         21   -1    0    0  503  502  0.00000000000E+00  0.00000000000E+00  0.57604699380E+02  0.57604699380E+02  0.00000000000E+00 0. -1.
         21   -1    0    0  501  503 -0.00000000000E+00 -0.00000000000E+00 -0.52187069353E+03  0.52187069353E+03  0.00000000000E+00 0.  1.
          6    2    1    2  501    0 -0.78593662720E+01  0.53352222730E+02 -0.29385314155E+03  0.34437487712E+03  0.17127801344E+03 0.  0.
         24    2    3    3    0    0 -0.48028680668E+02  0.44842213180E+02 -0.95621238216E+02  0.14188050293E+03  0.81664421038E+02 0.  0.
         -6    2    1    2    0  502  0.78593662720E+01 -0.53352222730E+02 -0.17041285260E+03  0.23510051579E+03  0.15272027660E+03 0.  0.
        -24    2    5    5    0    0 -0.28300658444E+02 -0.76260443333E+02 -0.14432317878E+03  0.18475078849E+03  0.81774638062E+02 0.  0.
          5    1    3    3  501    0  0.40169314396E+02  0.85100095502E+01 -0.19823190333E+03  0.20249437419E+03  0.47000000000E+01 0. -1.
        -13    1    4    4    0    0 -0.48093871753E+02  0.51820179393E+02 -0.10716885699E+03  0.12838814354E+03  0.00000000000E+00 0.  1.
         14    1    4    4    0    0  0.65191085116E-01 -0.69779662131E+01  0.11547618779E+02  0.13492359386E+02  0.00000000000E+00 0. -1.
         -5    1    5    5    0  502  0.36160024716E+02  0.22908220603E+02 -0.26089673825E+02  0.50349727298E+02  0.47000000000E+01 0.  1.
         13    1    6    6    0    0  0.14131639124E+02 -0.60160508381E+02 -0.47925050620E+02  0.78203583485E+02  0.00000000000E+00 0. -1.
        -14    1    6    6    0    0 -0.42432297567E+02 -0.16099934952E+02 -0.96398128159E+02  0.10654720501E+03  0.00000000000E+00 0.  1.
</event>
<event>
12    1  0.8406581E-002  0.1951247E+03  0.7818608E-02  0.1154488E+00
         21   -1    0    0  503  502  0.00000000000E+00  0.00000000000E+00  0.36256235322E+02  0.36256235322E+02  0.00000000000E+00 0. -1.
         21   -1    0    0  501  503 -0.00000000000E+00 -0.00000000000E+00 -0.12097879788E+04  0.12097879788E+04  0.00000000000E+00 0. -1.
          6    2    1    2  501    0 -0.90605692566E+02  0.89675985273E+01 -0.82610979133E+03  0.84884099652E+03  0.17257995452E+03 0.  0.
         24    2    3    3    0    0 -0.20527595214E+02  0.42674681153E+02 -0.23325733423E+03  0.25089180718E+03  0.79342323899E+02 0.  0.
         -6    2    1    2    0  502  0.90605692566E+02 -0.89675985273E+01 -0.34742195215E+03  0.39720321760E+03  0.16964248845E+03 0.  0.
        -24    2    5    5    0    0  0.27891688205E+02  0.42364127371E+02 -0.26466551713E+03  0.28127776757E+03  0.80601991378E+02 0.  0.
          5    1    3    3  501    0 -0.70078097351E+02 -0.33707082626E+02 -0.59285245710E+03  0.59794918934E+03  0.47000000000E+01 0. -1.
        -13    1    4    4    0    0 -0.41309368389E+02  0.52471257169E+02 -0.14410726550E+03  0.15882884095E+03  0.00000000000E+00 0.  1.
         14    1    4    4    0    0  0.20781773175E+02 -0.97965760157E+01 -0.89150068727E+02  0.92062966235E+02  0.00000000000E+00 0. -1.
         -5    1    5    5    0  502  0.62714004361E+02 -0.51331725899E+02 -0.82756435026E+02  0.11592545003E+03  0.47000000000E+01 0.  1.
         11    1    6    6    0    0  0.26739540373E+02  0.66021403084E+02 -0.20811469785E+03  0.21996717061E+03  0.00000000000E+00 0. -1.
        -12    1    6    6    0    0  0.11521478315E+01 -0.23657275712E+02 -0.56550819272E+02  0.61310596956E+02  0.00000000000E+00 0.  1.
</event>
<event>
12    1  0.8406581E-002  0.1813697E+03  0.7818608E-02  0.1167762E+00
         21   -1    0    0  501  502  0.00000000000E+00  0.00000000000E+00  0.62916797866E+03  0.62916797866E+03  0.00000000000E+00 0. -1.
         21   -1    0    0  502  503 -0.00000000000E+00 -0.00000000000E+00 -0.81504268707E+02  0.81504268707E+02  0.00000000000E+00 0. -1.
         -6    2    1    2    0  503  0.26098492238E+02  0.30497793904E+02  0.58187472801E+02  0.19047503616E+03  0.17687201780E+03 0.  0.
        -24    2    3    3    0    0  0.42491691759E+02  0.81756609351E+02  0.18007310063E+02  0.12314941972E+03  0.79698364607E+02 0.  0.
          6    2    1    2  501    0 -0.26098492238E+02 -0.30497793904E+02  0.48947623715E+03  0.52019721120E+03  0.17148441643E+03 0.  0.
         24    2    5    5    0    0 -0.36039409129E+02 -0.57434196614E+02  0.47754536192E+03  0.48875158506E+03  0.78936767444E+02 0.  0.
          5    1    5    5  501    0  0.99409168909E+01  0.26936402710E+02  0.11930875224E+02  0.31445626138E+02  0.47000000000E+01 0. -1.
        -11    1    6    6    0    0 -0.38629073411E+01 -0.63832756308E+02  0.21939743158E+03  0.22852740715E+03  0.00000000000E+00 0.  1.
         12    1    6    6    0    0 -0.32176501788E+02  0.63985596948E+01  0.25814793034E+03  0.26022417792E+03  0.00000000000E+00 0. -1.
         -5    1    3    3    0  503 -0.16393199521E+02 -0.51258815448E+02  0.40180162738E+02  0.67325616442E+02  0.47000000000E+01 0.  1.
         13    1    4    4    0    0  0.39554104046E+02  0.41661082597E+01 -0.92923210430E+01  0.40843981629E+02  0.00000000000E+00 0. -1.
        -14    1    4    4    0    0  0.29375877132E+01  0.77590501091E+02  0.27299631106E+02  0.82305438093E+02  0.00000000000E+00 0.  1.
</event>
<event>
12    1  0.8406581E-002  0.1719066E+03  0.7818608E-02  0.1175958E+00
         21   -1    0    0  501  502  0.00000000000E+00  0.00000000000E+00  0.93335719364E+02  0.93335719364E+02  0.00000000000E+00 0. -1.
         21   -1    0    0  502  503 -0.00000000000E+00 -0.00000000000E+00 -0.37311651362E+03  0.37311651362E+03  0.00000000000E+00 0. -1.
         -6    2    1    2    0  503 -0.96641333322E+01  0.58879502710E+01 -0.23124019974E+03  0.28813867160E+03  0.17153367210E+03 0.  0.
        -24    2    3    3    0    0 -0.37643580694E+02 -0.45541009274E+02 -0.87553548536E+02  0.13291067448E+03  0.80675899973E+02 0.  0.
          6    2    1    2  501    0  0.96641333322E+01 -0.58879502710E+01 -0.48540594510E+02  0.17831356138E+03  0.17120593864E+03 0.  0.
         24    2    5    5    0    0  0.35507511043E+02 -0.54786882747E+02 -0.62993336404E+02  0.12095541011E+03  0.79997905863E+02 0.  0.
          5    1    5    5  501    0 -0.25843377710E+02  0.48898932476E+02  0.14452741894E+02  0.57358151269E+02  0.47000000000E+01 0. -1.
        -13    1    6    6    0    0 -0.54533494434E+01  0.78457082586E+01 -0.42221022852E+02  0.43288669752E+02  0.00000000000E+00 0.  1.
         14    1    6    6    0    0  0.40960860486E+02 -0.62632591005E+02 -0.20772313552E+02  0.77666740360E+02  0.00000000000E+00 0. -1.
         -5    1    3    3    0  503  0.27979447362E+02  0.51428959545E+02 -0.14368665121E+03  0.15522799712E+03  0.47000000000E+01 0.  1.
         13    1    4    4    0    0 -0.20827536874E+02  0.14181343139E+02 -0.59896992623E+02  0.64981124265E+02  0.00000000000E+00 0. -1.
        -14    1    4    4    0    0 -0.16816043820E+02 -0.59722352413E+02 -0.27656555912E+02  0.67929550215E+02  0.00000000000E+00 0.  1.
</event>
<event>
12    1  0.8406581E-002  0.4352475E+03  0.7818608E-02  0.1032237E+00
         21   -1    0    0  501  502  0.00000000000E+00  0.00000000000E+00  0.66077921456E+03  0.66077921456E+03  0.00000000000E+00 0.  1.
         21   -1    0    0  502  503 -0.00000000000E+00 -0.00000000000E+00 -0.31458349315E+03  0.31458349315E+03  0.00000000000E+00 0. -1.
         -6    2    1    2    0  503 -0.27025815562E+03  0.29490037996E+03  0.27361284190E+02  0.43582977848E+03  0.17086032646E+03 0.  0.
        -24    2    3    3    0    0 -0.25221781097E+03  0.23534585953E+03  0.65885861393E+02  0.36249201203E+03  0.89766443005E+02 0.  0.
          6    2    1    2  501    0  0.27025815562E+03 -0.29490037996E+03  0.31883443722E+03  0.53953292923E+03  0.17156537701E+03 0.  0.
         24    2    5    5    0    0  0.16683658009E+03 -0.27306396638E+03  0.24724777986E+03  0.41178477560E+03  0.77697249529E+02 0.  0.
          5    1    5    5  501    0  0.10342157553E+03 -0.21836413578E+02  0.71586657361E+02  0.12774815363E+03  0.47000000000E+01 0. -1.
        -11    1    6    6    0    0  0.58248017559E+02 -0.74532225822E+02  0.11783173645E+03  0.15110328372E+03  0.00000000000E+00 0.  1.
         12    1    6    6    0    0  0.10858856253E+03 -0.19853174055E+03  0.12941604341E+03  0.26068149189E+03  0.00000000000E+00 0. -1.
         -5    1    3    3    0  503 -0.18040344654E+02  0.59554520426E+02 -0.38524577203E+02  0.73337766444E+02  0.47000000000E+01 0.  1.
         11    1    4    4    0    0 -0.12989323185E+02  0.10370574002E+02 -0.17022611754E+02  0.23791608455E+02  0.00000000000E+00 0. -1.
        -12    1    4    4    0    0 -0.23922848778E+03  0.22497528553E+03  0.82908473147E+02  0.33870040358E+03  0.00000000000E+00 0.  1.
</event>
<event>
12    1  0.8406581E-002  0.2105586E+03  0.7818608E-02  0.1141629E+00
         21   -1    0    0  501  502  0.00000000000E+00  0.00000000000E+00  0.18523783279E+04  0.18523783279E+04  0.00000000000E+00 0.  1.
         21   -1    0    0  502  503 -0.00000000000E+00 -0.00000000000E+00 -0.23877770855E+02  0.23877770855E+02  0.00000000000E+00 0. -1.
         -6    2    1    2    0  503 -0.10167994114E+03 -0.65442624737E+02  0.81632376154E+03  0.84241046778E+03  0.16926123305E+03 0.  0.
        -24    2    3    3    0    0  0.22837477111E+01 -0.49516199247E+02  0.25204968817E+03  0.26839877844E+03  0.77793248223E+02 0.  0.
          6    2    1    2  501    0  0.10167994114E+03  0.65442624737E+02  0.10121767955E+04  0.10338456310E+04  0.17237568202E+03 0.  0.
         24    2    5    5    0    0  0.13675474859E+03  0.71624510009E+02  0.85956191331E+03  0.87705963003E+03  0.80962831710E+02 0.  0.
          5    1    5    5  501    0 -0.35074807452E+02 -0.61818852723E+01  0.15261488217E+03  0.15678600092E+03  0.47000000000E+01 0. -1.
        -13    1    6    6    0    0  0.11942472344E+03  0.52490664366E+02  0.50561196414E+03  0.52216950571E+03  0.00000000000E+00 0.  1.
         14    1    6    6    0    0  0.17330025153E+02  0.19133845643E+02  0.35394994917E+03  0.35489012432E+03  0.00000000000E+00 0. -1.
         -5    1    3    3    0  503 -0.10396368885E+03 -0.15926425489E+02  0.56427407336E+03  0.57401168934E+03  0.47000000000E+01 0.  1.
         13    1    4    4    0    0 -0.15937736408E+02 -0.52035036918E+02  0.24071969872E+03  0.24679471198E+03  0.00000000000E+00 0. -1.
        -14    1    4    4    0    0  0.18221484119E+02  0.25188376701E+01  0.11329989453E+02  0.21604066463E+02  0.00000000000E+00 0.  1.
</event>
<event>
12    1  0.8406581E-002  0.2039561E+03  0.7818608E-02  0.1147775E+00
         21   -1    0    0  501  502  0.00000000000E+00  0.00000000000E+00  0.18712505696E+03  0.18712505696E+03  0.00000000000E+00 0.  1.
         21   -1    0    0  502  503 -0.00000000000E+00 -0.00000000000E+00 -0.81990150349E+03  0.81990150349E+03  0.00000000000E+00 0. -1.
         -6    2    1    2    0  503 -0.88876219706E+02  0.38053434564E+02 -0.74739376106E+03  0.77307100248E+03  0.17232032522E+03 0.  0.
        -24    2    3    3    0    0 -0.12625723449E+02 -0.28565947872E+02 -0.46834680303E+03  0.47618453414E+03  0.80172067295E+02 0.  0.
          6    2    1    2  501    0  0.88876219706E+02 -0.38053434564E+02  0.11461731453E+03  0.23395555798E+03  0.17958571215E+03 0.  0.
         24    2    5    5    0    0  0.61109144189E+02 -0.33071441981E+01  0.14752851866E+03  0.17842581339E+03  0.79535164311E+02 0.  0.
          5    1    5    5  501    0  0.27767075516E+02 -0.34746290366E+02 -0.32911204122E+02  0.55529744585E+02  0.47000000000E+01 0. -1.
        -11    1    6    6    0    0  0.18049796690E+02  0.36843946498E+02  0.52376741714E+02  0.66532658347E+02  0.00000000000E+00 0.  1.
         12    1    6    6    0    0  0.43059347499E+02 -0.40151090696E+02  0.95151776943E+02  0.11189315505E+03  0.00000000000E+00 0. -1.
         -5    1    3    3    0  503 -0.76250496257E+02  0.66619382436E+02 -0.27904695804E+03  0.29688646834E+03  0.47000000000E+01 0.  1.
         13    1    4    4    0    0 -0.33873095808E+02 -0.16061904337E+02 -0.42223474262E+03  0.42389568206E+03  0.00000000000E+00 0. -1.
        -14    1    4    4    0    0  0.21247372358E+02 -0.12504043535E+02 -0.46112060407E+02  0.52288852079E+02  0.00000000000E+00 0.  1.
</event>
<event>
12    1  0.8406581E-002  0.2086952E+03  0.7818608E-02  0.1143530E+00
         21   -1    0    0  501  502  0.00000000000E+00  0.00000000000E+00  0.84459035105E+02  0.84459035105E+02  0.00000000000E+00 0. -1.
         21   -1    0    0  502  503 -0.00000000000E+00 -0.00000000000E+00 -0.51792286583E+03  0.51792286583E+03  0.00000000000E+00 0. -1.
         -6    2    1    2    0  503  0.88133128319E+02  0.62216743436E+02 -0.26303963026E+03  0.33294154316E+03  0.17326815231E+03 0.  0.
        -24    2    3    3    0    0  0.75571927561E+02  0.10910373449E+03 -0.20356872558E+03  0.25603216663E+03  0.80607091492E+02 0.  0.
          6    2    1    2  501    0 -0.88133128319E+02 -0.62216743436E+02 -0.17042420046E+03  0.26944035777E+03  0.17864861271E+03 0.  0.
         24    2    5    5    0    0  0.14304817530E+02  0.11695082294E+02 -0.76129589314E+02  0.11173793412E+03  0.79675898482E+02 0.  0.
          5    1    5    5  501    0 -0.10243794585E+03 -0.73911825730E+02 -0.94294611150E+02  0.15770242365E+03  0.47000000000E+01 0. -1.
        -11    1    6    6    0    0  0.18793697702E+02  0.48673844329E+01 -0.91925811651E+02  0.93953442471E+02  0.00000000000E+00 0.  1.
         12    1    6    6    0    0 -0.44888801719E+01  0.68276978613E+01  0.15796222337E+02  0.17784491654E+02  0.00000000000E+00 0. -1.
         -5    1    3    3    0  503  0.12561200758E+02 -0.46886991058E+02 -0.59470904676E+02  0.76909376527E+02  0.47000000000E+01 0.  1.
         13    1    4    4    0    0 -0.76405854216E+01  0.55972340080E+02 -0.77576526145E+02  0.95965612635E+02  0.00000000000E+00 0. -1.
        -14    1    4    4    0    0  0.83212512983E+02  0.53131394414E+02 -0.12599219944E+03  0.16006655400E+03  0.00000000000E+00 0.  1.
</event>
<event>
12    1  0.8406581E-002  0.2019978E+03  0.7818608E-02  0.1148351E+00
         21   -1    0    0  503  502  0.00000000000E+00  0.00000000000E+00  0.84039104303E+03  0.84039104303E+03  0.00000000000E+00 0.  1.
         21   -1    0    0  501  503 -0.00000000000E+00 -0.00000000000E+00 -0.50850985185E+02  0.50850985185E+02  0.00000000000E+00 0.  1.
          6    2    1    2  501    0  0.89055865429E+02  0.54591430297E+02  0.49734234629E+03  0.53679840800E+03  0.17289288591E+03 0.  0.
         24    2    3    3    0    0 -0.12778263457E+02 -0.45305145071E+01  0.25215195220E+03  0.26475794499E+03  0.79576082209E+02 0.  0.
         -6    2    1    2    0  502 -0.89055865429E+02 -0.54591430297E+02  0.29219771156E+03  0.35444362021E+03  0.17128807851E+03 0.  0.
        -24    2    5    5    0    0 -0.43259145500E+02 -0.44445777526E+01  0.26665049718E+03  0.28173325961E+03  0.79875114924E+02 0.  0.
          5    1    3    3  501    0  0.10183412889E+03  0.59121944804E+02  0.24519039409E+03  0.27204046302E+03  0.47000000000E+01 0. -1.
        -13    1    4    4    0    0  0.30028701859E+02  0.56586759889E+00  0.52308325407E+02  0.60317526876E+02  0.00000000000E+00 0.  1.
         14    1    4    4    0    0 -0.42806965316E+02 -0.50963821060E+01  0.19984362679E+03  0.20444041811E+03  0.00000000000E+00 0. -1.
         -5    1    5    5    0  502 -0.45796719928E+02 -0.50146852545E+02  0.25547214383E+02  0.72710360603E+02  0.47000000000E+01 0.  1.
         11    1    6    6    0    0  0.17275685394E+01 -0.31041140746E+02  0.15969047496E+03  0.16268861271E+03  0.00000000000E+00 0. -1.
        -12    1    6    6    0    0 -0.44986714040E+02  0.26596562993E+02  0.10696002222E+03  0.11904464691E+03  0.00000000000E+00 0.  1.
</event>
<event>
12    1  0.8406581E-002  0.2355484E+03  0.7818608E-02  0.1122987E+00
         21   -1    0    0  503  502  0.00000000000E+00  0.00000000000E+00  0.33901130507E+03  0.33901130507E+03  0.00000000000E+00 0. -1.
         21   -1    0    0  501  503 -0.00000000000E+00 -0.00000000000E+00 -0.16788112742E+03  0.16788112742E+03  0.00000000000E+00 0. -1.
          6    2    1    2  501    0 -0.54582567632E+02 -0.14968022253E+03  0.12910700254E+03  0.26762477867E+03  0.17196214219E+03 0.  0.
         24    2    3    3    0    0 -0.69744817282E+02 -0.27857582555E+02  0.72448566840E+02  0.13233650216E+03  0.81386550016E+02 0.  0.
         -6    2    1    2    0  502  0.54582567632E+02  0.14968022253E+03  0.42023175102E+02  0.23926765382E+03  0.17349247020E+03 0.  0.
        -24    2    5    5    0    0  0.45782408072E+02  0.17078426879E+03  0.67075520087E+02  0.20502537636E+03  0.79202172958E+02 0.  0.
          5    1    3    3  501    0  0.15162249650E+02 -0.12182263997E+03  0.56658435704E+02  0.13528827651E+03  0.47000000000E+01 0. -1.
        -11    1    4    4    0    0  0.16258997429E+02  0.67447078388E+01  0.16073946766E+02  0.23837320442E+02  0.00000000000E+00 0.  1.
         12    1    4    4    0    0 -0.86003814710E+02 -0.34602290394E+02  0.56374620074E+02  0.10849918172E+03  0.00000000000E+00 0. -1.
         -5    1    5    5    0  502  0.88001595600E+01 -0.21104046261E+02 -0.25052344985E+02  0.34242277466E+02  0.47000000000E+01 0.  1.
         13    1    6    6    0    0 -0.18884301032E+02  0.19535081268E+02 -0.54343521769E+00  0.27175936920E+02  0.00000000000E+00 0. -1.
        -14    1    6    6    0    0  0.64666709105E+02  0.15124918752E+03  0.67618955304E+02  0.17784943944E+03  0.00000000000E+00 0.  1.
</event>
<event>
12    1  0.8406581E-002  0.1860076E+03  0.7818608E-02  0.1163041E+00
         21   -1    0    0  503  502  0.00000000000E+00  0.00000000000E+00  0.40067672537E+02  0.40067672537E+02  0.00000000000E+00 0. -1.
         21   -1    0    0  501  503 -0.00000000000E+00 -0.00000000000E+00 -0.10005283113E+04  0.10005283113E+04  0.00000000000E+00 0. -1.
          6    2    1    2  501    0  0.33650428018E+02 -0.58631845292E+02 -0.68084333350E+03  0.70476172053E+03  0.16903074680E+03 0.  0.
         24    2    3    3    0    0  0.32280179397E+02  0.84901577669E+01 -0.19777722611E+03  0.21703003713E+03  0.82898209213E+02 0.  0.
         -6    2    1    2    0  502 -0.33650428018E+02  0.58631845292E+02 -0.27961730529E+03  0.33583426333E+03  0.17328811391E+03 0.  0.
        -24    2    5    5    0    0 -0.69275246664E+02  0.91064867327E+01 -0.10351079831E+03  0.14940068094E+03  0.82000549986E+02 0.  0.
          5    1    3    3  501    0  0.13702486210E+01 -0.67122003059E+02 -0.48306610739E+03  0.48773168339E+03  0.47000000000E+01 0. -1.
        -13    1    4    4    0    0  0.38574971723E+02 -0.30681268799E+02 -0.99246112725E+02  0.11081136941E+03  0.00000000000E+00 0.  1.
         14    1    4    4    0    0 -0.62947923259E+01  0.39171426565E+02 -0.98531113381E+02  0.10621866773E+03  0.00000000000E+00 0. -1.
         -5    1    5    5    0  502  0.35624818646E+02  0.49525358559E+02 -0.17610650697E+03  0.18643358239E+03  0.47000000000E+01 0.  1.
         13    1    6    6    0    0 -0.55149686285E+02  0.31282622238E+02 -0.27757050859E+02  0.69213757475E+02  0.00000000000E+00 0. -1.
        -14    1    6    6    0    0 -0.14125560379E+02 -0.22176135506E+02 -0.75753747454E+02  0.80186923468E+02  0.00000000000E+00 0.  1.
</event>
<event>
12    1  0.8406581E-002  0.2014046E+03  0.7818608E-02  0.1148639E+00
         21   -1    0    0  503  502  0.00000000000E+00  0.00000000000E+00  0.26739317240E+03  0.26739317240E+03  0.00000000000E+00 0.  1.
         21   -1    0    0  501  503 -0.00000000000E+00 -0.00000000000E+00 -0.35788850581E+03  0.35788850581E+03  0.00000000000E+00 0.  1.
          6    2    1    2  501    0 -0.98088483479E+02  0.35484593232E+02  0.19223865385E+03  0.27814722139E+03  0.17184199075E+03 0.  0.
         24    2    3    3    0    0 -0.43450518000E+02  0.88719723974E+02  0.14564532701E+03  0.18863568849E+03  0.67909680860E+02 0.  0.
         -6    2    1    2    0  502  0.98088483479E+02 -0.35484593232E+02 -0.28273398726E+03  0.34713445683E+03  0.17228846919E+03 0.  0.
        -24    2    5    5    0    0  0.45732745082E+02  0.13034876788E+02 -0.52925808501E+02  0.10644970172E+03  0.79177053530E+02 0.  0.
          5    1    3    3  501    0 -0.54637965479E+02 -0.53235130742E+02  0.46593326839E+02  0.89511532903E+02  0.47000000000E+01 0. -1.
        -13    1    4    4    0    0 -0.13845863065E+02 -0.59843902648E+01  0.38428335349E+01  0.15565610185E+02  0.00000000000E+00 0.  1.
         14    1    4    4    0    0 -0.29604654935E+02  0.94704114239E+02  0.14180249348E+03  0.17307007830E+03  0.00000000000E+00 0. -1.
         -5    1    5    5    0  502  0.52355738397E+02 -0.48519470019E+02 -0.22980817876E+03  0.24068475510E+03  0.47000000000E+01 0.  1.
         13    1    6    6    0    0 -0.94553907007E+01  0.21768615416E+02 -0.43824496790E+02  0.49838374265E+02  0.00000000000E+00 0. -1.
        -14    1    6    6    0    0  0.55188135783E+02 -0.87337386288E+01 -0.91013117106E+01  0.56611327457E+02  0.00000000000E+00 0.  1.
</event>
<event>
12    1  0.8406581E-002  0.2206682E+03  0.7818608E-02  0.1133534E+00
         21   -1    0    0  501  502  0.00000000000E+00  0.00000000000E+00  0.16485733329E+04  0.16485733329E+04  0.00000000000E+00 0.  1.
         21   -1    0    0  502  503 -0.00000000000E+00 -0.00000000000E+00 -0.30993111663E+02  0.30993111663E+02  0.00000000000E+00 0.  1.
         -6    2    1    2    0  503 -0.10399681935E+03 -0.90164686672E+02  0.62164488700E+03  0.65964902371E+03  0.17248031709E+03 0.  0.
        -24    2    3    3    0    0 -0.99079941896E+02  0.31916714146E+01  0.34599690703E+03  0.36854168243E+03  0.79259638939E+02 0.  0.
          6    2    1    2  501    0  0.10399681935E+03  0.90164686672E+02  0.99593533425E+03  0.10199174209E+04  0.17146237556E+03 0.  0.
         24    2    5    5    0    0 -0.95642280742E+01  0.31061422544E+02  0.45691769539E+03  0.46588546121E+03  0.84965853018E+02 0.  0.
          5    1    5    5  501    0  0.11356104742E+03  0.59103264128E+02  0.53901763886E+03  0.55403195966E+03  0.47000000000E+01 0. -1.
        -13    1    6    6    0    0  0.57461066261E+01  0.51742654298E+02  0.16941690708E+03  0.17723546039E+03  0.00000000000E+00 0.  1.
         14    1    6    6    0    0 -0.15310334700E+02 -0.20681231755E+02  0.28750078831E+03  0.28865000082E+03  0.00000000000E+00 0. -1.
         -5    1    3    3    0  503 -0.49168774526E+01 -0.93356358086E+02  0.27564797997E+03  0.29110734127E+03  0.47000000000E+01 0.  1.
         13    1    4    4    0    0 -0.33788429890E+02  0.26698300986E+02  0.57627426372E+02  0.71940096888E+02  0.00000000000E+00 0. -1.
        -14    1    4    4    0    0 -0.65291512006E+02 -0.23506629571E+02  0.28836948066E+03  0.29660158554E+03  0.00000000000E+00 0.  1.
</event>
<event>
12    1  0.8406581E-002  0.2895188E+03  0.7818608E-02  0.1090997E+00
         21   -1    0    0  503  502  0.00000000000E+00  0.00000000000E+00  0.14641682884E+03  0.14641682884E+03  0.00000000000E+00 0.  1.
         21   -1    0    0  501  503 -0.00000000000E+00 -0.00000000000E+00 -0.12357968249E+04  0.12357968249E+04  0.00000000000E+00 0.  1.
          6    2    1    2  501    0  0.22926104643E+03 -0.39583429568E+02 -0.10545818892E+04  0.10936014345E+04  0.17231848725E+03 0.  0.
         24    2    3    3    0    0  0.41194060965E+02  0.42454381078E+01 -0.23831998314E+03  0.25479528879E+03  0.80057794283E+02 0.  0.
         -6    2    1    2    0  502 -0.22926104643E+03  0.39583429568E+02 -0.34798106820E+02  0.28861221927E+03  0.16720834180E+03 0.  0.
        -24    2    5    5    0    0 -0.12502180625E+03  0.64601054650E+02 -0.67802496567E+02  0.17634877687E+03  0.81841091522E+02 0.  0.
          5    1    3    3  501    0  0.18806698546E+03 -0.43828867676E+02 -0.81626190610E+03  0.83880614567E+03  0.47000000000E+01 0. -1.
        -11    1    4    4    0    0  0.26324647954E+02 -0.11002806438E+02 -0.23026341248E+03  0.23202432624E+03  0.00000000000E+00 0.  1.
         12    1    4    4    0    0  0.14869413011E+02  0.15248244546E+02 -0.80565706591E+01  0.22770962557E+02  0.00000000000E+00 0. -1.
         -5    1    5    5    0  502 -0.10423924017E+03 -0.25017625082E+02  0.33004389747E+02  0.11226344240E+03  0.47000000000E+01 0.  1.
         11    1    6    6    0    0  0.70217214898E+01  0.78737288704E+01 -0.23826741608E+02  0.26057893136E+02  0.00000000000E+00 0. -1.
        -12    1    6    6    0    0 -0.13204352774E+03  0.56727325780E+02 -0.43975754959E+02  0.15029088373E+03  0.00000000000E+00 0.  1.
</event>
<event>
12    1  0.8406581E-002  0.1925695E+03  0.7818608E-02  0.1156621E+00
         21   -1    0    0  501  502  0.00000000000E+00  0.00000000000E+00  0.17958410872E+03  0.17958410872E+03  0.00000000000E+00 0. -1.
         21   -1    0    0  502  503 -0.00000000000E+00 -0.00000000000E+00 -0.25595361398E+03  0.25595361398E+03  0.00000000000E+00 0. -1.
         -6    2    1    2    0  503  0.18716524519E+02  0.74112272833E+02  0.59479651201E+02  0.20154611004E+03  0.17674860195E+03 0.  0.
        -24    2    3    3    0    0  0.49333605159E+02  0.10880648128E+03  0.31794040554E+02  0.14741962148E+03  0.80305845470E+02 0.  0.
          6    2    1    2  501    0 -0.18716524519E+02 -0.74112272833E+02 -0.13584915646E+03  0.23399161265E+03  0.17451115783E+03 0.  0.
         24    2    5    5    0    0  0.28680729341E+02 -0.29011302086E+01 -0.16366048951E+02  0.86968384940E+02  0.80403057334E+02 0.  0.
          5    1    5    5  501    0 -0.47397253861E+02 -0.71211142624E+02 -0.11948310751E+03  0.14702322771E+03  0.47000000000E+01 0. -1.
        -11    1    6    6    0    0 -0.20133113960E+02  0.18987158908E+02  0.70708382241E+01  0.28563109675E+02  0.00000000000E+00 0.  1.
         12    1    6    6    0    0  0.48813843301E+02 -0.21888289117E+02 -0.23436887175E+02  0.58405275265E+02  0.00000000000E+00 0. -1.
         -5    1    3    3    0  503 -0.30617080640E+02 -0.34694208447E+02  0.27685610647E+02  0.54126488558E+02  0.47000000000E+01 0.  1.
         13    1    4    4    0    0  0.26213460498E+02  0.23127943599E+02  0.45759236896E+02  0.57584329880E+02  0.00000000000E+00 0. -1.
        -14    1    4    4    0    0  0.23120144662E+02  0.85678537681E+02 -0.13965196342E+02  0.89835291602E+02  0.00000000000E+00 0.  1.
</event>
<event>
12    1  0.8406581E-002  0.2733607E+03  0.7818608E-02  0.1099502E+00
         21   -1    0    0  503  502  0.00000000000E+00  0.00000000000E+00  0.14725772295E+03  0.14725772295E+03  0.00000000000E+00 0.  1.
         21   -1    0    0  501  503 -0.00000000000E+00 -0.00000000000E+00 -0.63593752690E+03  0.63593752690E+03  0.00000000000E+00 0. -1.
          6    2    1    2  501    0  0.19094004844E+03 -0.89710375155E+02 -0.42120362861E+03  0.50162983101E+03  0.17237731029E+03 0.  0.
         24    2    3    3    0    0  0.16824287958E+03 -0.95411159732E+02 -0.42793357911E+03  0.47682977753E+03  0.82647036726E+02 0.  0.
         -6    2    1    2    0  502 -0.19094004844E+03  0.89710375155E+02 -0.67476175345E+02  0.28156541885E+03  0.17383899834E+03 0.  0.
        -24    2    5    5    0    0 -0.19295403149E+03  0.10153087514E+03 -0.95233801984E+02  0.25096548119E+03  0.79839957639E+02 0.  0.
          5    1    3    3  501    0  0.22697168853E+02  0.57007845765E+01  0.67299505059E+01  0.24800053479E+02  0.47000000000E+01 0. -1.
        -11    1    4    4    0    0  0.24265944951E+02 -0.44526426886E+02 -0.60585002693E+02  0.79006210686E+02  0.00000000000E+00 0.  1.
         12    1    4    4    0    0  0.14397693463E+03 -0.50884732846E+02 -0.36734857642E+03  0.39782356685E+03  0.00000000000E+00 0. -1.
         -5    1    5    5    0  502  0.20139830505E+01 -0.11820499989E+02  0.27757626639E+02  0.30599937653E+02  0.47000000000E+01 0.  1.
         13    1    6    6    0    0 -0.73759417173E+01  0.63472734785E+00  0.11978870440E+02  0.14081929272E+02  0.00000000000E+00 0. -1.
        -14    1    6    6    0    0 -0.18557808977E+03  0.10089614780E+03 -0.10721267242E+03  0.23688355192E+03  0.00000000000E+00 0.  1.
</event>
<event>
12    1  0.8406581E-002  0.1969452E+03  0.7818608E-02  0.1152650E+00
         21   -1    0    0  503  502  0.00000000000E+00  0.00000000000E+00  0.32880924670E+03  0.32880924670E+03  0.00000000000E+00 0.  1.
         21   -1    0    0  501  503 -0.00000000000E+00 -0.00000000000E+00 -0.13749124099E+03  0.13749124099E+03  0.00000000000E+00 0. -1.
          6    2    1    2  501    0  0.35718117769E+02 -0.87191984774E+02  0.61912770322E+01  0.19704247153E+03  0.17294270013E+03 0.  0.
         24    2    3    3    0    0  0.68541248002E+02 -0.18559268764E+02 -0.27827313631E+02  0.11357294358E+03  0.84155243415E+02 0.  0.
         -6    2    1    2    0  502 -0.35718117769E+02  0.87191984774E+02  0.18512672869E+03  0.26925801616E+03  0.17131767990E+03 0.  0.
        -24    2    5    5    0    0 -0.26596325896E+02  0.12111072887E+03  0.16548129411E+03  0.22873985496E+03  0.97789004232E+02 0.  0.
          5    1    3    3  501    0 -0.32823130234E+02 -0.68632716010E+02  0.34018590663E+02  0.83469527949E+02  0.47000000000E+01 0. -1.
        -11    1    4    4    0    0 -0.27803407285E+01  0.25345176014E+02 -0.59217805029E+00  0.25504096075E+02  0.00000000000E+00 0.  1.
         12    1    4    4    0    0  0.71321588731E+02 -0.43904444779E+02 -0.27235135581E+02  0.88068847503E+02  0.00000000000E+00 0. -1.
         -5    1    5    5    0  502 -0.91217918726E+01 -0.33918744092E+02  0.19645434581E+02  0.40518161207E+02  0.47000000000E+01 0.  1.
         11    1    6    6    0    0 -0.20275127860E+02  0.22061252269E+02 -0.60463830923E+01  0.30566949634E+02  0.00000000000E+00 0. -1.
        -12    1    6    6    0    0 -0.63211980359E+01  0.99049476597E+02  0.17152767720E+03  0.19817290532E+03  0.00000000000E+00 0.  1.
</event>
<event>
12    1  0.8406581E-002  0.3927969E+03  0.7818608E-02  0.1046361E+00
         21   -1    0    0  503  502  0.00000000000E+00  0.00000000000E+00  0.25585912509E+03  0.25585912509E+03  0.00000000000E+00 0. -1.
         21   -1    0    0  501  503 -0.00000000000E+00 -0.00000000000E+00 -0.64951741403E+03  0.64951741403E+03  0.00000000000E+00 0.  1.
          6    2    1    2  501    0 -0.73949210884E+01  0.35281717183E+03 -0.31940027143E+03  0.50626664722E+03  0.17249563212E+03 0.  0.
         24    2    3    3    0    0 -0.24518027130E+02  0.30698540805E+03 -0.19688459114E+03  0.37425932451E+03  0.80407246835E+02 0.  0.
         -6    2    1    2    0  502  0.73949210884E+01 -0.35281717183E+03 -0.74258017505E+02  0.39910989189E+03  0.17099652349E+03 0.  0.
        -24    2    5    5    0    0  0.45503036540E+02 -0.12163514194E+03  0.33329042778E+01  0.15225001149E+03  0.79393473661E+02 0.  0.
          5    1    3    3  501    0  0.17123106041E+02  0.45831763778E+02 -0.12251568029E+03  0.13200732271E+03  0.47000000000E+01 0. -1.
        -13    1    4    4    0    0 -0.37715083879E+02  0.89773379363E+02 -0.86525854315E+02  0.13026285218E+03  0.00000000000E+00 0.  1.
         14    1    4    4    0    0  0.13197056750E+02  0.21721202869E+03 -0.11035873683E+03  0.24399647233E+03  0.00000000000E+00 0. -1.
         -5    1    5    5    0  502 -0.38108115451E+02 -0.23118202989E+03 -0.77590921783E+02  0.24685988040E+03  0.47000000000E+01 0.  1.
         13    1    6    6    0    0 -0.19833681469E+02 -0.55949935951E+02  0.51598134312E+01  0.59585182119E+02  0.00000000000E+00 0. -1.
        -14    1    6    6    0    0  0.65336718008E+02 -0.65685205985E+02 -0.18269091534E+01  0.92664829371E+02  0.00000000000E+00 0.  1.
</event>
<event>
12    1  0.8406581E-002  0.1891162E+03  0.7818608E-02  0.1160312E+00
         21   -1    0    0  501  502  0.00000000000E+00  0.00000000000E+00  0.11345447959E+03  0.11345447959E+03  0.00000000000E+00 0. -1.
         21   -1    0    0  502  503 -0.00000000000E+00 -0.00000000000E+00 -0.41270499830E+03  0.41270499830E+03  0.00000000000E+00 0. -1.
         -6    2    1    2    0  503 -0.67004518217E+02  0.50602543574E+00 -0.28097978325E+03  0.33616276703E+03  0.17194739258E+03 0.  0.
        -24    2    3    3    0    0 -0.27892378978E+02 -0.19060887984E+02 -0.27856141508E+03  0.29211095615E+03  0.81185260238E+02 0.  0.
          6    2    1    2  501    0  0.67004518217E+02 -0.50602543574E+00 -0.18270735459E+02  0.18999671087E+03  0.17684758648E+03 0.  0.
         24    2    5    5    0    0  0.87023534599E+02  0.53970281059E+02 -0.23971163095E+02  0.13149018250E+03  0.78925057006E+02 0.  0.
          5    1    5    5  501    0 -0.20019016382E+02 -0.54476306494E+02  0.57004276356E+01  0.58506528366E+02  0.47000000000E+01 0. -1.
        -13    1    6    6    0    0  0.10535485577E+02  0.41197510842E+02 -0.32436503143E+02  0.53482315695E+02  0.00000000000E+00 0.  1.
         14    1    6    6    0    0  0.76488049022E+02  0.12772770217E+02  0.84653400480E+01  0.78007866810E+02  0.00000000000E+00 0. -1.
         -5    1    3    3    0  503 -0.39112139239E+02  0.19566913420E+02 -0.24183681768E+01  0.44051810874E+02  0.47000000000E+01 0.  1.
         13    1    4    4    0    0 -0.18016688205E+02 -0.49303765856E+02 -0.21103193814E+03  0.21746250550E+03  0.00000000000E+00 0. -1.
        -14    1    4    4    0    0 -0.98756907725E+01  0.30242877872E+02 -0.67529476931E+02  0.74648450652E+02  0.00000000000E+00 0.  1.
</event>
<event>
12    1  0.8406581E-002  0.1873529E+03  0.7818608E-02  0.1163982E+00
         21   -1    0    0  501  502  0.00000000000E+00  0.00000000000E+00  0.19309572269E+03  0.19309572269E+03  0.00000000000E+00 0.  1.
         21   -1    0    0  502  503 -0.00000000000E+00 -0.00000000000E+00 -0.19568651269E+03  0.19568651269E+03  0.00000000000E+00 0.  1.
         -6    2    1    2    0  503 -0.28553428257E+02 -0.10643149893E+02 -0.72605210873E+02  0.20092940047E+03  0.18485814135E+03 0.  0.
        -24    2    3    3    0    0  0.46573633189E+02 -0.32529940854E+02 -0.73475858599E+02  0.12253325894E+03  0.79927450784E+02 0.  0.
          6    2    1    2  501    0  0.28553428257E+02  0.10643149893E+02  0.70014420876E+02  0.18785283490E+03  0.17163360261E+03 0.  0.
         24    2    5    5    0    0  0.80711016310E+02  0.93978259124E+01  0.73109857505E+02  0.13537773079E+03  0.79871718674E+02 0.  0.
          5    1    5    5  501    0 -0.52157588053E+02  0.12453239810E+01 -0.30954366294E+01  0.52475104109E+02  0.47000000000E+01 0. -1.
        -11    1    6    6    0    0  0.53683225942E+02 -0.15332635423E+02  0.25663720627E+01  0.55888860448E+02  0.00000000000E+00 0.  1.
         12    1    6    6    0    0  0.27027790368E+02  0.24730461335E+02  0.70543485442E+02  0.79488870343E+02  0.00000000000E+00 0. -1.
         -5    1    3    3    0  503 -0.75127061446E+02  0.21886790960E+02  0.87064772570E+00  0.78396141535E+02  0.47000000000E+01 0.  1.
         13    1    4    4    0    0  0.41325484762E+02  0.52137451147E+01 -0.73435979576E+02  0.84426429068E+02  0.00000000000E+00 0. -1.
        -14    1    4    4    0    0  0.52481484273E+01 -0.37743685969E+02 -0.39879022887E-01  0.38106829870E+02  0.00000000000E+00 0.  1.
</event>
<event>
12    1  0.8406581E-002  0.1765942E+03  0.7818608E-02  0.1171433E+00
         21   -1    0    0  501  502  0.00000000000E+00  0.00000000000E+00  0.23067940056E+03  0.23067940056E+03  0.00000000000E+00 0.  1.
         21   -1    0    0  502  503 -0.00000000000E+00 -0.00000000000E+00 -0.17421679020E+03  0.17421679020E+03  0.00000000000E+00 0.  1.
         -6    2    1    2    0  503  0.27559011835E+02  0.25609207926E+02 -0.68610051293E+02  0.18945407037E+03  0.17254035753E+03 0.  0.
        -24    2    3    3    0    0  0.56582698065E+02  0.53652470074E+01 -0.10140355578E+03  0.14098040481E+03  0.79764690310E+02 0.  0.
          6    2    1    2  501    0 -0.27559011835E+02 -0.25609207926E+02  0.12507266165E+03  0.21544212039E+03  0.17133827909E+03 0.  0.
         24    2    5    5    0    0 -0.37853124659E+02 -0.68322491565E+02  0.39210506179E+02  0.11887715210E+03  0.80582203975E+02 0.  0.
          5    1    5    5  501    0  0.10294112825E+02  0.42713283639E+02  0.85862155473E+02  0.96564968289E+02  0.47000000000E+01 0. -1.
        -11    1    6    6    0    0 -0.33274223669E+02 -0.38441669422E+02 -0.18193928571E+02  0.53999582827E+02  0.00000000000E+00 0.  1.
         12    1    6    6    0    0 -0.45789009907E+01 -0.29880822143E+02  0.57404434751E+02  0.64877569277E+02  0.00000000000E+00 0. -1.
         -5    1    3    3    0  503 -0.29023686230E+02  0.20243960918E+02  0.32793504489E+02  0.48473665559E+02  0.47000000000E+01 0.  1.
         11    1    4    4    0    0  0.12921454354E+02 -0.27112535291E+02 -0.52396316538E+01  0.30487822034E+02  0.00000000000E+00 0. -1.
        -12    1    4    4    0    0  0.43661243711E+02  0.32477782298E+02 -0.96163924128E+02  0.11049258278E+03  0.00000000000E+00 0.  1.
</event>
<event>
12    1  0.8406581E-002  0.3763913E+03  0.7818608E-02  0.1052320E+00
         21   -1    0    0  503  502  0.00000000000E+00  0.00000000000E+00  0.55615048758E+03  0.55615048758E+03  0.00000000000E+00 0. -1.
         21   -1    0    0  501  503 -0.00000000000E+00 -0.00000000000E+00 -0.40690420181E+03  0.40690420181E+03  0.00000000000E+00 0.  1.
          6    2    1    2  501    0 -0.23792722388E+03  0.23447194143E+03 -0.22018846789E+03  0.43565309743E+03  0.17240709011E+03 0.  0.
         24    2    3    3    0    0 -0.67226549149E+02  0.14524290544E+03 -0.58843956803E+02  0.18434714350E+03  0.70045325140E+02 0.  0.
         -6    2    1    2    0  502  0.23792722388E+03 -0.23447194143E+03  0.36943475366E+03  0.52740159196E+03  0.17344724502E+03 0.  0.
        -24    2    5    5    0    0  0.21797279117E+03 -0.25553279453E+03  0.32505845434E+03  0.47417486128E+03  0.79810109393E+02 0.  0.
          5    1    3    3  501    0 -0.17070067473E+03  0.89229035993E+02 -0.16134451109E+03  0.25130595392E+03  0.47000000000E+01 0. -1.
        -11    1    4    4    0    0 -0.52770104253E+02  0.13022344296E+03 -0.73780300524E+02  0.15870211638E+03  0.00000000000E+00 0.  1.
         12    1    4    4    0    0 -0.14456444896E+02  0.15019462484E+02  0.14936343720E+02  0.25645027122E+02  0.00000000000E+00 0. -1.
         -5    1    5    5    0  502  0.19954432715E+02  0.21060853091E+02  0.44376299322E+02  0.53226730685E+02  0.47000000000E+01 0.  1.
         13    1    6    6    0    0  0.38510392902E+02 -0.10834167752E+02  0.54600676280E+02  0.67687985660E+02  0.00000000000E+00 0. -1.
        -14    1    6    6    0    0  0.17946239827E+03 -0.24469862677E+03  0.27045777806E+03  0.40648687562E+03  0.00000000000E+00 0.  1.
</event>
<event>
12    1  0.8406581E-002  0.1892845E+03  0.7818608E-02  0.1159176E+00
         21   -1    0    0  503  502  0.00000000000E+00  0.00000000000E+00  0.30668226153E+03  0.30668226153E+03  0.00000000000E+00 0.  1.
         21   -1    0    0  501  503 -0.00000000000E+00 -0.00000000000E+00 -0.19218051017E+03  0.19218051017E+03  0.00000000000E+00 0. -1.
          6    2    1    2  501    0  0.77112774018E+02  0.64185069371E+01 -0.99156356961E+02  0.21341854182E+03  0.17241784628E+03 0.  0.
         24    2    3    3    0    0  0.60594609554E+02  0.14421139871E+02 -0.13933980772E+03  0.16899229275E+03  0.72547481076E+02 0.  0.
         -6    2    1    2    0  502 -0.77112774018E+02 -0.64185069371E+01  0.21365810832E+03  0.28544422988E+03  0.17274560479E+03 0.  0.
        -24    2    5    5    0    0 -0.16845597562E+02 -0.58288361235E+02  0.16041677783E+03  0.18963533877E+03  0.80911753725E+02 0.  0.
          5    1    3    3  501    0  0.16518164464E+02 -0.80026329337E+01  0.40183450760E+02  0.44426249067E+02  0.47000000000E+01 0. -1.
        -13    1    4    4    0    0  0.15515325619E+02 -0.16445813548E+02 -0.38935660466E+01  0.22942318297E+02  0.00000000000E+00 0.  1.
         14    1    4    4    0    0  0.45079283935E+02  0.30866953418E+02 -0.13544624168E+03  0.14604997445E+03  0.00000000000E+00 0. -1.
         -5    1    5    5    0  502 -0.60267176456E+02  0.51869854298E+02  0.53241330495E+02  0.95808891110E+02  0.47000000000E+01 0.  1.
         11    1    6    6    0    0  0.32264871941E+02 -0.19205140946E+02  0.48692672635E+02  0.61488501107E+02  0.00000000000E+00 0. -1.
        -12    1    6    6    0    0 -0.49110469503E+02 -0.39083220289E+02  0.11172410519E+03  0.12814683767E+03  0.00000000000E+00 0.  1.
</event>
<event>
12    1  0.8406581E-002  0.2108440E+03  0.7818608E-02  0.1141687E+00
         21   -1    0    0  503  502  0.00000000000E+00  0.00000000000E+00  0.83987038005E+03  0.83987038005E+03  0.00000000000E+00 0. -1.
         21   -1    0    0  501  503 -0.00000000000E+00 -0.00000000000E+00 -0.12681047722E+03  0.12681047722E+03  0.00000000000E+00 0. -1.
          6    2    1    2  501    0  0.54146220275E+02  0.10287167701E+03 -0.16234451552E+02  0.20751984475E+03  0.17113308695E+03 0.  0.
         24    2    3    3    0    0 -0.10771070435E+02  0.83853652556E+01 -0.40256255163E+02  0.90297599461E+02  0.79666555592E+02 0.  0.
         -6    2    1    2    0  502 -0.54146220275E+02 -0.10287167701E+03  0.72929435438E+03  0.75916101252E+03  0.17589995027E+03 0.  0.
        -24    2    5    5    0    0 -0.92709400292E+02 -0.24971614617E+02  0.41080179596E+03  0.42898660658E+03  0.77799605517E+02 0.  0.
          5    1    3    3  501    0  0.64917290710E+02  0.94486311755E+02  0.24021803611E+02  0.11722224529E+03  0.47000000000E+01 0. -1.
        -13    1    4    4    0    0  0.11347389223E+02  0.74726425131E+01  0.21085313241E+02  0.25083741005E+02  0.00000000000E+00 0.  1.
         14    1    4    4    0    0 -0.22118459659E+02  0.91272274249E+00 -0.61341568404E+02  0.65213858456E+02  0.00000000000E+00 0. -1.
         -5    1    5    5    0  502  0.38563180017E+02 -0.77900062394E+02  0.31849255842E+03  0.33017440595E+03  0.47000000000E+01 0.  1.
         13    1    6    6    0    0 -0.37504354906E+02 -0.33082185120E+01  0.30810486146E+03  0.31039672454E+03  0.00000000000E+00 0. -1.
        -14    1    6    6    0    0 -0.55205045385E+02 -0.21663396105E+02  0.10269693450E+03  0.11858988204E+03  0.00000000000E+00 0.  1.
</event>
<event>
12    1  0.8406581E-002  0.1750904E+03  0.7818608E-02  0.1172775E+00
         21   -1    0    0  503  502  0.00000000000E+00  0.00000000000E+00  0.18958795184E+03  0.18958795184E+03  0.00000000000E+00 0. -1.
         21   -1    0    0  501  503 -0.00000000000E+00 -0.00000000000E+00 -0.16295361955E+03  0.16295361955E+03  0.00000000000E+00 0. -1.
          6    2    1    2  501    0 -0.28925278937E+02  0.14332001504E+02  0.31578524128E+02  0.17791526562E+03  0.17208881580E+03 0.  0.
         24    2    3    3    0    0  0.42953018211E+02  0.75487227284E+01 -0.14033153270E+02  0.92387389535E+02  0.80228145723E+02 0.  0.
         -6    2    1    2    0  502  0.28925278937E+02 -0.14332001504E+02 -0.49441918425E+01  0.17462630577E+03  0.17154539809E+03 0.  0.
        -24    2    5    5    0    0  0.63171750064E+01 -0.74754273604E+02 -0.18777304328E+02  0.10847933056E+03  0.76072793282E+02 0.  0.
          5    1    3    3  501    0 -0.71878297148E+02  0.67832787751E+01  0.45611677398E+02  0.85527876081E+02  0.47000000000E+01 0. -1.
        -11    1    4    4    0    0 -0.18261193316E+01 -0.27320095239E+02  0.12063910125E+02  0.29920899772E+02  0.00000000000E+00 0.  1.
         12    1    4    4    0    0  0.44779137543E+02  0.34868817967E+02 -0.26097063395E+02  0.62466489763E+02  0.00000000000E+00 0. -1.
         -5    1    5    5    0  502  0.22608103930E+02  0.60422272101E+02  0.13833112486E+02  0.66146975216E+02  0.47000000000E+01 0.  1.
         11    1    6    6    0    0  0.36551601088E+02 -0.65579166165E+02 -0.15983328192E+02  0.76760102639E+02  0.00000000000E+00 0. -1.
        -12    1    6    6    0    0 -0.30234426081E+02 -0.91751074391E+01 -0.27939761369E+01  0.31719227917E+02  0.00000000000E+00 0.  1.
</event>
<event>
12    1  0.8406581E-002  0.1737529E+03  0.7818608E-02  0.1174118E+00
         21   -1    0    0  503  502  0.00000000000E+00  0.00000000000E+00  0.36035268402E+02  0.36035268402E+02  0.00000000000E+00 0. -1.
         21   -1    0    0  501  503 -0.00000000000E+00 -0.00000000000E+00 -0.83597100321E+03  0.83597100321E+03  0.00000000000E+00 0. -1.
          6    2    1    2  501    0 -0.24431695292E+02 -0.48547993866E+01 -0.41120310689E+03  0.44620923399E+03  0.17144739300E+03 0.  0.
         24    2    3    3    0    0  0.37168820475E+02 -0.14882003284E+02 -0.33649028297E+03  0.34874506407E+03  0.82428235077E+02 0.  0.
         -6    2    1    2    0  502  0.24431695292E+02  0.48547993866E+01 -0.38873262792E+03  0.42579703763E+03  0.17195808917E+03 0.  0.
        -24    2    5    5    0    0 -0.32551871162E+02  0.54634212379E+01 -0.34006950485E+03  0.35071250651E+03  0.79136090396E+02 0.  0.
          5    1    3    3  501    0 -0.61600515768E+02  0.10027203898E+02 -0.74712823921E+02  0.97464169925E+02  0.47000000000E+01 0. -1.
        -13    1    4    4    0    0  0.12201726852E+02 -0.24137454373E+02 -0.31002561076E+03  0.31120311400E+03  0.00000000000E+00 0.  1.
         14    1    4    4    0    0  0.24967093623E+02  0.92554510889E+01 -0.26464672218E+02  0.37541950062E+02  0.00000000000E+00 0. -1.
         -5    1    5    5    0  502  0.56983566454E+02 -0.60862185130E+00 -0.48663123065E+02  0.75084531115E+02  0.47000000000E+01 0.  1.
         13    1    6    6    0    0 -0.25398491572E+02 -0.35589685676E+02 -0.18988715065E+03  0.19485594443E+03  0.00000000000E+00 0. -1.
        -14    1    6    6    0    0 -0.71533795900E+01  0.41053106914E+02 -0.15018235421E+03  0.15585656208E+03  0.00000000000E+00 0.  1.
</event>
<event>
12    1  0.8406581E-002  0.3064796E+03  0.7818608E-02  0.1082067E+00
         21   -1    0    0  503  502  0.00000000000E+00  0.00000000000E+00  0.25571351352E+03  0.25571351352E+03  0.00000000000E+00 0. -1.
         21   -1    0    0  501  503 -0.00000000000E+00 -0.00000000000E+00 -0.46616479164E+03  0.46616479164E+03  0.00000000000E+00 0.  1.
          6    2    1    2  501    0  0.54337716945E+02  0.24723834226E+03  0.61127603470E+02  0.31251616270E+03  0.17277263290E+03 0.  0.
         24    2    3    3    0    0  0.89484538091E+02  0.23633063123E+03  0.35123220566E+02  0.26721058770E+03  0.79424226395E+02 0.  0.
         -6    2    1    2    0  502 -0.54337716945E+02 -0.24723834226E+03 -0.27157888159E+03  0.40936214246E+03  0.17246126924E+03 0.  0.
        -24    2    5    5    0    0 -0.23645660310E+02 -0.30329105089E+02 -0.82100326455E+02  0.11967984689E+03  0.78127013770E+02 0.  0.
          5    1    3    3  501    0 -0.35146821146E+02  0.10907711030E+02  0.26004382904E+02  0.45305575008E+02  0.47000000000E+01 0. -1.
        -11    1    4    4    0    0  0.38121480644E+02  0.33485363046E+02  0.27752795664E+02  0.57833679564E+02  0.00000000000E+00 0.  1.
         12    1    4    4    0    0  0.51363057447E+02  0.20284526819E+03  0.73704249024E+01  0.20937690813E+03  0.00000000000E+00 0. -1.
         -5    1    5    5    0  502 -0.30692056635E+02 -0.21690923717E+03 -0.18947855514E+03  0.28968229557E+03  0.47000000000E+01 0.  1.
         11    1    6    6    0    0  0.17583083722E+02 -0.69960688100E+00  0.54944092437E+01  0.18434826170E+02  0.00000000000E+00 0. -1.
        -12    1    6    6    0    0 -0.41228744032E+02 -0.29629498208E+02 -0.87594735699E+02  0.10124502072E+03  0.00000000000E+00 0.  1.
</event>
<event>
12    1  0.8406581E-002  0.1720223E+03  0.7818608E-02  0.1175850E+00
         21   -1    0    0  501  502  0.00000000000E+00  0.00000000000E+00  0.54830079936E+02  0.54830079936E+02  0.00000000000E+00 0. -1.
         21   -1    0    0  502  503 -0.00000000000E+00 -0.00000000000E+00 -0.58349477120E+03  0.58349477120E+03  0.00000000000E+00 0. -1.
         -6    2    1    2    0  503  0.37908239994E+01  0.48677736077E+01 -0.35318747539E+03  0.39285249066E+03  0.17191166651E+03 0.  0.
        -24    2    3    3    0    0  0.61891987825E+02  0.21368530816E+02 -0.17232025372E+03  0.20210904490E+03  0.82864732685E+02 0.  0.
          6    2    1    2  501    0 -0.37908239994E+01 -0.48677736077E+01 -0.17547721587E+03  0.24547236047E+03  0.17154113471E+03 0.  0.
         24    2    5    5    0    0  0.57539995436E+02  0.99831391742E+01 -0.10331258733E+03  0.14949401585E+03  0.90909053082E+02 0.  0.
          5    1    5    5  501    0 -0.61330819435E+02 -0.14850912782E+02 -0.72164628544E+02  0.95978344620E+02  0.47000000000E+01 0. -1.
        -13    1    6    6    0    0  0.30340396396E+02  0.43903694968E+02 -0.22886719321E+02  0.58067856914E+02  0.00000000000E+00 0.  1.
         14    1    6    6    0    0  0.27199599039E+02 -0.33920555794E+02 -0.80425868008E+02  0.91426158938E+02  0.00000000000E+00 0. -1.
         -5    1    3    3    0  503 -0.58101163826E+02 -0.16500757209E+02 -0.18086722167E+03  0.19074344576E+03  0.47000000000E+01 0.  1.
         11    1    4    4    0    0  0.35328879965E+00  0.40755764272E+02 -0.74658258893E+02  0.85058878169E+02  0.00000000000E+00 0. -1.
        -12    1    4    4    0    0  0.61538699025E+02 -0.19387233455E+02 -0.97661994824E+02  0.11705016673E+03  0.00000000000E+00 0.  1.
</event>
<event>
12    1  0.8406581E-002  0.2017860E+03  0.7818608E-02  0.1148333E+00
         21   -1    0    0  501  502  0.00000000000E+00  0.00000000000E+00  0.11142167186E+04  0.11142167186E+04  0.00000000000E+00 0.  1.
         21   -1    0    0  502  503 -0.00000000000E+00 -0.00000000000E+00 -0.61744334113E+02  0.61744334113E+02  0.00000000000E+00 0.  1.
         -6    2    1    2    0  503  0.93648715408E+01  0.10220885601E+03  0.14966133856E+03  0.25087436571E+03  0.17321974496E+03 0.  0.
        -24    2    3    3    0    0 -0.79164084924E+01  0.47567969167E+01  0.12532224203E+03  0.14884482058E+03  0.79773552158E+02 0.  0.
          6    2    1    2  501    0 -0.93648715408E+01 -0.10220885601E+03  0.90281104592E+03  0.92508668700E+03  0.17373325173E+03 0.  0.
         24    2    5    5    0    0 -0.71662401443E+02 -0.32688713045E+02  0.60197758922E+03  0.61006781268E+03  0.60013885023E+02 0.  0.
          5    1    5    5  501    0  0.62297529902E+02 -0.69520142963E+02  0.30083345670E+03  0.31501887432E+03  0.47000000000E+01 0. -1.
        -13    1    6    6    0    0 -0.62771830712E+02 -0.30588161404E+02  0.30265456512E+03  0.31060541550E+03  0.00000000000E+00 0.  1.
         14    1    6    6    0    0 -0.88905707305E+01 -0.21005516411E+01  0.29932302411E+03  0.29946239718E+03  0.00000000000E+00 0. -1.
         -5    1    3    3    0  503  0.17281280033E+02  0.97452059092E+02  0.24339096532E+02  0.10202954514E+03  0.47000000000E+01 0.  1.
         11    1    4    4    0    0 -0.38959848304E+02  0.17565407484E+01  0.10398087565E+03  0.11105394057E+03  0.00000000000E+00 0. -1.
        -12    1    4    4    0    0  0.31043439811E+02  0.30002561683E+01  0.21341366377E+02  0.37790880001E+02  0.00000000000E+00 0.  1.
</event>
<event>
12    1  0.8406581E-002  0.1906061E+03  0.7818608E-02  0.1158481E+00
         21   -1    0    0  501  502  0.00000000000E+00  0.00000000000E+00  0.42357649039E+03  0.42357649039E+03  0.00000000000E+00 0. -1.
         21   -1    0    0  502  503 -0.00000000000E+00 -0.00000000000E+00 -0.13059396485E+03  0.13059396485E+03  0.00000000000E+00 0. -1.
         -6    2    1    2    0  503  0.16501484685E+02 -0.79502888637E+02 -0.17227050052E+02  0.19138304471E+03  0.17244619523E+03 0.  0.
        -24    2    3    3    0    0 -0.78787551176E+00 -0.93542348125E+02 -0.64217086119E+02  0.13917019296E+03  0.80583601416E+02 0.  0.
          6    2    1    2  501    0 -0.16501484685E+02  0.79502888637E+02  0.31020957560E+03  0.36278741053E+03  0.16968121920E+03 0.  0.
         24    2    5    5    0    0  0.87063026829E+00 -0.24073585211E+02  0.15909573829E+03  0.17870221792E+03  0.77735019430E+02 0.  0.
          5    1    5    5  501    0 -0.17372114953E+02  0.10357647385E+03  0.15111383731E+03  0.18408519261E+03  0.47000000000E+01 0. -1.
        -11    1    6    6    0    0 -0.15971776232E+02 -0.28456201663E+02  0.19476383768E+02  0.38002402211E+02  0.00000000000E+00 0.  1.
         12    1    6    6    0    0  0.16842406500E+02  0.43826164524E+01  0.13961935452E+03  0.14069981571E+03  0.00000000000E+00 0. -1.
         -5    1    3    3    0  503  0.17289360197E+02  0.14039459489E+02  0.46990036067E+02  0.52212851754E+02  0.47000000000E+01 0.  1.
         11    1    4    4    0    0 -0.37976691063E+02 -0.39096310659E+02 -0.13955095238E+02  0.56262734153E+02  0.00000000000E+00 0. -1.
        -12    1    4    4    0    0  0.37188815551E+02 -0.54446037466E+02 -0.50261990881E+02  0.82907458803E+02  0.00000000000E+00 0.  1.
</event>
<event>
12    1  0.8406581E-002  0.1836668E+03  0.7818608E-02  0.1164336E+00
         21   -1    0    0  501  502  0.00000000000E+00  0.00000000000E+00  0.28267540996E+04  0.28267540996E+04  0.00000000000E+00 0. -1.
         21   -1    0    0  502  503 -0.00000000000E+00 -0.00000000000E+00 -0.11997656282E+02  0.11997656282E+02  0.00000000000E+00 0. -1.
         -6    2    1    2    0  503 -0.33522546018E+02  0.55859771200E+02  0.12956246396E+04  0.13085573474E+04  0.17156645799E+03 0.  0.
        -24    2    3    3    0    0 -0.48484404916E+02 -0.26416252542E+02  0.54967587445E+03  0.55792104961E+03  0.77998555893E+02 0.  0.
          6    2    1    2  501    0  0.33522546018E+02 -0.55859771200E+02  0.15191318036E+04  0.15301944084E+04  0.17172482529E+03 0.  0.
         24    2    5    5    0    0 -0.28731235839E+02 -0.70124274287E+02  0.11821347824E+04  0.11871665791E+04  0.78606264968E+02 0.  0.
          5    1    5    5  501    0  0.62253781857E+02  0.14264503087E+02  0.33699702123E+03  0.34302782937E+03  0.47000000000E+01 0. -1.
        -13    1    6    6    0    0  0.18397870450E+02  0.62367528010E+01  0.22068627348E+03  0.22153963533E+03  0.00000000000E+00 0.  1.
         14    1    6    6    0    0 -0.47129106289E+02 -0.76361027088E+02  0.96144850894E+03  0.96562694373E+03  0.00000000000E+00 0. -1.
         -5    1    3    3    0  503  0.14961858898E+02  0.82276023742E+02  0.74594876519E+03  0.75063629781E+03  0.47000000000E+01 0.  1.
         13    1    4    4    0    0 -0.76498836861E+01  0.25862522987E+02  0.21920781481E+03  0.22086071830E+03  0.00000000000E+00 0. -1.
        -14    1    4    4    0    0 -0.40834521230E+02 -0.52278775530E+02  0.33046805965E+03  0.33706033131E+03  0.00000000000E+00 0.  1.
</event>
<event>
12    1  0.8406581E-002  0.1829759E+03  0.7818608E-02  0.1165335E+00
         21   -1    0    0  503  502  0.00000000000E+00  0.00000000000E+00  0.47366127926E+02  0.47366127926E+02  0.00000000000E+00 0.  1.
         21   -1    0    0  501  503 -0.00000000000E+00 -0.00000000000E+00 -0.14929591047E+04  0.14929591047E+04  0.00000000000E+00 0.  1.
          6    2    1    2  501    0  0.35825562000E+02 -0.45391679028E+02 -0.12823532568E+04  0.12951163951E+04  0.17190906377E+03 0.  0.
         24    2    3    3    0    0  0.37428711379E+02  0.32515304751E+02 -0.47724164921E+03  0.48622897469E+03  0.78745606949E+02 0.  0.
         -6    2    1    2    0  502 -0.35825562000E+02  0.45391679028E+02 -0.16323972003E+03  0.24520883758E+03  0.17359807722E+03 0.  0.
        -24    2    5    5    0    0 -0.17550134142E+02 -0.18753878021E+02 -0.15725926704E+03  0.17807837080E+03  0.79509206553E+02 0.  0.
          5    1    3    3  501    0 -0.16031493796E+01 -0.77906983780E+02 -0.80511160755E+03  0.80888742036E+03  0.47000000000E+01 0. -1.
        -13    1    4    4    0    0  0.21147950022E+02 -0.20780322707E+02 -0.84438948189E+02  0.89492980580E+02  0.00000000000E+00 0.  1.
         14    1    4    4    0    0  0.16280761357E+02  0.53295627458E+02 -0.39280270102E+03  0.39673599411E+03  0.00000000000E+00 0. -1.
         -5    1    5    5    0  502 -0.18275427858E+02  0.64145557049E+02 -0.59804529857E+01  0.67130466783E+02  0.47000000000E+01 0.  1.
         13    1    6    6    0    0 -0.42938725695E+02 -0.15409579029E+02 -0.13987670599E+03  0.14712811481E+03  0.00000000000E+00 0. -1.
        -14    1    6    6    0    0  0.25388591553E+02 -0.33442989920E+01 -0.17382561052E+02  0.30950255985E+02  0.00000000000E+00 0.  1.
</event>
<event>
12    1  0.8406581E-002  0.2040755E+03  0.7818608E-02  0.1146576E+00
         21   -1    0    0  501  502  0.00000000000E+00  0.00000000000E+00  0.16621689939E+04  0.16621689939E+04  0.00000000000E+00 0. -1.
         21   -1    0    0  502  503 -0.00000000000E+00 -0.00000000000E+00 -0.26316743323E+02  0.26316743323E+02  0.00000000000E+00 0. -1.
         -6    2    1    2    0  503  0.10261135237E+03  0.38212217968E+02  0.10146564326E+04  0.10349755931E+04  0.17221364272E+03 0.  0.
        -24    2    3    3    0    0  0.44156007743E+02  0.88299298957E+02  0.66749717587E+03  0.67935306489E+03  0.78877042051E+02 0.  0.
          6    2    1    2  501    0 -0.10261135237E+03 -0.38212217968E+02  0.62119581794E+03  0.65351014415E+03  0.17088592989E+03 0.  0.
         24    2    5    5    0    0 -0.12916572826E+03 -0.64322375608E+02  0.49044355475E+03  0.51747662056E+03  0.80162454188E+02 0.  0.
          5    1    5    5  501    0  0.26554375892E+02  0.26110157639E+02  0.13075226319E+03  0.13603352359E+03  0.47000000000E+01 0. -1.
        -11    1    6    6    0    0 -0.93940502679E+02 -0.47349898763E+02  0.44618929351E+03  0.45842307599E+03  0.00000000000E+00 0.  1.
         12    1    6    6    0    0 -0.35225225584E+02 -0.16972476845E+02  0.44254261243E+02  0.59053544567E+02  0.00000000000E+00 0. -1.
         -5    1    3    3    0  503  0.58455344629E+02 -0.50087080989E+02  0.34715925675E+03  0.35562252817E+03  0.47000000000E+01 0.  1.
         13    1    4    4    0    0  0.83752150228E+01 -0.73019240941E+01  0.22336757744E+03  0.22364377249E+03  0.00000000000E+00 0. -1.
        -14    1    4    4    0    0  0.35780792720E+02  0.95601223052E+02  0.44412959843E+03  0.45570929240E+03  0.00000000000E+00 0.  1.
</event>
<event>
12    1  0.8406581E-002  0.1818385E+03  0.7818608E-02  0.1166177E+00
         21   -1    0    0  503  502  0.00000000000E+00  0.00000000000E+00  0.15055607140E+03  0.15055607140E+03  0.00000000000E+00 0. -1.
         21   -1    0    0  501  503 -0.00000000000E+00 -0.00000000000E+00 -0.22278096456E+03  0.22278096456E+03  0.00000000000E+00 0. -1.
          6    2    1    2  501    0 -0.29810007099E+02 -0.49886678876E+02 -0.60786524157E+02  0.19172958527E+03  0.17230181396E+03 0.  0.
         24    2    3    3    0    0  0.32564985657E+02  0.14087060865E+02 -0.92786943457E+01  0.88489933827E+02  0.80532295667E+02 0.  0.
         -6    2    1    2    0  502  0.29810007099E+02  0.49886678876E+02 -0.11438369005E+02  0.18160745070E+03  0.17167735031E+03 0.  0.
        -24    2    5    5    0    0  0.53053747120E+01  0.88275281521E+02 -0.42412424882E+02  0.12632957123E+03  0.79622072651E+02 0.  0.
          5    1    3    3  501    0 -0.62374992757E+02 -0.63973739741E+02 -0.51507829811E+02  0.10323965144E+03  0.47000000000E+01 0. -1.
        -13    1    4    4    0    0  0.44508644849E+02  0.24658842726E+02 -0.32457211538E+02  0.60353529902E+02  0.00000000000E+00 0.  1.
         14    1    4    4    0    0 -0.11943659191E+02 -0.10571781861E+02  0.23178517192E+02  0.28136403925E+02  0.00000000000E+00 0. -1.
         -5    1    5    5    0  502  0.24504632387E+02 -0.38388602645E+02  0.30974055877E+02  0.55277879472E+02  0.47000000000E+01 0.  1.
         11    1    6    6    0    0  0.31175821722E+02  0.81490330532E+02 -0.15932282537E+02  0.88692972986E+02  0.00000000000E+00 0. -1.
        -12    1    6    6    0    0 -0.25870447010E+02  0.67849509896E+01 -0.26480142346E+02  0.37636598240E+02  0.00000000000E+00 0.  1.
</event>
<event>
12    1  0.8406581E-002  0.1838249E+03  0.7818608E-02  0.1164259E+00
         21   -1    0    0  501  502  0.00000000000E+00  0.00000000000E+00  0.81608349940E+03  0.81608349940E+03  0.00000000000E+00 0.  1.
         21   -1    0    0  502  503 -0.00000000000E+00 -0.00000000000E+00 -0.43937782068E+02  0.43937782068E+02  0.00000000000E+00 0.  1.
         -6    2    1    2    0  503  0.53692469495E+02 -0.29721567172E+02  0.49088618819E+03  0.52401752374E+03  0.17279717185E+03 0.  0.
        -24    2    3    3    0    0  0.63153767693E+02  0.38980725820E+02  0.24314067282E+03  0.26670555043E+03  0.80663303243E+02 0.  0.
          6    2    1    2  501    0 -0.53692469495E+02  0.29721567172E+02  0.28125952915E+03  0.33600375773E+03  0.17327824340E+03 0.  0.
         24    2    5    5    0    0  0.14048025450E+02  0.62751424061E+02  0.10800139722E+03  0.14700583081E+03  0.76232042144E+02 0.  0.
          5    1    5    5  501    0 -0.67740494945E+02 -0.33029856889E+02  0.17325813192E+03  0.18899792692E+03  0.47000000000E+01 0. -1.
        -11    1    6    6    0    0 -0.87900199160E+01  0.71758072192E+02  0.94519796110E+02  0.11899780347E+03  0.00000000000E+00 0.  1.
         12    1    6    6    0    0  0.22838045366E+02 -0.90066481313E+01  0.13481601110E+02  0.28008027335E+02  0.00000000000E+00 0. -1.
         -5    1    3    3    0  503 -0.94612981976E+01 -0.68702292991E+02  0.24774551537E+03  0.25731197331E+03  0.47000000000E+01 0.  1.
         11    1    4    4    0    0 -0.19174563548E+02  0.13160501651E+02  0.47766665137E+02  0.53127365728E+02  0.00000000000E+00 0. -1.
        -12    1    4    4    0    0  0.82328331240E+02  0.25820224168E+02  0.19537400769E+03  0.21357818470E+03  0.00000000000E+00 0.  1.
</event>
<event>
12    1  0.8406581E-002  0.2194546E+03  0.7818608E-02  0.1134662E+00
         21   -1    0    0  501  502  0.00000000000E+00  0.00000000000E+00  0.43134079092E+03  0.43134079092E+03  0.00000000000E+00 0. -1.
         21   -1    0    0  502  503 -0.00000000000E+00 -0.00000000000E+00 -0.11232085570E+03  0.11232085570E+03  0.00000000000E+00 0. -1.
         -6    2    1    2    0  503 -0.13413608015E+03 -0.37130022134E+01  0.12561899643E+03  0.25114794874E+03  0.17113995883E+03 0.  0.
        -24    2    3    3    0    0 -0.69044970558E+02  0.34299208160E+02  0.13470857663E+03  0.17507895930E+03  0.81009861951E+02 0.  0.
          6    2    1    2  501    0  0.13413608015E+03  0.37130022134E+01  0.19340093878E+03  0.29251369788E+03  0.17364926127E+03 0.  0.
         24    2    5    5    0    0  0.19764084384E+02  0.51460650372E+02  0.66147296262E+02  0.11481628412E+03  0.75950620328E+02 0.  0.
          5    1    5    5  501    0  0.11437199577E+03 -0.47747648159E+02  0.12725364252E+03  0.17769741376E+03  0.47000000000E+01 0. -1.
        -13    1    6    6    0    0 -0.27755854140E+02  0.73403240152E+01  0.24563940396E+02  0.37784321662E+02  0.00000000000E+00 0.  1.
         14    1    6    6    0    0  0.47519938524E+02  0.44120326357E+02  0.41583355866E+02  0.77031962459E+02  0.00000000000E+00 0. -1.
         -5    1    3    3    0  503 -0.65091109593E+02 -0.38012210374E+02 -0.90895801967E+01  0.76068989435E+02  0.47000000000E+01 0.  1.
         11    1    4    4    0    0 -0.48415056934E+02  0.24866671822E+02  0.19744503959E+02  0.57898312083E+02  0.00000000000E+00 0. -1.
        -12    1    4    4    0    0 -0.20629913624E+02  0.94325363377E+01  0.11496407267E+03  0.11718064722E+03  0.00000000000E+00 0.  1.
</event>
<event>
12    1  0.8406581E-002  0.1805056E+03  0.7818608E-02  0.1167726E+00
         21   -1    0    0  503  502  0.00000000000E+00  0.00000000000E+00  0.75505415040E+02  0.75505415040E+02  0.00000000000E+00 0.  1.
         21   -1    0    0  501  503 -0.00000000000E+00 -0.00000000000E+00 -0.12359798808E+04  0.12359798808E+04  0.00000000000E+00 0.  1.
          6    2    1    2  501    0  0.43916692610E+02  0.30726932905E+02 -0.11115417726E+04  0.11261027444E+04  0.17236431893E+03 0.  0.
         24    2    3    3    0    0  0.20552933182E+02  0.30148820005E+02 -0.10910739650E+04  0.10946826773E+04  0.80971553239E+02 0.  0.
         -6    2    1    2    0  502 -0.43916692610E+02 -0.30726932905E+02 -0.48932693252E+02  0.18538255152E+03  0.17058564314E+03 0.  0.
        -24    2    5    5    0    0  0.38294797373E+02 -0.23606648189E+02 -0.69347446463E+01  0.92671466818E+02  0.80722640779E+02 0.  0.
          5    1    3    3  501    0  0.23363759428E+02  0.57811290072E+00 -0.20467807540E+02  0.31420067069E+02  0.47000000000E+01 0. -1.
        -11    1    4    4    0    0  0.29137857073E+02 -0.21130380231E+02 -0.37486905301E+03  0.37659303576E+03  0.00000000000E+00 0.  1.
         12    1    4    4    0    0 -0.85849238902E+01  0.51279200236E+02 -0.71620491200E+03  0.71808964153E+03  0.00000000000E+00 0. -1.
         -5    1    5    5    0  502 -0.82211489983E+02 -0.71202847163E+01 -0.41997948606E+02  0.92711084703E+02  0.47000000000E+01 0.  1.
         13    1    6    6    0    0 -0.79994510320E+01  0.11842430004E+02 -0.27378227479E+02  0.30883680239E+02  0.00000000000E+00 0. -1.
        -14    1    6    6    0    0  0.46294248405E+02 -0.35449078193E+02  0.20443482832E+02  0.61787786579E+02  0.00000000000E+00 0.  1.
</event>
<event>
12    1  0.8406581E-002  0.1866265E+03  0.7818608E-02  0.1161692E+00
         21   -1    0    0  503  502  0.00000000000E+00  0.00000000000E+00  0.17055183311E+04  0.17055183311E+04  0.00000000000E+00 0.  1.
         21   -1    0    0  501  503 -0.00000000000E+00 -0.00000000000E+00 -0.38292877213E+02  0.38292877213E+02  0.00000000000E+00 0.  1.
          6    2    1    2  501    0 -0.82552181553E+01 -0.72390299101E+02  0.23755248202E+03  0.30209376465E+03  0.17181663742E+03 0.  0.
         24    2    3    3    0    0 -0.30409058000E+02 -0.73120861665E+02  0.25147425617E+03  0.27549992821E+03  0.79934583943E+02 0.  0.
         -6    2    1    2    0  502  0.82552181553E+01  0.72390299101E+02  0.14296729719E+04  0.14417174437E+04  0.17110194870E+03 0.  0.
        -24    2    5    5    0    0  0.17410723369E+02  0.42132810197E+02  0.13770968156E+04  0.13801895547E+04  0.80307287538E+02 0.  0.
          5    1    3    3  501    0  0.22153839844E+02  0.73056256450E+00 -0.13921774141E+02  0.26593836443E+02  0.47000000000E+01 0. -1.
        -11    1    4    4    0    0 -0.37708812225E+02 -0.63686759910E+02  0.10457244092E+03  0.12811461005E+03  0.00000000000E+00 0.  1.
         12    1    4    4    0    0  0.72997542253E+01 -0.94341017554E+01  0.14690181525E+03  0.14738531816E+03  0.00000000000E+00 0. -1.
         -5    1    5    5    0  502 -0.91555052137E+01  0.30257488903E+02  0.52576156264E+02  0.61527888945E+02  0.47000000000E+01 0.  1.
         13    1    6    6    0    0 -0.27736800835E+02  0.33135640856E+02  0.84535105384E+03  0.84645478618E+03  0.00000000000E+00 0. -1.
        -14    1    6    6    0    0  0.45147524204E+02  0.89971693410E+01  0.53174576178E+03  0.53373476856E+03  0.00000000000E+00 0.  1.
</event>
<event>
12    1  0.8406581E-002  0.2359067E+03  0.7818608E-02  0.1122842E+00
         21   -1    0    0  501  502  0.00000000000E+00  0.00000000000E+00  0.35609667946E+03  0.35609667946E+03  0.00000000000E+00 0. -1.
         21   -1    0    0  502  503 -0.00000000000E+00 -0.00000000000E+00 -0.15601160191E+03  0.15601160191E+03  0.00000000000E+00 0.  1.
         -6    2    1    2    0  503  0.77096065040E+02 -0.14281646783E+03  0.81417620413E+02  0.24956120643E+03  0.17120636703E+03 0.  0.
        -24    2    3    3    0    0  0.10886244265E+03 -0.75449012260E+02  0.81753829648E+02  0.17493091865E+03  0.79834533667E+02 0.  0.
          6    2    1    2  501    0 -0.77096065040E+02  0.14281646783E+03  0.11866745714E+03  0.26254707495E+03  0.16884506049E+03 0.  0.
         24    2    5    5    0    0 -0.23538187643E+02  0.44004746572E+02  0.11513991238E+03  0.15000047987E+03  0.82173478326E+02 0.  0.
          5    1    5    5  501    0 -0.53557877397E+02  0.98811721263E+02  0.35275447507E+01  0.11254659507E+03  0.47000000000E+01 0. -1.
        -13    1    6    6    0    0 -0.22961464804E+02  0.48596895620E+02  0.24203823131E+02  0.58946689339E+02  0.00000000000E+00 0.  1.
         14    1    6    6    0    0 -0.57672283846E+00 -0.45921490484E+01  0.90936089253E+02  0.91053790535E+02  0.00000000000E+00 0. -1.
         -5    1    3    3    0  503 -0.31766377613E+02 -0.67367455575E+02 -0.33620923591E+00  0.74630287779E+02  0.47000000000E+01 0.  1.
         13    1    4    4    0    0  0.13380557938E+02 -0.55509902312E+02  0.29214828091E+02  0.64139650497E+02  0.00000000000E+00 0. -1.
        -14    1    4    4    0    0  0.95481884715E+02 -0.19939109948E+02  0.52539001558E+02  0.11079126815E+03  0.00000000000E+00 0.  1.
</event>
<event>
12    1  0.8406581E-002  0.3070799E+03  0.7818608E-02  0.1081895E+00
         21   -1    0    0  503  502  0.00000000000E+00  0.00000000000E+00  0.19823927663E+03  0.19823927663E+03  0.00000000000E+00 0.  1.
         21   -1    0    0  501  503 -0.00000000000E+00 -0.00000000000E+00 -0.47454809452E+03  0.47454809452E+03  0.00000000000E+00 0.  1.
          6    2    1    2  501    0  0.19426982671E+03 -0.16168202330E+03 -0.12582460422E+03  0.33185823065E+03  0.17440244263E+03 0.  0.
         24    2    3    3    0    0  0.82036212776E+02 -0.15117479374E+03 -0.52187711100E+02  0.19713158890E+03  0.80953984983E+02 0.  0.
         -6    2    1    2    0  502 -0.19426982671E+03  0.16168202330E+03 -0.15048421368E+03  0.34092914050E+03  0.17235236594E+03 0.  0.
        -24    2    5    5    0    0 -0.12507715635E+03  0.12475666559E+03 -0.17290787407E+03  0.25922223615E+03  0.78041746201E+02 0.  0.
          5    1    3    3  501    0  0.11223361393E+03 -0.10507229563E+02 -0.73636893116E+02  0.13472664175E+03  0.47000000000E+01 0. -1.
        -11    1    4    4    0    0  0.75426442939E+02 -0.72359704151E+02 -0.54758263841E+02  0.11799806159E+03  0.00000000000E+00 0.  1.
         12    1    4    4    0    0  0.66097698367E+01 -0.78815089587E+02  0.25705527411E+01  0.79133527315E+02  0.00000000000E+00 0. -1.
         -5    1    5    5    0  502 -0.69192670359E+02  0.36925357714E+02  0.22423660384E+02  0.81706904351E+02  0.47000000000E+01 0.  1.
         13    1    6    6    0    0 -0.25320826875E+02  0.67438465120E+02 -0.99162399392E+02  0.12256537971E+03  0.00000000000E+00 0. -1.
        -14    1    6    6    0    0 -0.99756329475E+02  0.57318200467E+02 -0.73745474674E+02  0.13665685643E+03  0.00000000000E+00 0.  1.
</event>
<event>
12    1  0.8406581E-002  0.2354425E+03  0.7818608E-02  0.1123076E+00
         21   -1    0    0  501  502  0.00000000000E+00  0.00000000000E+00  0.23217141884E+03  0.23217141884E+03  0.00000000000E+00 0.  1.
         21   -1    0    0  502  503 -0.00000000000E+00 -0.00000000000E+00 -0.32472856367E+03  0.32472856367E+03  0.00000000000E+00 0. -1.
         -6    2    1    2    0  503  0.12151228118E+03  0.10235676649E+03 -0.19066288207E+03  0.30296120706E+03  0.17375562223E+03 0.  0.
        -24    2    3    3    0    0  0.78389974467E+02  0.97777890086E+02 -0.51940365544E+02  0.15754275556E+03  0.80102524108E+02 0.  0.
          6    2    1    2  501    0 -0.12151228118E+03 -0.10235676649E+03  0.98105737246E+02  0.25393877545E+03  0.17209887819E+03 0.  0.
         24    2    5    5    0    0 -0.92998032985E+02 -0.13485494575E+03  0.50389385227E+02  0.18937768612E+03  0.80562567757E+02 0.  0.
          5    1    5    5  501    0 -0.28514248194E+02  0.32498179264E+02  0.47716352019E+02  0.64561089331E+02  0.47000000000E+01 0. -1.
        -11    1    6    6    0    0 -0.15780498533E+02 -0.65820743514E+02  0.52687095629E+02  0.85774847459E+02  0.00000000000E+00 0.  1.
         12    1    6    6    0    0 -0.77217534452E+02 -0.69034202240E+02 -0.22977104028E+01  0.10360283866E+03  0.00000000000E+00 0. -1.
         -5    1    3    3    0  503  0.43122306712E+02  0.45788764038E+01 -0.13872251653E+03  0.14541845150E+03  0.47000000000E+01 0.  1.
         13    1    4    4    0    0  0.38121804617E+02  0.44918825211E+02 -0.67194004159E+02  0.89364461843E+02  0.00000000000E+00 0. -1.
        -14    1    4    4    0    0  0.40268169850E+02  0.52859064875E+02  0.15253638614E+02  0.68178293712E+02  0.00000000000E+00 0.  1.
</event>
<event>
12    1  0.8406581E-002  0.1809282E+03  0.7818608E-02  0.1167026E+00
         21   -1    0    0  503  502  0.00000000000E+00  0.00000000000E+00  0.62835122009E+03  0.62835122009E+03  0.00000000000E+00 0.  1.
         21   -1    0    0  501  503 -0.00000000000E+00 -0.00000000000E+00 -0.58789374220E+02  0.58789374220E+02  0.00000000000E+00 0.  1.
          6    2    1    2  501    0 -0.34765464440E+02  0.43684124254E+02  0.16798557746E+03  0.24688894387E+03  0.17209897194E+03 0.  0.
         24    2    3    3    0    0  0.20223369674E+02  0.25184801277E+01  0.15776924688E+03  0.17728401916E+03  0.78250627902E+02 0.  0.
         -6    2    1    2    0  502  0.34765464440E+02 -0.43684124254E+02  0.40157626841E+03  0.44025165044E+03  0.17158402062E+03 0.  0.
        -24    2    5    5    0    0  0.71552980296E+02 -0.10053213093E+02  0.15398414744E+03  0.18764858657E+03  0.79246314082E+02 0.  0.
          5    1    3    3  501    0 -0.54988834113E+02  0.41165644126E+02  0.10216330581E+02  0.69604924711E+02  0.47000000000E+01 0. -1.
        -11    1    4    4    0    0  0.60097202521E+00 -0.15865387982E+02 -0.13264569956E+01  0.15932080572E+02  0.00000000000E+00 0.  1.
         12    1    4    4    0    0  0.19622397649E+02  0.18383868109E+02  0.15909570387E+03  0.16135193859E+03  0.00000000000E+00 0. -1.
         -5    1    5    5    0  502 -0.36787515856E+02 -0.33630911161E+02  0.24759212098E+03  0.25260306387E+03  0.47000000000E+01 0.  1.
         11    1    6    6    0    0  0.77161650402E+02 -0.25527673576E+02  0.88628654835E+02  0.12025232168E+03  0.00000000000E+00 0. -1.
        -12    1    6    6    0    0 -0.56086701064E+01  0.15474460483E+02  0.65355492603E+02  0.67396264889E+02  0.00000000000E+00 0.  1.
</event>
<event>
12    1  0.8406581E-002  0.2594307E+03  0.7818608E-02  0.1107577E+00
         21   -1    0    0  503  502  0.00000000000E+00  0.00000000000E+00  0.10207344747E+03  0.10207344747E+03  0.00000000000E+00 0.  1.
         21   -1    0    0  501  503 -0.00000000000E+00 -0.00000000000E+00 -0.73516313144E+03  0.73516313144E+03  0.00000000000E+00 0. -1.
          6    2    1    2  501    0 -0.23329433840E+02 -0.19167546956E+03 -0.18045239099E+03  0.31552323576E+03  0.17236037473E+03 0.  0.
         24    2    3    3    0    0 -0.31422068499E+02 -0.21469378854E+03 -0.14700220503E+03  0.27385383829E+03  0.79407224090E+02 0.  0.
         -6    2    1    2    0  502  0.23329433840E+02  0.19167546956E+03 -0.45263729298E+03  0.52171334316E+03  0.17326437982E+03 0.  0.
        -24    2    5    5    0    0  0.79872253264E+02  0.14798541654E+03 -0.36583654661E+03  0.40918614319E+03  0.72922291479E+02 0.  0.
          5    1    3    3  501    0  0.80926346590E+01  0.23018318982E+02 -0.33450185960E+02  0.41669397467E+02  0.47000000000E+01 0. -1.
        -11    1    4    4    0    0 -0.29058028250E+02 -0.73723258841E+02 -0.14871699003E+02  0.80626641572E+02  0.00000000000E+00 0.  1.
         12    1    4    4    0    0 -0.23640402493E+01 -0.14097052970E+03 -0.13213050602E+03  0.19322719672E+03  0.00000000000E+00 0. -1.
         -5    1    5    5    0  502 -0.56542819424E+02  0.43690053020E+02 -0.86800746378E+02  0.11252719997E+03  0.47000000000E+01 0.  1.
         11    1    6    6    0    0  0.21292492158E+02  0.73342139418E+02 -0.23820682232E+03  0.25014981479E+03  0.00000000000E+00 0. -1.
        -12    1    6    6    0    0  0.58579761107E+02  0.74643277118E+02 -0.12762972428E+03  0.15903632840E+03  0.00000000000E+00 0.  1.
</event>
<event>
12    1  0.8406581E-002  0.2209560E+03  0.7818608E-02  0.1133564E+00
         21   -1    0    0  501  502  0.00000000000E+00  0.00000000000E+00  0.16679634834E+03  0.16679634834E+03  0.00000000000E+00 0.  1.
         21   -1    0    0  502  503 -0.00000000000E+00 -0.00000000000E+00 -0.44684403557E+03  0.44684403557E+03  0.00000000000E+00 0.  1.
         -6    2    1    2    0  503  0.13618818498E+02 -0.13643073415E+03 -0.32141047734E+03  0.38884616230E+03  0.17058084756E+03 0.  0.
        -24    2    3    3    0    0 -0.15919191581E+02 -0.11782770319E+03 -0.12580922571E+03  0.19009881908E+03  0.78567241528E+02 0.  0.
          6    2    1    2  501    0 -0.13618818498E+02  0.13643073415E+03  0.41362790105E+02  0.22479422161E+03  0.17327072525E+03 0.  0.
         24    2    5    5    0    0 -0.67385151585E+02  0.11040114760E+03  0.51282072657E+00  0.15227410063E+03  0.80361475166E+02 0.  0.
          5    1    5    5  501    0  0.53766333088E+02  0.26029586550E+02  0.40849969378E+02  0.72520120986E+02  0.47000000000E+01 0. -1.
        -13    1    6    6    0    0 -0.25008700023E+02  0.64920673584E+02 -0.37875770797E+02  0.79213022597E+02  0.00000000000E+00 0.  1.
         14    1    6    6    0    0 -0.42376451562E+02  0.45480474018E+02  0.38388591523E+02  0.73061078031E+02  0.00000000000E+00 0. -1.
         -5    1    3    3    0  503  0.29538010079E+02 -0.18603030962E+02 -0.19560125163E+03  0.19874734322E+03  0.47000000000E+01 0.  1.
         11    1    4    4    0    0 -0.24561861491E+02 -0.11678819058E+03 -0.13308192781E+03  0.17875560413E+03  0.00000000000E+00 0. -1.
        -12    1    4    4    0    0  0.86426699095E+01 -0.10395126088E+01  0.72727020944E+01  0.11343214949E+02  0.00000000000E+00 0.  1.
</event>
<event>
12    1  0.8406581E-002  0.3400788E+03  0.7818608E-02  0.1066841E+00
         21   -1    0    0  501  502  0.00000000000E+00  0.00000000000E+00  0.91518086589E+03  0.91518086589E+03  0.00000000000E+00 0. -1.
         21   -1    0    0  502  503 -0.00000000000E+00 -0.00000000000E+00 -0.14719881682E+03  0.14719881682E+03  0.00000000000E+00 0.  1.
         -6    2    1    2    0  503  0.38965291733E+02 -0.29133849354E+03  0.58545771090E+03  0.67706303384E+03  0.17104738746E+03 0.  0.
        -24    2    3    3    0    0  0.18203957242E+02 -0.11479558431E+03  0.14238738754E+03  0.19964096349E+03  0.77929044245E+02 0.  0.
          6    2    1    2  501    0 -0.38965291733E+02  0.29133849354E+03  0.18252433817E+03  0.38531664887E+03  0.16957999319E+03 0.  0.
         24    2    5    5    0    0 -0.33445567069E+02  0.15727407561E+03  0.32770877094E+02  0.18419001060E+03  0.83655775681E+02 0.  0.
          5    1    5    5  501    0 -0.55197246636E+01  0.13406441794E+03  0.14975346107E+03  0.20112663827E+03  0.47000000000E+01 0. -1.
        -13    1    6    6    0    0 -0.59937554594E+02  0.12172117110E+03  0.15314780199E+02  0.13653972476E+03  0.00000000000E+00 0.  1.
         14    1    6    6    0    0  0.26491987525E+02  0.35552904503E+02  0.17456096895E+02  0.47650285838E+02  0.00000000000E+00 0. -1.
         -5    1    3    3    0  503  0.20761334491E+02 -0.17654290924E+03  0.44307032336E+03  0.47742207035E+03  0.47000000000E+01 0.  1.
         13    1    4    4    0    0  0.25802663331E+02 -0.57727852351E+01  0.49894988530E+02  0.56467799362E+02  0.00000000000E+00 0. -1.
        -14    1    4    4    0    0 -0.75987060893E+01 -0.10902279907E+03  0.92492399007E+02  0.14317316413E+03  0.00000000000E+00 0.  1.
</event>
<event>
12    1  0.8406581E-002  0.1766978E+03  0.7818608E-02  0.1171236E+00
         21   -1    0    0  501  502  0.00000000000E+00  0.00000000000E+00  0.56910161500E+03  0.56910161500E+03  0.00000000000E+00 0.  1.
         21   -1    0    0  502  503 -0.00000000000E+00 -0.00000000000E+00 -0.54943969818E+02  0.54943969818E+02  0.00000000000E+00 0. -1.
         -6    2    1    2    0  503 -0.43179345890E+01 -0.40865694871E+02  0.28183589521E+03  0.33264635593E+03  0.17185306721E+03 0.  0.
        -24    2    3    3    0    0 -0.57473310585E+02 -0.43826141401E+02  0.23489597140E+03  0.26151475474E+03  0.89386450120E+02 0.  0.
          6    2    1    2  501    0  0.43179345890E+01  0.40865694871E+02  0.23232174998E+03  0.29139922890E+03  0.17103059817E+03 0.  0.
         24    2    5    5    0    0  0.52642091926E+02  0.64715340261E+02  0.11883309881E+03  0.16567813396E+03  0.79803969775E+02 0.  0.
          5    1    5    5  501    0 -0.48324157337E+02 -0.23849645390E+02  0.11348865118E+03  0.12572109494E+03  0.47000000000E+01 0. -1.
        -11    1    6    6    0    0 -0.67214657769E+01  0.29631385209E+02  0.82113875745E+02  0.87555043723E+02  0.00000000000E+00 0.  1.
         12    1    6    6    0    0  0.59363557702E+02  0.35083955052E+02  0.36719223061E+02  0.78123090232E+02  0.00000000000E+00 0. -1.
         -5    1    3    3    0  503  0.53155375996E+02  0.29604465293E+01  0.46939923803E+02  0.71131601188E+02  0.47000000000E+01 0.  1.
         13    1    4    4    0    0 -0.94647459039E+01 -0.13843393045E+02 -0.29494662603E+01  0.17027046052E+02  0.00000000000E+00 0. -1.
        -14    1    4    4    0    0 -0.48008564682E+02 -0.29982748355E+02  0.23784543766E+03  0.24448770869E+03  0.00000000000E+00 0.  1.
</event>
<event>
12    1  0.8406581E-002  0.1825508E+03  0.7818608E-02  0.1165397E+00
         21   -1    0    0  501  502  0.00000000000E+00  0.00000000000E+00  0.11941159413E+03  0.11941159413E+03  0.00000000000E+00 0.  1.
         21   -1    0    0  502  503 -0.00000000000E+00 -0.00000000000E+00 -0.28881550110E+03  0.28881550110E+03  0.00000000000E+00 0.  1.
         -6    2    1    2    0  503  0.50986690208E+02  0.29925203662E+02 -0.12263811694E+03  0.21978128566E+03  0.17253563519E+03 0.  0.
        -24    2    3    3    0    0  0.80203455318E+02 -0.27964217883E+02 -0.73332899322E+02  0.13818533617E+03  0.80640444455E+02 0.  0.
          6    2    1    2  501    0 -0.50986690208E+02 -0.29925203662E+02 -0.46765790030E+02  0.18844580957E+03  0.17271254626E+03 0.  0.
         24    2    5    5    0    0  0.21466885615E+02 -0.58472650652E+02 -0.18475474059E+02  0.10545840476E+03  0.83067767158E+02 0.  0.
          5    1    5    5  501    0 -0.72453575823E+02  0.28547446991E+02 -0.28290315970E+02  0.82987404809E+02  0.47000000000E+01 0. -1.
        -11    1    6    6    0    0 -0.53606270103E+01 -0.69957065910E+02  0.13561513602E+01  0.70175255890E+02  0.00000000000E+00 0.  1.
         12    1    6    6    0    0  0.26827512626E+02  0.11484415258E+02 -0.19831625420E+02  0.35283148871E+02  0.00000000000E+00 0. -1.
         -5    1    3    3    0  503 -0.29216765111E+02  0.57889421545E+02 -0.49305217614E+02  0.81595949497E+02  0.47000000000E+01 0.  1.
         13    1    4    4    0    0  0.28059727019E+02  0.98665924150E+01  0.11304634058E+02  0.31819690090E+02  0.00000000000E+00 0. -1.
        -14    1    4    4    0    0  0.52143728300E+02 -0.37830810298E+02 -0.84637533379E+02  0.10636564608E+03  0.00000000000E+00 0.  1.
</event>
<event>
12    1  0.8406581E-002  0.2224248E+03  0.7818608E-02  0.1132577E+00
         21   -1    0    0  501  502  0.00000000000E+00  0.00000000000E+00  0.98640065068E+03  0.98640065068E+03  0.00000000000E+00 0.  1.
         21   -1    0    0  502  503 -0.00000000000E+00 -0.00000000000E+00 -0.49634166421E+02  0.49634166421E+02  0.00000000000E+00 0.  1.
         -6    2    1    2    0  503 -0.12939430317E+03  0.42784510841E+02  0.45121210143E+03  0.50305581046E+03  0.17578221727E+03 0.  0.
        -24    2    3    3    0    0 -0.11499968355E+03  0.16883858828E+02  0.45164867670E+03  0.47305032019E+03  0.79246995912E+02 0.  0.
          6    2    1    2  501    0  0.12939430317E+03 -0.42784510841E+02  0.48555438283E+03  0.53297900664E+03  0.17242436825E+03 0.  0.
         24    2    5    5    0    0  0.10435170961E+03  0.35800316675E+02  0.31496202234E+03  0.34343600343E+03  0.81094210397E+02 0.  0.
          5    1    5    5  501    0  0.25042593557E+02 -0.78584827516E+02  0.17059236049E+03  0.18954300321E+03  0.47000000000E+01 0. -1.
        -11    1    6    6    0    0  0.47033702379E+02 -0.21956663221E+02  0.16292071980E+03  0.17098954693E+03  0.00000000000E+00 0.  1.
         12    1    6    6    0    0  0.57318007231E+02  0.57756979896E+02  0.15204130254E+03  0.17244645649E+03  0.00000000000E+00 0. -1.
         -5    1    3    3    0  503 -0.14394619613E+02  0.25900652013E+02 -0.43657527469E+00  0.30005490272E+02  0.47000000000E+01 0.  1.
         13    1    4    4    0    0  0.60169720702E+01  0.10401461230E+02  0.10784184717E+03  0.10850925468E+03  0.00000000000E+00 0. -1.
        -14    1    4    4    0    0 -0.12101665562E+03  0.64823975981E+01  0.34380682953E+03  0.36454106551E+03  0.00000000000E+00 0.  1.
</event>
<event>
12    1  0.8406581E-002  0.2113022E+03  0.7818608E-02  0.1141331E+00
         21   -1    0    0  501  502  0.00000000000E+00  0.00000000000E+00  0.82531018204E+03  0.82531018204E+03  0.00000000000E+00 0. -1.
         21   -1    0    0  502  503 -0.00000000000E+00 -0.00000000000E+00 -0.19953876759E+03  0.19953876759E+03  0.00000000000E+00 0. -1.
         -6    2    1    2    0  503 -0.92915356637E+02 -0.66287151741E+02 -0.12532158242E+03  0.24567071199E+03  0.17782392900E+03 0.  0.
        -24    2    3    3    0    0 -0.62679563342E+01 -0.22425283480E+02 -0.12415191564E+03  0.14843340646E+03  0.77952532869E+02 0.  0.
          6    2    1    2  501    0  0.92915356637E+02  0.66287151741E+02  0.75109299687E+03  0.77917823765E+03  0.17306295413E+03 0.  0.
         24    2    5    5    0    0  0.80647146654E+02  0.84095960226E+02  0.74440620116E+03  0.75605971969E+03  0.62526911139E+02 0.  0.
          5    1    5    5  501    0  0.12268209983E+02 -0.17808808485E+02  0.66867957084E+01  0.23118517960E+02  0.47000000000E+01 0. -1.
        -13    1    6    6    0    0  0.13659350100E+02  0.36165877421E+02  0.40332876832E+03  0.40517729932E+03  0.00000000000E+00 0.  1.
         14    1    6    6    0    0  0.66987796555E+02  0.47930082806E+02  0.34107743284E+03  0.35088242036E+03  0.00000000000E+00 0. -1.
         -5    1    3    3    0  503 -0.86647400303E+02 -0.43861868261E+02 -0.11696667808E+01  0.97237305531E+02  0.47000000000E+01 0.  1.
         11    1    4    4    0    0  0.15595156514E+02  0.69859199472E+01 -0.10630840414E+03  0.10767306430E+03  0.00000000000E+00 0. -1.
        -12    1    4    4    0    0 -0.21863112848E+02 -0.29411203427E+02 -0.17843511495E+02  0.40760342159E+02  0.00000000000E+00 0.  1.
</event>
<event>
12    1  0.8406581E-002  0.2060530E+03  0.7818608E-02  0.1145245E+00
         21   -1    0    0  501  502  0.00000000000E+00  0.00000000000E+00  0.14049664010E+03  0.14049664010E+03  0.00000000000E+00 0. -1.
         21   -1    0    0  502  503 -0.00000000000E+00 -0.00000000000E+00 -0.30802004638E+03  0.30802004638E+03  0.00000000000E+00 0. -1.
         -6    2    1    2    0  503 -0.44865818906E+02 -0.87650876139E+02 -0.43864241947E+02  0.20820556167E+03  0.17812879159E+03 0.  0.
        -24    2    3    3    0    0  0.23313277092E+02 -0.19807346556E+01 -0.49940306947E+02  0.98447779078E+02  0.81550590119E+02 0.  0.
          6    2    1    2  501    0  0.44865818906E+02  0.87650876139E+02 -0.12365916433E+03  0.24031112482E+03  0.18100339775E+03 0.  0.
         24    2    5    5    0    0  0.41079848495E+02  0.12967016534E+02  0.67695145616E+01  0.89892566341E+02  0.78607567611E+02 0.  0.
          5    1    5    5  501    0  0.37859704104E+01  0.74683859605E+02 -0.13042867890E+03  0.15041855848E+03  0.47000000000E+01 0. -1.
        -11    1    6    6    0    0  0.27852341476E+00  0.35542077883E+02  0.20819192455E+02  0.41191693945E+02  0.00000000000E+00 0.  1.
         12    1    6    6    0    0  0.40801325080E+02 -0.22575061349E+02 -0.14049677894E+02  0.48700872396E+02  0.00000000000E+00 0. -1.
         -5    1    3    3    0  503 -0.68179095998E+02 -0.85670141484E+02  0.60760650002E+01  0.10975778259E+03  0.47000000000E+01 0.  1.
         11    1    4    4    0    0  0.81633524110E+01 -0.33245855409E+02  0.38121333441E+01  0.34445022646E+02  0.00000000000E+00 0. -1.
        -12    1    4    4    0    0  0.15149924681E+02  0.31265120753E+02 -0.53752440291E+02  0.64002756431E+02  0.00000000000E+00 0.  1.
</event>
<event>
12    1  0.8406581E-002  0.2486016E+03  0.7818608E-02  0.1114226E+00
         21   -1    0    0  501  502  0.00000000000E+00  0.00000000000E+00  0.43167483859E+03  0.43167483859E+03  0.00000000000E+00 0. -1.
         21   -1    0    0  502  503 -0.00000000000E+00 -0.00000000000E+00 -0.27037536848E+03  0.27037536848E+03  0.00000000000E+00 0.  1.
         -6    2    1    2    0  503  0.93681300554E+02 -0.15267257191E+03 -0.16022097202E+03  0.29575925066E+03  0.17238814980E+03 0.  0.
        -24    2    3    3    0    0  0.22225186950E+02 -0.48714138959E+01 -0.67367148858E+02  0.10709266391E+03  0.80080061877E+02 0.  0.
          6    2    1    2  501    0 -0.93681300554E+02  0.15267257191E+03  0.32152044213E+03  0.40629095641E+03  0.17208092940E+03 0.  0.
         24    2    5    5    0    0  0.10388370809E+02  0.74563862174E+02  0.94903253305E+02  0.14493122862E+03  0.79565983639E+02 0.  0.
          5    1    5    5  501    0 -0.10406967136E+03  0.78108709732E+02  0.22661718883E+03  0.26135972778E+03  0.47000000000E+01 0. -1.
        -13    1    6    6    0    0 -0.75889920699E+01  0.48150463611E+01 -0.12631382665E+02  0.15502557858E+02  0.00000000000E+00 0.  1.
         14    1    6    6    0    0  0.17977362879E+02  0.69748815813E+02  0.10753463597E+03  0.12942867077E+03  0.00000000000E+00 0. -1.
         -5    1    3    3    0  503  0.71456113604E+02 -0.14780115801E+03 -0.92853823164E+02  0.18866658675E+03  0.47000000000E+01 0.  1.
         13    1    4    4    0    0 -0.24844927573E+02 -0.14075872697E+02 -0.59523420273E+01  0.29169007420E+02  0.00000000000E+00 0. -1.
        -14    1    4    4    0    0  0.47070114523E+02  0.92044588007E+01 -0.61414806831E+02  0.77923656492E+02  0.00000000000E+00 0.  1.
</event>
<event>
12    1  0.8406581E-002  0.1885045E+03  0.7818608E-02  0.1159964E+00
         21   -1    0    0  503  502  0.00000000000E+00  0.00000000000E+00  0.15802387858E+03  0.15802387858E+03  0.00000000000E+00 0.  1.
         21   -1    0    0  501  503 -0.00000000000E+00 -0.00000000000E+00 -0.34551109010E+03  0.34551109010E+03  0.00000000000E+00 0.  1.
          6    2    1    2  501    0  0.14979505214E+02  0.75172923126E+02 -0.24288602823E+03  0.30705852869E+03  0.17151082585E+03 0.  0.
         24    2    3    3    0    0 -0.29961978653E+02  0.86917763009E+02 -0.98067689893E+02  0.15490032367E+03  0.76970259062E+02 0.  0.
         -6    2    1    2    0  502 -0.14979505214E+02 -0.75172923126E+02  0.55398816712E+02  0.19647643999E+03  0.17221674898E+03 0.  0.
        -24    2    5    5    0    0 -0.36329454979E+02 -0.43317109326E+02 -0.27235352418E+02  0.10525632633E+03  0.84504015008E+02 0.  0.
          5    1    3    3  501    0  0.44941483867E+02 -0.11744839884E+02 -0.14481833834E+03  0.15215820502E+03  0.47000000000E+01 0. -1.
        -11    1    4    4    0    0 -0.25686158165E+02  0.31212808969E+02 -0.89727246653E+02  0.98412382132E+02  0.00000000000E+00 0.  1.
         12    1    4    4    0    0 -0.42758204878E+01  0.55704954040E+02 -0.83404432398E+01  0.56487941535E+02  0.00000000000E+00 0. -1.
         -5    1    5    5    0  502  0.21349949765E+02 -0.31855813799E+02  0.82634169129E+02  0.91220113657E+02  0.47000000000E+01 0.  1.
         13    1    6    6    0    0 -0.18849515365E+02  0.18803841564E+02  0.12560471925E+02  0.29438990167E+02  0.00000000000E+00 0. -1.
        -14    1    6    6    0    0 -0.17479939614E+02 -0.62120950890E+02 -0.39795824342E+02  0.75817336167E+02  0.00000000000E+00 0.  1.
</event>
<event>
12    1  0.8406581E-002  0.2350333E+03  0.7818608E-02  0.1123577E+00
         21   -1    0    0  503  502  0.00000000000E+00  0.00000000000E+00  0.15230117933E+03  0.15230117933E+03  0.00000000000E+00 0.  1.
         21   -1    0    0  501  503 -0.00000000000E+00 -0.00000000000E+00 -0.85159603503E+03  0.85159603503E+03  0.00000000000E+00 0.  1.
          6    2    1    2  501    0 -0.96624367503E+02  0.12478999578E+03 -0.73066967505E+03  0.76677898491E+03  0.17077185430E+03 0.  0.
         24    2    3    3    0    0 -0.29829990739E+02  0.31425875810E+02 -0.50860890884E+03  0.51675614284E+03  0.80476549377E+02 0.  0.
         -6    2    1    2    0  502  0.96624367503E+02 -0.12478999578E+03  0.31374819350E+02  0.23711822945E+03  0.17416045477E+03 0.  0.
        -24    2    5    5    0    0  0.11141366342E+03 -0.13063193616E+03 -0.11824164604E+02  0.19084627514E+03  0.82491106938E+02 0.  0.
          5    1    3    3  501    0 -0.66794376764E+02  0.93364119967E+02 -0.22206076622E+03  0.25002284207E+03  0.47000000000E+01 0. -1.
        -13    1    4    4    0    0 -0.50011134176E+02  0.32013206425E+02 -0.23437607821E+03  0.24178110961E+03  0.00000000000E+00 0.  1.
         14    1    4    4    0    0  0.20181143437E+02 -0.58733061445E+00 -0.27423283063E+03  0.27497503324E+03  0.00000000000E+00 0. -1.
         -5    1    5    5    0  502 -0.14789295920E+02  0.58419403812E+01  0.43198983955E+02  0.46271954313E+02  0.47000000000E+01 0.  1.
         13    1    6    6    0    0 -0.43647282639E+01  0.48833402662E+01  0.92842853114E+01  0.11362034092E+02  0.00000000000E+00 0. -1.
        -14    1    6    6    0    0  0.11577839169E+03 -0.13551527643E+03 -0.21108449916E+02  0.17948424105E+03  0.00000000000E+00 0.  1.
</event>
<event>
12    1  0.8406581E-002  0.2895972E+03  0.7818608E-02  0.1090852E+00
         21   -1    0    0  501  502  0.00000000000E+00  0.00000000000E+00  0.16257902289E+03  0.16257902289E+03  0.00000000000E+00 0. -1.
         21   -1    0    0  502  503 -0.00000000000E+00 -0.00000000000E+00 -0.95578867811E+03  0.95578867811E+03  0.00000000000E+00 0. -1.
         -6    2    1    2    0  503 -0.21800386901E+03 -0.82239594247E+02 -0.77850145236E+03  0.83062088057E+03  0.17198109819E+03 0.  0.
        -24    2    3    3    0    0 -0.92152622519E+02 -0.10526259332E+03 -0.45098682814E+03  0.47897259917E+03  0.80332510285E+02 0.  0.
          6    2    1    2  501    0  0.21800386901E+03  0.82239594247E+02 -0.14708202864E+02  0.28774682043E+03  0.16820482655E+03 0.  0.
         24    2    5    5    0    0  0.54928197492E+02 -0.95383453860E+01 -0.24904064140E+02  0.10028239599E+03  0.79550359035E+02 0.  0.
          5    1    5    5  501    0  0.16307567152E+03  0.91777939633E+02  0.10195861277E+02  0.18746442444E+03  0.47000000000E+01 0. -1.
        -11    1    6    6    0    0  0.11712135668E+02  0.19203350504E+02  0.21164407666E+02  0.30884865943E+02  0.00000000000E+00 0.  1.
         12    1    6    6    0    0  0.43216061824E+02 -0.28741695890E+02 -0.46068471807E+02  0.69397530048E+02  0.00000000000E+00 0. -1.
         -5    1    3    3    0  503 -0.12585124649E+03  0.23022999073E+02 -0.32751462423E+03  0.35164828140E+03  0.47000000000E+01 0.  1.
         11    1    4    4    0    0 -0.63352387425E+02 -0.60350543685E+02 -0.38128242686E+03  0.39119304971E+03  0.00000000000E+00 0. -1.
        -12    1    4    4    0    0 -0.28800235095E+02 -0.44912049636E+02 -0.69704401282E+02  0.87779549453E+02  0.00000000000E+00 0.  1.
</event>
<event>
12    1  0.8406581E-002  0.1770733E+03  0.7818608E-02  0.1170778E+00
         21   -1    0    0  503  502  0.00000000000E+00  0.00000000000E+00  0.19172886304E+04  0.19172886304E+04  0.00000000000E+00 0.  1.
         21   -1    0    0  501  503 -0.00000000000E+00 -0.00000000000E+00 -0.16868248224E+02  0.16868248224E+02  0.00000000000E+00 0.  1.
          6    2    1    2  501    0  0.12485602611E+02  0.41176959928E+02  0.11246701772E+04  0.11384538237E+04  0.17129701980E+03 0.  0.
         24    2    3    3    0    0 -0.17289959564E+02  0.25702677298E+02  0.27439347472E+03  0.28750223974E+03  0.80038669177E+02 0.  0.
         -6    2    1    2    0  502 -0.12485602611E+02 -0.41176959928E+02  0.77575020495E+03  0.79570305486E+03  0.17176594173E+03 0.  0.
        -24    2    5    5    0    0  0.25971434220E+02 -0.12138603786E+02  0.70370650887E+03  0.70890124639E+03  0.80723388256E+02 0.  0.
          5    1    3    3  501    0  0.29775562174E+02  0.15474282630E+02  0.85027670247E+03  0.85095158399E+03  0.47000000000E+01 0. -1.
        -11    1    4    4    0    0 -0.25020878911E+01  0.53280082781E+02  0.14886556367E+03  0.15813280403E+03  0.00000000000E+00 0.  1.
         12    1    4    4    0    0 -0.14787871672E+02 -0.27577405483E+02  0.12552791105E+03  0.12936943571E+03  0.00000000000E+00 0. -1.
         -5    1    5    5    0  502 -0.38457036831E+02 -0.29038356142E+02  0.72043696082E+02  0.86801808474E+02  0.47000000000E+01 0.  1.
         13    1    6    6    0    0  0.61897051548E+01  0.34349097389E+02  0.26186144324E+03  0.26417719129E+03  0.00000000000E+00 0. -1.
        -14    1    6    6    0    0  0.19781729065E+02 -0.46487701175E+02  0.44184506562E+03  0.44472405510E+03  0.00000000000E+00 0.  1.
</event>
<event>
12    1  0.8406581E-002  0.1809932E+03  0.7818608E-02  0.1167586E+00
         21   -1    0    0  503  502  0.00000000000E+00  0.00000000000E+00  0.63989264645E+03  0.63989264645E+03  0.00000000000E+00 0.  1.
         21   -1    0    0  501  503 -0.00000000000E+00 -0.00000000000E+00 -0.90041777220E+02  0.90041777220E+02  0.00000000000E+00 0.  1.
          6    2    1    2  501    0  0.43685531074E+02  0.12627705913E+02  0.31254664601E+02  0.18066165317E+03  0.17202876005E+03 0.  0.
         24    2    3    3    0    0  0.54338146818E+02 -0.42478756936E+02  0.58265247182E+02  0.11819676670E+03  0.76279470623E+02 0.  0.
         -6    2    1    2    0  502 -0.43685531074E+02 -0.12627705913E+02  0.51859620463E+03  0.54927277050E+03  0.17518752347E+03 0.  0.
        -24    2    5    5    0    0 -0.36121885391E+02  0.72586425389E+01  0.52079517028E+03  0.52737297506E+03  0.74412142422E+02 0.  0.
          5    1    3    3  501    0 -0.10652615744E+02  0.55106462849E+02 -0.27010582581E+02  0.62464886467E+02  0.47000000000E+01 0. -1.
        -13    1    4    4    0    0  0.27577244114E+02  0.98950654081E+01 -0.72217814911E+01  0.30175666360E+02  0.00000000000E+00 0.  1.
         14    1    4    4    0    0  0.26760902703E+02 -0.52373822344E+02  0.65487028673E+02  0.88021100339E+02  0.00000000000E+00 0. -1.
         -5    1    5    5    0  502 -0.75636456830E+01 -0.19886348452E+02 -0.21989656471E+01  0.21899795449E+02  0.47000000000E+01 0.  1.
         11    1    6    6    0    0 -0.34633836367E+02 -0.13723298003E+02  0.11192349706E+03  0.11796058970E+03  0.00000000000E+00 0. -1.
        -12    1    6    6    0    0 -0.14880490240E+01  0.20981940542E+02  0.40887167322E+03  0.40941238535E+03  0.00000000000E+00 0.  1.
</event>
<event>
12    1  0.8406581E-002  0.1928759E+03  0.7818608E-02  0.1156287E+00
         21   -1    0    0  501  502  0.00000000000E+00  0.00000000000E+00  0.28572175307E+03  0.28572175307E+03  0.00000000000E+00 0.  1.
         21   -1    0    0  502  503 -0.00000000000E+00 -0.00000000000E+00 -0.53061943928E+03  0.53061943928E+03  0.00000000000E+00 0.  1.
         -6    2    1    2    0  503 -0.15364035513E+01  0.81143624330E+02 -0.47741396416E+03  0.51424029818E+03  0.17300966096E+03 0.  0.
        -24    2    3    3    0    0  0.33500059785E+02  0.24449668178E+02 -0.40696211255E+03  0.41714595322E+03  0.81685647176E+02 0.  0.
          6    2    1    2  501    0  0.15364035513E+01 -0.81143624330E+02  0.23251627796E+03  0.30210089418E+03  0.17496994726E+03 0.  0.
         24    2    5    5    0    0  0.39817525255E+02 -0.61995456679E+02  0.23512692331E+03  0.25896156094E+03  0.79671500634E+02 0.  0.
          5    1    5    5  501    0 -0.38281121704E+02 -0.19148167652E+02 -0.26106453522E+01  0.43139333241E+02  0.47000000000E+01 0. -1.
        -11    1    6    6    0    0 -0.37749725968E+01 -0.14821637724E+02  0.15734611487E+03  0.15808773269E+03  0.00000000000E+00 0.  1.
         12    1    6    6    0    0  0.43592497852E+02 -0.47173818955E+02  0.77780808435E+02  0.10087382824E+03  0.00000000000E+00 0. -1.
         -5    1    3    3    0  503 -0.35036463336E+02  0.56693956152E+02 -0.70451851612E+02  0.97094344958E+02  0.47000000000E+01 0.  1.
         13    1    4    4    0    0  0.60513268395E+02  0.12342411283E+02 -0.26030513576E+03  0.26753122149E+03  0.00000000000E+00 0. -1.
        -14    1    4    4    0    0 -0.27013208611E+02  0.12107256896E+02 -0.14665697679E+03  0.14961473173E+03  0.00000000000E+00 0.  1.
</event>
<event>
12    1  0.8406581E-002  0.2298360E+03  0.7818608E-02  0.1126781E+00
         21   -1    0    0  501  502  0.00000000000E+00  0.00000000000E+00  0.43285471530E+03  0.43285471530E+03  0.00000000000E+00 0. -1.
         21   -1    0    0  502  503 -0.00000000000E+00 -0.00000000000E+00 -0.41015895569E+03  0.41015895569E+03  0.00000000000E+00 0. -1.
         -6    2    1    2    0  503  0.12537612422E+02  0.15303095691E+03 -0.34197640438E+03  0.41203450763E+03  0.17102312364E+03 0.  0.
        -24    2    3    3    0    0  0.20999476041E+02  0.94119850887E+02 -0.94032393582E+02  0.15700422699E+03  0.80676588452E+02 0.  0.
          6    2    1    2  501    0 -0.12537612422E+02 -0.15303095691E+03  0.36467216399E+03  0.43097916336E+03  0.17082618815E+03 0.  0.
         24    2    5    5    0    0  0.37729759228E+02 -0.13454811577E+03  0.33138538453E+03  0.36774528196E+03  0.76769714985E+02 0.  0.
          5    1    5    5  501    0 -0.50267371650E+02 -0.18482841146E+02  0.33286779467E+02  0.63233881398E+02  0.47000000000E+01 0. -1.
        -13    1    6    6    0    0  0.18906027205E+02 -0.49431578545E+01  0.12984455550E+02  0.23462070671E+02  0.00000000000E+00 0.  1.
         14    1    6    6    0    0  0.18823732023E+02 -0.12960495791E+03  0.31840092898E+03  0.34428321129E+03  0.00000000000E+00 0. -1.
         -5    1    3    3    0  503 -0.84618636189E+01  0.58911106025E+02 -0.24794401080E+03  0.25503028064E+03  0.47000000000E+01 0.  1.
         11    1    4    4    0    0  0.12692608138E+02  0.65332435654E+02 -0.10565283748E+03  0.12486773610E+03  0.00000000000E+00 0. -1.
        -12    1    4    4    0    0  0.83068679032E+01  0.28787415233E+02  0.11620443903E+02  0.32136490889E+02  0.00000000000E+00 0.  1.
</event>
<event>
12    1  0.8406581E-002  0.1815984E+03  0.7818608E-02  0.1166379E+00
         21   -1    0    0  501  502  0.00000000000E+00  0.00000000000E+00  0.81435739777E+02  0.81435739777E+02  0.00000000000E+00 0.  1.
         21   -1    0    0  502  503 -0.00000000000E+00 -0.00000000000E+00 -0.40692981594E+03  0.40692981594E+03  0.00000000000E+00 0.  1.
         -6    2    1    2    0  503  0.26314826658E+02 -0.52775264210E+02 -0.18403837654E+03  0.25855001304E+03  0.17175647466E+03 0.  0.
        -24    2    3    3    0    0 -0.20233331485E+02 -0.64774206533E+02 -0.18283942743E+03  0.21023611108E+03  0.78510385571E+02 0.  0.
          6    2    1    2  501    0 -0.26314826658E+02  0.52775264210E+02 -0.14145569962E+03  0.22981554268E+03  0.17125352576E+03 0.  0.
         24    2    5    5    0    0  0.99185454782E+01 -0.34114664014E+02 -0.57330214890E+02  0.10347511342E+03  0.78473930152E+02 0.  0.
          5    1    5    5  501    0 -0.36233372136E+02  0.86889928223E+02 -0.84125484730E+02  0.12634042925E+03  0.47000000000E+01 0. -1.
        -11    1    6    6    0    0  0.16312629958E+02  0.13134019753E+02  0.81520732039E+01  0.22473554871E+02  0.00000000000E+00 0.  1.
         12    1    6    6    0    0 -0.63940844800E+01 -0.47248683766E+02 -0.65482288094E+02  0.81001558553E+02  0.00000000000E+00 0. -1.
         -5    1    3    3    0  503  0.46548158143E+02  0.11998942323E+02 -0.11989491067E+01  0.48313901957E+02  0.47000000000E+01 0.  1.
         11    1    4    4    0    0 -0.43084581104E+02 -0.12654771574E+02 -0.10124245113E+03  0.11075404410E+03  0.00000000000E+00 0. -1.
        -12    1    4    4    0    0  0.22851249619E+02 -0.52119434959E+02 -0.81596976301E+02  0.99482066983E+02  0.00000000000E+00 0.  1.
</event>
<event>
12    1  0.8406581E-002  0.1823810E+03  0.7818608E-02  0.1166616E+00
         21   -1    0    0  501  502  0.00000000000E+00  0.00000000000E+00  0.39352451621E+03  0.39352451621E+03  0.00000000000E+00 0. -1.
         21   -1    0    0  502  503 -0.00000000000E+00 -0.00000000000E+00 -0.10889111707E+03  0.10889111707E+03  0.00000000000E+00 0. -1.
         -6    2    1    2    0  503 -0.31806682456E+02  0.40116765053E+02  0.19849474199E+02  0.18345801704E+03  0.17504805770E+03 0.  0.
        -24    2    3    3    0    0 -0.33420286432E+02 -0.18533292675E+02  0.64728723251E+02  0.10943997880E+03  0.79541830908E+02 0.  0.
          6    2    1    2  501    0  0.31806682456E+02 -0.40116765053E+02  0.26478392493E+03  0.31895761624E+03  0.17030095175E+03 0.  0.
         24    2    5    5    0    0  0.30783879399E+02  0.32322958529E+02  0.78995833994E+02  0.11948866022E+03  0.77748165602E+02 0.  0.
          5    1    5    5  501    0  0.10228030568E+01 -0.72439723582E+02  0.18578809094E+03  0.19946895602E+03  0.47000000000E+01 0. -1.
        -11    1    6    6    0    0 -0.20813478062E+02  0.27035377722E+02  0.48568313663E+02  0.59354811175E+02  0.00000000000E+00 0.  1.
         12    1    6    6    0    0  0.51597357461E+02  0.52875808077E+01  0.30427520331E+02  0.60133849047E+02  0.00000000000E+00 0. -1.
         -5    1    3    3    0  503  0.16136039754E+01  0.58650057728E+02 -0.44879249052E+02  0.74018038239E+02  0.47000000000E+01 0.  1.
         11    1    4    4    0    0 -0.47003902986E+02  0.12640780940E+02  0.56266153428E+02  0.74397824298E+02  0.00000000000E+00 0. -1.
        -12    1    4    4    0    0  0.13583616554E+02 -0.31174073614E+02  0.84625698232E+01  0.35042154506E+02  0.00000000000E+00 0.  1.
</event>
<event>
12    1  0.8406581E-002  0.1884199E+03  0.7818608E-02  0.1160150E+00
         21   -1    0    0  503  502  0.00000000000E+00  0.00000000000E+00  0.65776285310E+03  0.65776285310E+03  0.00000000000E+00 0. -1.
         21   -1    0    0  501  503 -0.00000000000E+00 -0.00000000000E+00 -0.16197073299E+03  0.16197073299E+03  0.00000000000E+00 0. -1.
          6    2    1    2  501    0  0.75389575367E+02 -0.13378383068E+02 -0.87034510693E+02  0.20755011298E+03  0.17216118651E+03 0.  0.
         24    2    3    3    0    0  0.96091767942E+02 -0.51385399536E+02 -0.34483480372E+02  0.13930925377E+03  0.79648418786E+02 0.  0.
         -6    2    1    2    0  502 -0.75389575367E+02  0.13378383068E+02  0.58282663080E+03  0.61218347311E+03  0.17093611080E+03 0.  0.
        -24    2    5    5    0    0 -0.66143899979E+02  0.64642718715E+02  0.49476231959E+03  0.50975824414E+03  0.80684682493E+02 0.  0.
          5    1    3    3  501    0 -0.20702192576E+02  0.38007016468E+02 -0.52551030321E+02  0.68240859212E+02  0.47000000000E+01 0. -1.
        -13    1    4    4    0    0 -0.84229790930E+01  0.10393526720E+02 -0.56618789134E+01  0.14526831978E+02  0.00000000000E+00 0.  1.
         14    1    4    4    0    0  0.10451474704E+03 -0.61778926256E+02 -0.28821601459E+02  0.12478242179E+03  0.00000000000E+00 0. -1.
         -5    1    5    5    0  502 -0.92456753876E+01 -0.51264335647E+02  0.88064311208E+02  0.10242522898E+03  0.47000000000E+01 0.  1.
         11    1    6    6    0    0 -0.31059122433E+02  0.31652542599E+02  0.74157923727E+02  0.86405730081E+02  0.00000000000E+00 0. -1.
        -12    1    6    6    0    0 -0.35084777546E+02  0.32990176116E+02  0.42060439586E+03  0.42335251405E+03  0.00000000000E+00 0.  1.
</event>
<event>
12    1  0.8406581E-002  0.2092751E+03  0.7818608E-02  0.1142424E+00
         21   -1    0    0  501  502  0.00000000000E+00  0.00000000000E+00  0.92735810016E+02  0.92735810016E+02  0.00000000000E+00 0.  1.
         21   -1    0    0  502  503 -0.00000000000E+00 -0.00000000000E+00 -0.49504312208E+03  0.49504312208E+03  0.00000000000E+00 0.  1.
         -6    2    1    2    0  503  0.11084286709E+03  0.41681042080E+02 -0.26911635606E+03  0.34091007448E+03  0.17254742922E+03 0.  0.
        -24    2    3    3    0    0  0.53591453309E+02 -0.45310700231E+02 -0.16049183733E+03  0.19035555386E+03  0.74515123388E+02 0.  0.
          6    2    1    2  501    0 -0.11084286709E+03 -0.41681042080E+02 -0.13319095600E+03  0.24686885761E+03  0.17082432978E+03 0.  0.
         24    2    5    5    0    0 -0.14592717086E+03 -0.45057067650E+02 -0.10582819213E+03  0.20200108782E+03  0.79246165139E+02 0.  0.
          5    1    5    5  501    0  0.35084303770E+02  0.33760255705E+01 -0.27362763864E+02  0.44867769790E+02  0.47000000000E+01 0. -1.
        -11    1    6    6    0    0 -0.10539357539E+03 -0.90994966983E+01 -0.10314882414E+03  0.14775075802E+03  0.00000000000E+00 0.  1.
         12    1    6    6    0    0 -0.40533595466E+02 -0.35957570952E+02 -0.26793679926E+01  0.54250329797E+02  0.00000000000E+00 0. -1.
         -5    1    3    3    0  503  0.57251413780E+02  0.86991742311E+02 -0.10862451873E+03  0.15055452062E+03  0.47000000000E+01 0.  1.
         13    1    4    4    0    0  0.25886255217E+02 -0.33640156805E+02 -0.15380918705E+03  0.15955884300E+03  0.00000000000E+00 0. -1.
        -14    1    4    4    0    0  0.27705198091E+02 -0.11670543426E+02 -0.66826502818E+01  0.30796710862E+02  0.00000000000E+00 0.  1.
</event>
<event>
12    1  0.8406581E-002  0.1740524E+03  0.7818608E-02  0.1178096E+00
         21   -1    0    0  501  502  0.00000000000E+00  0.00000000000E+00  0.53179942720E+02  0.53179942720E+02  0.00000000000E+00 0.  1.
         21   -1    0    0  502  503 -0.00000000000E+00 -0.00000000000E+00 -0.12564296054E+04  0.12564296054E+04  0.00000000000E+00 0.  1.
         -6    2    1    2    0  503  0.33899261801E+02 -0.13088815869E+02 -0.10914198845E+04  0.11027275939E+04  0.15326547186E+03 0.  0.
        -24    2    3    3    0    0  0.62392989835E+02  0.24960688929E+02 -0.84558639814E+03  0.85229626518E+03  0.82925543439E+02 0.  0.
          6    2    1    2  501    0 -0.33899261801E+02  0.13088815869E+02 -0.11182977811E+03  0.20688195422E+03  0.17021682249E+03 0.  0.
         24    2    5    5    0    0 -0.26694784835E+02  0.74954838575E+01  0.69149411980E+01  0.87694756018E+02  0.82908141974E+02 0.  0.
          5    1    5    5  501    0 -0.72044769655E+01  0.55933320116E+01 -0.11874471931E+03  0.11918719820E+03  0.47000000000E+01 0. -1.
        -11    1    6    6    0    0  0.27082109624E+02 -0.88742727554E+01 -0.78777641322E+01  0.29567761943E+02  0.00000000000E+00 0.  1.
         12    1    6    6    0    0 -0.53776894459E+02  0.16369756613E+02  0.14792705330E+02  0.58126994075E+02  0.00000000000E+00 0. -1.
         -5    1    3    3    0  503 -0.28493728034E+02 -0.38049504798E+02 -0.24583348639E+03  0.25043132868E+03  0.47000000000E+01 0.  1.
         11    1    4    4    0    0  0.74400324572E+01 -0.96059941509E+01 -0.15593827290E+02  0.19768577494E+02  0.00000000000E+00 0. -1.
        -12    1    4    4    0    0  0.54952957377E+02  0.34566683080E+02 -0.82999257085E+03  0.83252768769E+03  0.00000000000E+00 0.  1.
</event>
<event>
12    1  0.8406581E-002  0.2261394E+03  0.7818608E-02  0.1130563E+00
         21   -1    0    0  501  502  0.00000000000E+00  0.00000000000E+00  0.10632121653E+03  0.10632121653E+03  0.00000000000E+00 0. -1.
         21   -1    0    0  502  503 -0.00000000000E+00 -0.00000000000E+00 -0.49196658752E+03  0.49196658752E+03  0.00000000000E+00 0.  1.
         -6    2    1    2    0  503  0.11034132870E+02 -0.13513644163E+03 -0.25702635636E+03  0.33813041364E+03  0.17287573231E+03 0.  0.
        -24    2    3    3    0    0  0.78951990403E+01 -0.14856002243E+03 -0.27034075538E+03  0.31839697379E+03  0.78486269290E+02 0.  0.
          6    2    1    2  501    0 -0.11034132870E+02  0.13513644163E+03 -0.12861901464E+03  0.26015739041E+03  0.18098454883E+03 0.  0.
         24    2    5    5    0    0  0.12280480119E+02  0.59652847578E+02 -0.15274651545E+03  0.17741942787E+03  0.66609931612E+02 0.  0.
          5    1    5    5  501    0 -0.23314612989E+02  0.75483594055E+02  0.24127500806E+02  0.82737962541E+02  0.47000000000E+01 0. -1.
        -13    1    6    6    0    0 -0.13642578723E+01 -0.10139694818E+02 -0.58314969306E+02  0.59205660672E+02  0.00000000000E+00 0.  1.
         14    1    6    6    0    0  0.13644737992E+02  0.69792542396E+02 -0.94431546141E+02  0.11821376720E+03  0.00000000000E+00 0. -1.
         -5    1    3    3    0  503  0.31389338294E+01  0.13423580798E+02  0.13314399021E+02  0.19733439850E+02  0.47000000000E+01 0.  1.
         13    1    4    4    0    0 -0.30329255651E+02 -0.10044021245E+03 -0.19234371295E+03  0.21909861692E+03  0.00000000000E+00 0. -1.
        -14    1    4    4    0    0  0.38224454692E+02 -0.48119809985E+02 -0.77997042424E+02  0.99298356867E+02  0.00000000000E+00 0.  1.
</event>
<event>
12    1  0.8406581E-002  0.1734135E+03  0.7818608E-02  0.1174708E+00
         21   -1    0    0  501  502  0.00000000000E+00  0.00000000000E+00  0.13877482440E+03  0.13877482440E+03  0.00000000000E+00 0. -1.
         21   -1    0    0  502  503 -0.00000000000E+00 -0.00000000000E+00 -0.21650057609E+03  0.21650057609E+03  0.00000000000E+00 0. -1.
         -6    2    1    2    0  503  0.20668472694E+02 -0.24957633930E+01 -0.23285629159E+02  0.17351743648E+03  0.17068293892E+03 0.  0.
        -24    2    3    3    0    0 -0.27792720716E+02 -0.32913925963E+02 -0.55748494803E+02  0.10756533624E+03  0.81281271148E+02 0.  0.
          6    2    1    2  501    0 -0.20668472694E+02  0.24957633930E+01 -0.54440122532E+02  0.18175796402E+03  0.17215927493E+03 0.  0.
         24    2    5    5    0    0  0.17699650326E+02 -0.50313504972E+02 -0.62219455367E+02  0.11585242776E+03  0.81888936912E+02 0.  0.
          5    1    5    5  501    0 -0.38368123020E+02  0.52809268365E+02  0.77793328345E+01  0.65905536252E+02  0.47000000000E+01 0. -1.
        -13    1    6    6    0    0 -0.12410365950E+02 -0.54044835086E+02 -0.11318180895E+02  0.56594722380E+02  0.00000000000E+00 0.  1.
         14    1    6    6    0    0  0.30110016276E+02  0.37313301139E+01 -0.50901274472E+02  0.59257705385E+02  0.00000000000E+00 0. -1.
         -5    1    3    3    0  503  0.48461193410E+02  0.30418162570E+02  0.32462865644E+02  0.65952100244E+02  0.47000000000E+01 0.  1.
         11    1    4    4    0    0  0.20038385348E+02 -0.28303905724E+02 -0.96375162250E+00  0.34692604165E+02  0.00000000000E+00 0. -1.
        -12    1    4    4    0    0 -0.47831106064E+02 -0.46100202394E+01 -0.54784743180E+02  0.72872732070E+02  0.00000000000E+00 0.  1.
</event>
<event>
12    1  0.8406581E-002  0.1856621E+03  0.7818608E-02  0.1162756E+00
         21   -1    0    0  501  502  0.00000000000E+00  0.00000000000E+00  0.26093299194E+03  0.26093299194E+03  0.00000000000E+00 0.  1.
         21   -1    0    0  502  503 -0.00000000000E+00 -0.00000000000E+00 -0.13315174900E+03  0.13315174900E+03  0.00000000000E+00 0.  1.
         -6    2    1    2    0  503  0.58082752729E+02  0.36876559670E+02  0.39786183172E+02  0.18987725141E+03  0.17244402980E+03 0.  0.
        -24    2    3    3    0    0  0.95903579195E+02  0.38542776086E+02  0.62892270142E+02  0.14527711187E+03  0.80417407931E+02 0.  0.
          6    2    1    2  501    0 -0.58082752729E+02 -0.36876559670E+02  0.87995059766E+02  0.20420748953E+03  0.17095052331E+03 0.  0.
         24    2    5    5    0    0 -0.84294247621E+02 -0.72655733959E+02  0.89225651215E+02  0.15958915101E+03  0.71575864826E+02 0.  0.
          5    1    5    5  501    0  0.26211494892E+02  0.35779174289E+02 -0.12305914488E+01  0.44618338523E+02  0.47000000000E+01 0. -1.
        -11    1    6    6    0    0 -0.71879811790E+02 -0.27372680343E+02  0.81394257799E+02  0.11198658926E+03  0.00000000000E+00 0.  1.
         12    1    6    6    0    0 -0.12414435831E+02 -0.45283053616E+02  0.78313934159E+01  0.47602561745E+02  0.00000000000E+00 0. -1.
         -5    1    3    3    0  503 -0.37820826465E+02 -0.16662164159E+01 -0.23106086970E+02  0.44600139537E+02  0.47000000000E+01 0.  1.
         13    1    4    4    0    0 -0.98021021374E+01 -0.24909800415E+01  0.22911341308E+02  0.25044275761E+02  0.00000000000E+00 0. -1.
        -14    1    4    4    0    0  0.10570568133E+03  0.41033756127E+02  0.39980928834E+02  0.12023283611E+03  0.00000000000E+00 0.  1.
</event>
<event>
12    1  0.8406581E-002  0.1777950E+03  0.7818608E-02  0.1170396E+00
         21   -1    0    0  501  502  0.00000000000E+00  0.00000000000E+00  0.11034531062E+04  0.11034531062E+04  0.00000000000E+00 0. -1.
         21   -1    0    0  502  503 -0.00000000000E+00 -0.00000000000E+00 -0.29812971361E+02  0.29812971361E+02  0.00000000000E+00 0. -1.
         -6    2    1    2    0  503  0.39647136059E+02  0.21003458876E+02  0.40915661371E+03  0.44540751326E+03  0.17019305993E+03 0.  0.
        -24    2    3    3    0    0 -0.35343173785E+02  0.31089797506E+02  0.28976778770E+03  0.30398240032E+03  0.78893684599E+02 0.  0.
          6    2    1    2  501    0 -0.39647136059E+02 -0.21003458876E+02  0.66448352115E+03  0.68785856431E+03  0.17204073337E+03 0.  0.
         24    2    5    5    0    0  0.42182168550E+02 -0.15444189213E+02  0.25093734585E+03  0.26623139527E+03  0.76757709455E+02 0.  0.
          5    1    5    5  501    0 -0.81829304610E+02 -0.55592696626E+01  0.41354617530E+03  0.42162716905E+03  0.47000000000E+01 0. -1.
        -13    1    6    6    0    0  0.16269690517E+02 -0.12661525366E+02  0.83412505087E+01  0.22239458495E+02  0.00000000000E+00 0.  1.
         14    1    6    6    0    0  0.25912478033E+02 -0.27826638467E+01  0.24259609534E+03  0.24399193677E+03  0.00000000000E+00 0. -1.
         -5    1    3    3    0  503  0.74990309844E+02 -0.10086338631E+02  0.11938882600E+03  0.14142511295E+03  0.47000000000E+01 0.  1.
         13    1    4    4    0    0 -0.49659797591E+02  0.17576947007E+02  0.98479381821E+02  0.11168362999E+03  0.00000000000E+00 0. -1.
        -14    1    4    4    0    0  0.14316623806E+02  0.13512850500E+02  0.19128840588E+03  0.19229877033E+03  0.00000000000E+00 0.  1.
</event>
<event>
12    1  0.8406581E-002  0.2750528E+03  0.7818608E-02  0.1098720E+00
         21   -1    0    0  503  502  0.00000000000E+00  0.00000000000E+00  0.75534047476E+03  0.75534047476E+03  0.00000000000E+00 0.  1.
         21   -1    0    0  501  503 -0.00000000000E+00 -0.00000000000E+00 -0.10932651004E+03  0.10932651004E+03  0.00000000000E+00 0. -1.
          6    2    1    2  501    0  0.14385375039E+03 -0.15558257638E+03  0.45450692529E+03  0.53125381091E+03  0.17536883104E+03 0.  0.
         24    2    3    3    0    0  0.18589031410E+01 -0.51620135277E+02  0.13671425011E+03  0.16795641180E+03  0.82767603537E+02 0.  0.
         -6    2    1    2    0  502 -0.14385375039E+03  0.15558257638E+03  0.19150703944E+03  0.33341317389E+03  0.17201615854E+03 0.  0.
        -24    2    5    5    0    0 -0.12204457289E+03  0.61369474978E+02  0.55900101106E+02  0.16679060512E+03  0.77673640465E+02 0.  0.
          5    1    3    3  501    0  0.14199484724E+03 -0.10396244111E+03  0.31779267518E+03  0.36329739911E+03  0.47000000000E+01 0. -1.
        -13    1    4    4    0    0 -0.25395814691E+02 -0.61411802969E+02  0.77873925853E+02  0.10237531575E+03  0.00000000000E+00 0.  1.
         14    1    4    4    0    0  0.27254717832E+02  0.97916676926E+01  0.58840324256E+02  0.65581096047E+02  0.00000000000E+00 0. -1.
         -5    1    5    5    0  502 -0.21809177495E+02  0.94213101405E+02  0.13560693833E+03  0.16662256877E+03  0.47000000000E+01 0.  1.
         11    1    6    6    0    0 -0.97102846276E+02  0.48742661103E+02  0.75797662054E+02  0.13247677283E+03  0.00000000000E+00 0. -1.
        -12    1    6    6    0    0 -0.24941726614E+02  0.12626813875E+02 -0.19897560948E+02  0.34313832296E+02  0.00000000000E+00 0.  1.
</event>
<event>
12    1  0.8406581E-002  0.2001281E+03  0.7818608E-02  0.1149755E+00
         21   -1    0    0  503  502  0.00000000000E+00  0.00000000000E+00  0.45409860201E+03  0.45409860201E+03  0.00000000000E+00 0. -1.
         21   -1    0    0  501  503 -0.00000000000E+00 -0.00000000000E+00 -0.88046529638E+02  0.88046529638E+02  0.00000000000E+00 0. -1.
          6    2    1    2  501    0 -0.98858838382E+02 -0.22927034840E+02  0.19215708147E+03  0.27702118487E+03  0.17180708384E+03 0.  0.
         24    2    3    3    0    0 -0.63245341317E+02  0.29249204082E+02  0.40679738199E+02  0.11283179239E+03  0.78871307429E+02 0.  0.
         -6    2    1    2    0  502  0.98858838382E+02  0.22927034840E+02  0.17389499091E+03  0.26512394678E+03  0.17248918934E+03 0.  0.
        -24    2    5    5    0    0  0.11765443858E+03  0.55408353085E+02  0.10180717803E+03  0.18371723091E+03  0.80465315063E+02 0.  0.
          5    1    3    3  501    0 -0.35613497065E+02 -0.52176238922E+02  0.15147734327E+03  0.16418939249E+03  0.47000000000E+01 0. -1.
        -11    1    4    4    0    0  0.13630701055E+02  0.21371122700E+02 -0.32110031145E+00  0.25350029627E+02  0.00000000000E+00 0.  1.
         12    1    4    4    0    0 -0.76876042371E+02  0.78780813825E+01  0.41000838510E+02  0.87481762760E+02  0.00000000000E+00 0. -1.
         -5    1    5    5    0  502 -0.18795600197E+02 -0.32481318244E+02  0.72087812879E+02  0.81406715862E+02  0.47000000000E+01 0.  1.
         13    1    6    6    0    0  0.77904211156E+02  0.72774218062E+02  0.87876237357E+02  0.13815710630E+03  0.00000000000E+00 0. -1.
        -14    1    6    6    0    0  0.39750227422E+02 -0.17365864977E+02  0.13930940671E+02  0.45560124610E+02  0.00000000000E+00 0.  1.
</event>
<event>
12    1  0.8406581E-002  0.2641928E+03  0.7818608E-02  0.1104820E+00
         21   -1    0    0  503  502  0.00000000000E+00  0.00000000000E+00  0.83404053205E+03  0.83404053205E+03  0.00000000000E+00 0. -1.
         21   -1    0    0  501  503 -0.00000000000E+00 -0.00000000000E+00 -0.28559976537E+03  0.28559976537E+03  0.00000000000E+00 0. -1.
          6    2    1    2  501    0  0.12571249009E+03  0.15437687858E+03 -0.19673817984E+03  0.32939908909E+03  0.17367209816E+03 0.  0.
         24    2    3    3    0    0  0.58134005770E+02  0.10978953094E+02 -0.67422416538E+02  0.12476655693E+03  0.86722612041E+02 0.  0.
         -6    2    1    2    0  502 -0.12571249009E+03 -0.15437687858E+03  0.74517894652E+03  0.79024120833E+03  0.17191176284E+03 0.  0.
        -24    2    5    5    0    0 -0.12507545139E+03 -0.16500963630E+03  0.74658492070E+03  0.77851397002E+03  0.76307988342E+02 0.  0.
          5    1    3    3  501    0  0.67578484317E+02  0.14339792548E+03 -0.12931576331E+03  0.20463253215E+03  0.47000000000E+01 0. -1.
        -13    1    4    4    0    0 -0.17932852852E+01  0.22922916974E+02  0.10884624093E+02  0.25439163437E+02  0.00000000000E+00 0.  1.
         14    1    4    4    0    0  0.59927291055E+02 -0.11943963880E+02 -0.78307040631E+02  0.99327393496E+02  0.00000000000E+00 0. -1.
         -5    1    5    5    0  502 -0.63703869851E+00  0.10632757723E+02 -0.14059741765E+01  0.11727238315E+02  0.47000000000E+01 0.  1.
         13    1    6    6    0    0 -0.45724081946E+02 -0.15854140006E+02  0.22881409609E+03  0.23387589871E+03  0.00000000000E+00 0. -1.
        -14    1    6    6    0    0 -0.79351369442E+02 -0.14915549630E+03  0.51777082461E+03  0.54463807131E+03  0.00000000000E+00 0.  1.
</event>
<event>
12    1  0.8406581E-002  0.1866443E+03  0.7818608E-02  0.1161534E+00
         21   -1    0    0  501  502  0.00000000000E+00  0.00000000000E+00  0.57149118048E+02  0.57149118048E+02  0.00000000000E+00 0.  1.
         21   -1    0    0  502  503 -0.00000000000E+00 -0.00000000000E+00 -0.68998469383E+03  0.68998469383E+03  0.00000000000E+00 0.  1.
         -6    2    1    2    0  503  0.28426486121E+02 -0.68783057751E+02 -0.44411311593E+03  0.48173909206E+03  0.17116342755E+03 0.  0.
        -24    2    3    3    0    0 -0.30827222671E+01 -0.71767753723E+02 -0.43541538943E+03  0.44858069841E+03  0.80485824713E+02 0.  0.
          6    2    1    2  501    0 -0.28426486121E+02  0.68783057751E+02 -0.18872245985E+03  0.26539471982E+03  0.17111112269E+03 0.  0.
         24    2    5    5    0    0  0.29451636410E+02 -0.13629870060E+02 -0.91170510164E+02  0.12510843886E+03  0.79289894088E+02 0.  0.
          5    1    5    5  501    0 -0.57878122531E+02  0.82412927812E+02 -0.97551949687E+02  0.14028628096E+03  0.47000000000E+01 0. -1.
        -11    1    6    6    0    0 -0.11711309522E+02  0.22124620157E+02 -0.92190443995E+01  0.26676663349E+02  0.00000000000E+00 0.  1.
         12    1    6    6    0    0  0.41162945932E+02 -0.35754490218E+02 -0.81951465764E+02  0.98431775507E+02  0.00000000000E+00 0. -1.
         -5    1    3    3    0  503  0.31509208388E+02  0.29846959715E+01 -0.86977264985E+01  0.33158393651E+02  0.47000000000E+01 0.  1.
         11    1    4    4    0    0 -0.23229808837E+02 -0.32067757243E+02 -0.35024838791E+03  0.35247964240E+03  0.00000000000E+00 0. -1.
        -12    1    4    4    0    0  0.20147086570E+02 -0.39699996480E+02 -0.85167001527E+02  0.96101056013E+02  0.00000000000E+00 0.  1.
</event>
<event>
12    1  0.8406581E-002  0.1904794E+03  0.7818608E-02  0.1159683E+00
         21   -1    0    0  503  502  0.00000000000E+00  0.00000000000E+00  0.19290542653E+03  0.19290542653E+03  0.00000000000E+00 0.  1.
         21   -1    0    0  501  503 -0.00000000000E+00 -0.00000000000E+00 -0.18193813442E+03  0.18193813442E+03  0.00000000000E+00 0.  1.
          6    2    1    2  501    0  0.31776431642E+02  0.70112307195E+02  0.18582726565E+02  0.18421198031E+03  0.16632275471E+03 0.  0.
         24    2    3    3    0    0  0.60053360855E+02  0.86613133669E+02 -0.17899787875E+02  0.13496844409E+03  0.82388333031E+02 0.  0.
         -6    2    1    2    0  502 -0.31776431642E+02 -0.70112307195E+02 -0.76154344519E+01  0.19063158064E+03  0.17423239500E+03 0.  0.
        -24    2    5    5    0    0  0.20942702715E+02 -0.99525505173E+02 -0.15964617958E+02  0.12950677219E+03  0.78569790885E+02 0.  0.
          5    1    3    3  501    0 -0.28276929212E+02 -0.16500826474E+02  0.36482514440E+02  0.49243536224E+02  0.47000000000E+01 0. -1.
        -13    1    4    4    0    0  0.75574335233E+01  0.80428074861E+02 -0.13778508007E+02  0.81948992124E+02  0.00000000000E+00 0.  1.
         14    1    4    4    0    0  0.52495927331E+02  0.61850588087E+01 -0.41212798679E+01  0.53019451964E+02  0.00000000000E+00 0. -1.
         -5    1    5    5    0  502 -0.52719134357E+02  0.29413197978E+02  0.83491835062E+01  0.61124808449E+02  0.47000000000E+01 0.  1.
         11    1    6    6    0    0  0.36203783026E+02 -0.52481381814E+02 -0.39219924808E+02  0.74854604698E+02  0.00000000000E+00 0. -1.
        -12    1    6    6    0    0 -0.15261080312E+02 -0.47044123359E+02  0.23255306850E+02  0.54652167492E+02  0.00000000000E+00 0.  1.
</event>
<event>
12    1  0.8406581E-002  0.1757687E+03  0.7818608E-02  0.1172470E+00
         21   -1    0    0  503  502  0.00000000000E+00  0.00000000000E+00  0.56604742607E+03  0.56604742607E+03  0.00000000000E+00 0.  1.
         21   -1    0    0  501  503 -0.00000000000E+00 -0.00000000000E+00 -0.54515401217E+02  0.54515401217E+02  0.00000000000E+00 0.  1.
          6    2    1    2  501    0 -0.22139343218E+02 -0.20688009664E+02  0.22573356200E+03  0.28609485123E+03  0.17313716709E+03 0.  0.
         24    2    3    3    0    0  0.47640181855E+02  0.96464857102E+01  0.87852308505E+02  0.12854265736E+03  0.80265466031E+02 0.  0.
         -6    2    1    2    0  502  0.22139343218E+02  0.20688009664E+02  0.28579846285E+03  0.33446797605E+03  0.17108454452E+03 0.  0.
        -24    2    5    5    0    0 -0.20523404350E+02 -0.67010548656E+01  0.26774299795E+03  0.28044612215E+03  0.80607693287E+02 0.  0.
          5    1    3    3  501    0 -0.69779525074E+02 -0.30334495374E+02  0.13788125350E+03  0.15755219388E+03  0.47000000000E+01 0. -1.
        -13    1    4    4    0    0  0.19785483508E+02 -0.35444609211E+02  0.42706801584E+02  0.58920765281E+02  0.00000000000E+00 0.  1.
         14    1    4    4    0    0  0.27854698347E+02  0.45091094921E+02  0.45145506921E+02  0.69621892077E+02  0.00000000000E+00 0. -1.
         -5    1    5    5    0  502  0.42662747568E+02  0.27389064530E+02  0.18055464900E+02  0.54021853898E+02  0.47000000000E+01 0.  1.
         13    1    6    6    0    0 -0.37945716746E+02 -0.20564482694E+02  0.75881654159E+02  0.87297198155E+02  0.00000000000E+00 0. -1.
        -14    1    6    6    0    0  0.17422312396E+02  0.13863427828E+02  0.19186134379E+03  0.19314892400E+03  0.00000000000E+00 0.  1.
</event>
<event>
12    1  0.8406581E-002  0.2129289E+03  0.7818608E-02  0.1139473E+00
         21   -1    0    0  501  502  0.00000000000E+00  0.00000000000E+00  0.45163304572E+03  0.45163304572E+03  0.00000000000E+00 0. -1.
         21   -1    0    0  502  503 -0.00000000000E+00 -0.00000000000E+00 -0.64459727687E+03  0.64459727687E+03  0.00000000000E+00 0. -1.
         -6    2    1    2    0  503 -0.12276358524E+03 -0.23156808425E+02 -0.60030333990E+03  0.63659584847E+03  0.17112287618E+03 0.  0.
        -24    2    3    3    0    0 -0.13872655350E+03  0.68699594681E+01 -0.56519044949E+03  0.58748955337E+03  0.80071706195E+02 0.  0.
          6    2    1    2  501    0  0.12276358524E+03  0.23156808425E+02  0.40733910875E+03  0.45963447412E+03  0.17242843340E+03 0.  0.
         24    2    5    5    0    0  0.38391651440E+02  0.33487808856E+02  0.88160099238E+02  0.12929724810E+03  0.79688286626E+02 0.  0.
          5    1    5    5  501    0  0.84371933804E+02 -0.10331000431E+02  0.31917900951E+03  0.33033722602E+03  0.47000000000E+01 0. -1.
        -11    1    6    6    0    0  0.40711296753E+02 -0.94007628998E+01  0.14871927292E+02  0.44350403018E+02  0.00000000000E+00 0.  1.
         12    1    6    6    0    0 -0.23196453138E+01  0.42888571756E+02  0.73288171946E+02  0.84946845079E+02  0.00000000000E+00 0. -1.
         -5    1    3    3    0  503  0.15962968256E+02 -0.30026767893E+02 -0.35112890414E+02  0.49106295104E+02  0.47000000000E+01 0.  1.
         13    1    4    4    0    0 -0.12824868159E+03  0.97021111009E+00 -0.36388047663E+03  0.38582077045E+03  0.00000000000E+00 0. -1.
        -14    1    4    4    0    0 -0.10477871912E+02  0.58997483580E+01 -0.20130997286E+03  0.20166878292E+03  0.00000000000E+00 0.  1.
</event>
<event>
12    1  0.8406581E-002  0.2278619E+03  0.7818608E-02  0.1128373E+00
         21   -1    0    0  503  502  0.00000000000E+00  0.00000000000E+00  0.84590890190E+02  0.84590890190E+02  0.00000000000E+00 0. -1.
         21   -1    0    0  501  503 -0.00000000000E+00 -0.00000000000E+00 -0.14793138480E+04  0.14793138480E+04  0.00000000000E+00 0. -1.
          6    2    1    2  501    0  0.18040284985E+02  0.14644816949E+03 -0.12958455237E+04  0.13155143302E+04  0.17201689927E+03 0.  0.
         24    2    3    3    0    0  0.21719351116E+02  0.16611494775E+03 -0.90026948210E+03  0.91940473385E+03  0.82182833592E+02 0.  0.
         -6    2    1    2    0  502 -0.18040284985E+02 -0.14644816949E+03 -0.98877434188E+02  0.24839040799E+03  0.17363331928E+03 0.  0.
        -24    2    5    5    0    0  0.23840387645E+02 -0.13909432907E+03 -0.26548191704E+02  0.16435661106E+03  0.79954316051E+02 0.  0.
          5    1    3    3  501    0 -0.36790661313E+01 -0.19666778265E+02 -0.39557604157E+03  0.39610959639E+03  0.47000000000E+01 0. -1.
        -13    1    4    4    0    0  0.15048404998E+02  0.15424968925E+03 -0.62965136040E+03  0.64844449013E+03  0.00000000000E+00 0.  1.
         14    1    4    4    0    0  0.66709461180E+01  0.11865258499E+02 -0.27061812170E+03  0.27096024372E+03  0.00000000000E+00 0. -1.
         -5    1    5    5    0  502 -0.41880672630E+02 -0.73538404199E+01 -0.72329242484E+02  0.84033796934E+02  0.47000000000E+01 0.  1.
         11    1    6    6    0    0 -0.27703106648E+02 -0.56750899146E+02  0.17433208564E+01  0.63175674428E+02  0.00000000000E+00 0. -1.
        -12    1    6    6    0    0  0.51543494293E+02 -0.82343429919E+02 -0.28291512560E+02  0.10118093663E+03  0.00000000000E+00 0.  1.
</event>
<event>
12    1  0.8406581E-002  0.1880732E+03  0.7818608E-02  0.1162764E+00
         21   -1    0    0  503  502  0.00000000000E+00  0.00000000000E+00  0.43603298921E+03  0.43603298921E+03  0.00000000000E+00 0. -1.
         21   -1    0    0  501  503 -0.00000000000E+00 -0.00000000000E+00 -0.79934772543E+02  0.79934772543E+02  0.00000000000E+00 0. -1.
          6    2    1    2  501    0 -0.61496418234E+02  0.38787586510E+02  0.23639941588E+03  0.30208640452E+03  0.17345093153E+03 0.  0.
         24    2    3    3    0    0 -0.50799468716E+01 -0.18235316820E+02  0.57290526444E+02  0.10577921154E+03  0.86883281091E+02 0.  0.
         -6    2    1    2    0  502  0.61496418234E+02 -0.38787586510E+02  0.11969880079E+03  0.21388135723E+03  0.16165130911E+03 0.  0.
        -24    2    5    5    0    0  0.42384120827E+02 -0.65803244072E+02  0.30181642876E+02  0.11832751258E+03  0.83450512513E+02 0.  0.
          5    1    3    3  501    0 -0.56416471362E+02  0.57022903331E+02  0.17910888943E+03  0.19630719299E+03  0.47000000000E+01 0. -1.
        -13    1    4    4    0    0  0.17171306624E+02  0.24325552112E+02 -0.15632862545E+01  0.29816608134E+02  0.00000000000E+00 0.  1.
         14    1    4    4    0    0 -0.22251253496E+02 -0.42560868932E+02  0.58853812699E+02  0.75962603402E+02  0.00000000000E+00 0. -1.
         -5    1    5    5    0  502  0.19112297407E+02  0.27015657562E+02  0.89517157916E+02  0.95553844648E+02  0.47000000000E+01 0.  1.
         11    1    6    6    0    0 -0.15670481473E+02 -0.54114141611E+01 -0.15684767113E+02  0.22822342391E+02  0.00000000000E+00 0. -1.
        -12    1    6    6    0    0  0.58054602300E+02 -0.60391829911E+02  0.45866409989E+02  0.95505170192E+02  0.00000000000E+00 0.  1.
</event>
<event>
12    1  0.8406581E-002  0.1856763E+03  0.7818608E-02  0.1162692E+00
         21   -1    0    0  503  502  0.00000000000E+00  0.00000000000E+00  0.81102624799E+02  0.81102624799E+02  0.00000000000E+00 0.  1.
         21   -1    0    0  501  503 -0.00000000000E+00 -0.00000000000E+00 -0.52952490004E+03  0.52952490004E+03  0.00000000000E+00 0.  1.
          6    2    1    2  501    0  0.61484774301E+02 -0.26621904793E+02 -0.36208388225E+03  0.40691574550E+03  0.17316634449E+03 0.  0.
         24    2    3    3    0    0 -0.72097202778E+01 -0.27268940898E+02 -0.30848143352E+03  0.31965369905E+03  0.78880398616E+02 0.  0.
         -6    2    1    2    0  502 -0.61484774301E+02  0.26621904793E+02 -0.86338392988E+02  0.20371177933E+03  0.17191587376E+03 0.  0.
        -24    2    5    5    0    0 -0.97613134646E+02 -0.15847653679E+02 -0.66949267137E+02  0.14449227225E+03  0.81340888781E+02 0.  0.
          5    1    3    3  501    0  0.68694494579E+02  0.64703610461E+00 -0.53602448734E+02  0.87262046455E+02  0.47000000000E+01 0. -1.
        -13    1    4    4    0    0  0.11597905448E+02 -0.43707351535E+02 -0.27010403991E+03  0.27386317088E+03  0.00000000000E+00 0.  1.
         14    1    4    4    0    0 -0.18807625726E+02  0.16438410638E+02 -0.38377393609E+02  0.45790528168E+02  0.00000000000E+00 0. -1.
         -5    1    5    5    0  502  0.36128360345E+02  0.42469558472E+02 -0.19389125851E+02  0.59219507084E+02  0.47000000000E+01 0.  1.
         13    1    6    6    0    0 -0.57831705334E+00  0.18441759613E+02 -0.29854668266E+02  0.35096070514E+02  0.00000000000E+00 0. -1.
        -14    1    6    6    0    0 -0.97034817592E+02 -0.34289413292E+02 -0.37094598871E+02  0.10939620174E+03  0.00000000000E+00 0.  1.
</event>
<event>
12    1  0.8406581E-002  0.1988453E+03  0.7818608E-02  0.1150922E+00
         21   -1    0    0  503  502  0.00000000000E+00  0.00000000000E+00  0.14873285645E+03  0.14873285645E+03  0.00000000000E+00 0.  1.
         21   -1    0    0  501  503 -0.00000000000E+00 -0.00000000000E+00 -0.41714452212E+03  0.41714452212E+03  0.00000000000E+00 0. -1.
          6    2    1    2  501    0 -0.79575051533E+02  0.58456042493E+02 -0.30512315146E+03  0.36367156193E+03  0.17148635416E+03 0.  0.
         24    2    3    3    0    0  0.70987682319E+01  0.68821747206E+02 -0.12995880781E+03  0.16790528252E+03  0.80722157865E+02 0.  0.
         -6    2    1    2    0  502  0.79575051533E+02 -0.58456042493E+02  0.36711485794E+02  0.20220581665E+03  0.17259826583E+03 0.  0.
        -24    2    5    5    0    0  0.53971103874E+02 -0.74934168410E+02 -0.32270057188E+02  0.12665693154E+03  0.80452545438E+02 0.  0.
          5    1    3    3  501    0 -0.86673819765E+02 -0.10365704714E+02 -0.17516434365E+03  0.19576627941E+03  0.47000000000E+01 0. -1.
        -13    1    4    4    0    0 -0.17411518586E+02  0.36948239109E+02 -0.10949729572E+02  0.42287467770E+02  0.00000000000E+00 0.  1.
         14    1    4    4    0    0  0.24510286818E+02  0.31873508098E+02 -0.11900907824E+03  0.12561781475E+03  0.00000000000E+00 0. -1.
         -5    1    5    5    0  502  0.25603947658E+02  0.16478125917E+02  0.68981542982E+02  0.75548885112E+02  0.47000000000E+01 0.  1.
         13    1    6    6    0    0  0.90112105843E+01 -0.76285239845E+02 -0.26746383925E+02  0.81338851649E+02  0.00000000000E+00 0. -1.
        -14    1    6    6    0    0  0.44959893290E+02  0.13510714354E+01 -0.55236732631E+01  0.45318079891E+02  0.00000000000E+00 0.  1.
</event>
<event>
12    1  0.8406581E-002  0.3630523E+03  0.7818608E-02  0.1057431E+00
         21   -1    0    0  501  502  0.00000000000E+00  0.00000000000E+00  0.21629186235E+03  0.21629186235E+03  0.00000000000E+00 0. -1.
         21   -1    0    0  502  503 -0.00000000000E+00 -0.00000000000E+00 -0.81951335838E+03  0.81951335838E+03  0.00000000000E+00 0.  1.
         -6    2    1    2    0  503  0.82634926524E+02 -0.30895542060E+03 -0.56453188102E+03  0.67119536467E+03  0.17182837327E+03 0.  0.
        -24    2    3    3    0    0  0.25226802914E+02 -0.67433566270E+02 -0.12271385052E+03  0.16438794478E+03  0.82347008658E+02 0.  0.
          6    2    1    2  501    0 -0.82634926524E+02  0.30895542060E+03 -0.38689615014E+02  0.36460985606E+03  0.17076732073E+03 0.  0.
         24    2    5    5    0    0 -0.28095952584E+02  0.26323351656E+03  0.12380734429E+02  0.27688720916E+03  0.80199608599E+02 0.  0.
          5    1    5    5  501    0 -0.54538973940E+02  0.45721904044E+02 -0.51070349443E+02  0.87722646906E+02  0.47000000000E+01 0. -1.
        -11    1    6    6    0    0 -0.61652373778E+01  0.29591756534E+02 -0.25042563414E+02  0.39253180623E+02  0.00000000000E+00 0.  1.
         12    1    6    6    0    0 -0.21930715207E+02  0.23364176002E+03  0.37423297843E+02  0.23763402854E+03  0.00000000000E+00 0. -1.
         -5    1    3    3    0  503  0.57408123610E+02 -0.24152185433E+03 -0.44181803050E+03  0.50680741989E+03  0.47000000000E+01 0.  1.
         13    1    4    4    0    0  0.37329385743E+02 -0.40493856743E+02 -0.21785007334E+02  0.59226869058E+02  0.00000000000E+00 0. -1.
        -14    1    4    4    0    0 -0.12102582829E+02 -0.26939709527E+02 -0.10092884318E+03  0.10516107572E+03  0.00000000000E+00 0.  1.
</event>
<event>
12    1  0.8406581E-002  0.2122359E+03  0.7818608E-02  0.1140366E+00
         21   -1    0    0  503  502  0.00000000000E+00  0.00000000000E+00  0.25567846230E+03  0.25567846230E+03  0.00000000000E+00 0. -1.
         21   -1    0    0  501  503 -0.00000000000E+00 -0.00000000000E+00 -0.26001384259E+03  0.26001384259E+03  0.00000000000E+00 0. -1.
          6    2    1    2  501    0  0.11616657502E+03  0.28053142815E+02 -0.15060637343E+03  0.25793412742E+03  0.17194790605E+03 0.  0.
         24    2    3    3    0    0  0.84937827219E+02  0.83609190183E+02 -0.10864162212E+03  0.18148257779E+03  0.83234564982E+02 0.  0.
         -6    2    1    2    0  502 -0.11616657502E+03 -0.28053142815E+02  0.14627099314E+03  0.25775817747E+03  0.17539219664E+03 0.  0.
        -24    2    5    5    0    0 -0.10741827094E+03 -0.33220745047E+02  0.17724694343E+03  0.22482132222E+03  0.80534744896E+02 0.  0.
          5    1    3    3  501    0  0.31228747797E+02 -0.55556047368E+02 -0.41964751310E+02  0.76451549628E+02  0.47000000000E+01 0. -1.
        -13    1    4    4    0    0 -0.16036608491E+02  0.19519813328E+02 -0.13401650852E+02  0.28597205629E+02  0.00000000000E+00 0.  1.
         14    1    4    4    0    0  0.10097443571E+03  0.64089376855E+02 -0.95239971269E+02  0.15288537216E+03  0.00000000000E+00 0. -1.
         -5    1    5    5    0  502 -0.87483040733E+01  0.51676022316E+01 -0.30975950291E+02  0.32936855245E+02  0.47000000000E+01 0.  1.
         13    1    6    6    0    0 -0.74434274335E+02  0.12553002128E+01  0.52038015835E+02  0.90829466950E+02  0.00000000000E+00 0. -1.
        -14    1    6    6    0    0 -0.32983996608E+02 -0.34476045260E+02  0.12520892760E+03  0.13399185527E+03  0.00000000000E+00 0.  1.
</event>
<event>
12    1  0.8406581E-002  0.4255578E+03  0.7818608E-02  0.1035273E+00
         21   -1    0    0  503  502  0.00000000000E+00  0.00000000000E+00  0.96414041675E+03  0.96414041675E+03  0.00000000000E+00 0.  1.
         21   -1    0    0  501  503 -0.00000000000E+00 -0.00000000000E+00 -0.21140877695E+03  0.21140877695E+03  0.00000000000E+00 0.  1.
          6    2    1    2  501    0  0.38884493546E+03  0.11912952964E+02  0.18007371765E+03  0.46208121090E+03  0.17248246112E+03 0.  0.
         24    2    3    3    0    0  0.20607552904E+03 -0.56479002194E+02  0.10978180257E+03  0.25460793845E+03  0.84357316160E+02 0.  0.
         -6    2    1    2    0  502 -0.38884493546E+03 -0.11912952964E+02  0.57265792215E+03  0.71346798280E+03  0.17250265043E+03 0.  0.
        -24    2    5    5    0    0 -0.40233016597E+03 -0.11469671010E+02  0.54134180549E+03  0.67904651997E+03  0.77795309113E+02 0.  0.
          5    1    3    3  501    0  0.18276940642E+03  0.68391955158E+02  0.70291915087E+02  0.20747327245E+03  0.47000000000E+01 0. -1.
        -13    1    4    4    0    0  0.20535826597E+03 -0.35103953586E+02  0.99586413829E+02  0.23091504667E+03  0.00000000000E+00 0.  1.
         14    1    4    4    0    0  0.71726306729E+00 -0.21375048608E+02  0.10195388738E+02  0.23692891779E+02  0.00000000000E+00 0. -1.
         -5    1    5    5    0  502  0.13485230504E+02 -0.44328195409E+00  0.31316116664E+02  0.34421462833E+02  0.47000000000E+01 0.  1.
         11    1    6    6    0    0 -0.62945785806E+02  0.10069792639E+02  0.47745236170E+02  0.79644084849E+02  0.00000000000E+00 0. -1.
        -12    1    6    6    0    0 -0.33938438016E+03 -0.21539463648E+02  0.49359656932E+03  0.59940243512E+03  0.00000000000E+00 0.  1.
</event>
<event>
12    1  0.8406581E-002  0.2095375E+03  0.7818608E-02  0.1142010E+00
         21   -1    0    0  503  502  0.00000000000E+00  0.00000000000E+00  0.11396584466E+03  0.11396584466E+03  0.00000000000E+00 0.  1.
         21   -1    0    0  501  503 -0.00000000000E+00 -0.00000000000E+00 -0.43428658065E+03  0.43428658065E+03  0.00000000000E+00 0. -1.
          6    2    1    2  501    0  0.38396681221E+02  0.11276152772E+03 -0.25306381470E+03  0.32855325411E+03  0.17238468381E+03 0.  0.
         24    2    3    3    0    0 -0.11963891940E+02 -0.22049569440E+00 -0.91577985951E+02  0.12508117290E+03  0.84353950558E+02 0.  0.
         -6    2    1    2    0  502 -0.38396681221E+02 -0.11276152772E+03 -0.67256921291E+02  0.21969917121E+03  0.17191499383E+03 0.  0.
        -24    2    5    5    0    0 -0.55706912446E+02 -0.97790767179E+01 -0.71990345014E+01  0.99141844241E+02  0.81107266913E+02 0.  0.
          5    1    3    3  501    0  0.50360573161E+02  0.11298202342E+03 -0.16148582875E+03  0.20347208121E+03  0.47000000000E+01 0. -1.
        -11    1    4    4    0    0  0.30210056256E+02  0.19887751534E+02 -0.25925516977E+02  0.44500590902E+02  0.00000000000E+00 0.  1.
         12    1    4    4    0    0 -0.42173948196E+02 -0.20108247229E+02 -0.65652468974E+02  0.80580581999E+02  0.00000000000E+00 0. -1.
         -5    1    5    5    0  502  0.17310231225E+02 -0.10298245100E+03 -0.60057886789E+02  0.12055732697E+03  0.47000000000E+01 0.  1.
         13    1    6    6    0    0 -0.21396352389E+02 -0.46957599054E+00 -0.43408360967E+02  0.48397419342E+02  0.00000000000E+00 0. -1.
        -14    1    6    6    0    0 -0.34310560057E+02 -0.93095007274E+01  0.36209326465E+02  0.50744424899E+02  0.00000000000E+00 0.  1.
</event>
<event>
12    1  0.8406581E-002  0.3416375E+03  0.7818608E-02  0.1066272E+00
         21   -1    0    0  503  502  0.00000000000E+00  0.00000000000E+00  0.69705976084E+03  0.69705976084E+03  0.00000000000E+00 0. -1.
         21   -1    0    0  501  503 -0.00000000000E+00 -0.00000000000E+00 -0.27371936873E+03  0.27371936873E+03  0.00000000000E+00 0. -1.
          6    2    1    2  501    0 -0.19777230794E+02 -0.29362843286E+03 -0.91599663896E+02  0.35370422428E+03  0.17351479592E+03 0.  0.
         24    2    3    3    0    0  0.26773735639E+02 -0.25355832331E+03 -0.33835376448E+02  0.26925655374E+03  0.79659291940E+02 0.  0.
         -6    2    1    2    0  502  0.19777230794E+02  0.29362843286E+03  0.51494005601E+03  0.61707490529E+03  0.17032140795E+03 0.  0.
        -24    2    5    5    0    0 -0.28973130924E+02  0.25331635819E+03  0.46514709677E+03  0.53643316720E+03  0.79938111017E+02 0.  0.
          5    1    3    3  501    0 -0.46550966433E+02 -0.40070109556E+02 -0.57764287448E+02  0.84447670543E+02  0.47000000000E+01 0. -1.
        -11    1    4    4    0    0  0.22419270312E+02 -0.85350062703E+02 -0.47895812394E+02  0.10040550647E+03  0.00000000000E+00 0.  1.
         12    1    4    4    0    0  0.43544653263E+01 -0.16820826060E+03  0.14060435946E+02  0.16885104727E+03  0.00000000000E+00 0. -1.
         -5    1    5    5    0  502  0.48750361718E+02  0.40312074671E+02  0.49792959246E+02  0.80641738091E+02  0.47000000000E+01 0.  1.
         13    1    6    6    0    0 -0.27680542432E+02  0.11989315389E+03  0.14871607377E+03  0.19302085736E+03  0.00000000000E+00 0. -1.
        -14    1    6    6    0    0 -0.12925884926E+01  0.13342320431E+03  0.31643102299E+03  0.34341230983E+03  0.00000000000E+00 0.  1.
</event>
<event>
12    1  0.8406581E-002  0.1956405E+03  0.7818608E-02  0.1153666E+00
         21   -1    0    0  501  502  0.00000000000E+00  0.00000000000E+00  0.20593645364E+03  0.20593645364E+03  0.00000000000E+00 0.  1.
         21   -1    0    0  502  503 -0.00000000000E+00 -0.00000000000E+00 -0.18952602713E+03  0.18952602713E+03  0.00000000000E+00 0.  1.
         -6    2    1    2    0  503  0.90870660857E+02 -0.33499251997E+01  0.38730614926E+02  0.19855291221E+03  0.17220481820E+03 0.  0.
        -24    2    3    3    0    0  0.46523198020E+02 -0.18467964511E+02  0.80011303645E+02  0.13593152741E+03  0.97826876504E+02 0.  0.
          6    2    1    2  501    0 -0.90870660857E+02  0.33499251997E+01 -0.22320188422E+02  0.19690956856E+03  0.17322381007E+03 0.  0.
         24    2    5    5    0    0  0.19871792267E+02  0.29011790542E+01  0.52202351440E+01  0.82696359046E+02  0.80050808720E+02 0.  0.
          5    1    5    5  501    0 -0.11074245312E+03  0.44874614546E+00 -0.27540423566E+02  0.11421320951E+03  0.47000000000E+01 0. -1.
        -13    1    6    6    0    0 -0.10328931194E+01  0.39540756424E+02  0.82447080414E+01  0.40404374732E+02  0.00000000000E+00 0.  1.
         14    1    6    6    0    0  0.20904685387E+02 -0.36639577370E+02 -0.30244728975E+01  0.42291984314E+02  0.00000000000E+00 0. -1.
         -5    1    3    3    0  503  0.44347462837E+02  0.15118039312E+02 -0.41280688719E+02  0.62621384797E+02  0.47000000000E+01 0.  1.
         13    1    4    4    0    0 -0.30783919572E+02 -0.31319435061E+01  0.19595999854E+02  0.36625974180E+02  0.00000000000E+00 0. -1.
        -14    1    4    4    0    0  0.77307117592E+02 -0.15336021005E+02  0.60415303791E+02  0.99305553232E+02  0.00000000000E+00 0.  1.
</event>
<event>
12    1  0.8406581E-002  0.1950924E+03  0.7818608E-02  0.1154049E+00
         21   -1    0    0  501  502  0.00000000000E+00  0.00000000000E+00  0.10582128186E+03  0.10582128186E+03  0.00000000000E+00 0. -1.
         21   -1    0    0  502  503 -0.00000000000E+00 -0.00000000000E+00 -0.36537773529E+03  0.36537773529E+03  0.00000000000E+00 0. -1.
         -6    2    1    2    0  503  0.17282561906E+02 -0.90554594909E+02 -0.98344576817E+02  0.21847813008E+03  0.17193666255E+03 0.  0.
        -24    2    3    3    0    0  0.71087176222E+02 -0.87257671884E+02 -0.59367191722E+02  0.15179130401E+03  0.82757770593E+02 0.  0.
          6    2    1    2  501    0 -0.17282561906E+02  0.90554594909E+02 -0.16121187662E+03  0.25272088707E+03  0.17140523911E+03 0.  0.
         24    2    5    5    0    0 -0.47370857351E+00  0.16834866562E+02 -0.74260707388E+01  0.81287809781E+02  0.79176539205E+02 0.  0.
          5    1    5    5  501    0 -0.16808853332E+02  0.73719728347E+02 -0.15378580588E+03  0.17143307729E+03  0.47000000000E+01 0. -1.
        -13    1    6    6    0    0 -0.38789688137E+01 -0.16455932737E+02  0.27903042913E+02  0.32625510343E+02  0.00000000000E+00 0.  1.
         14    1    6    6    0    0  0.34052602402E+01  0.33290799299E+02 -0.35329113652E+02  0.48662299439E+02  0.00000000000E+00 0. -1.
         -5    1    3    3    0  503 -0.53804614316E+02 -0.32969230249E+01 -0.38977385095E+02  0.66686826075E+02  0.47000000000E+01 0.  1.
         11    1    4    4    0    0  0.22499260260E+02 -0.88267616023E+02 -0.37773712253E+02  0.98611571776E+02  0.00000000000E+00 0. -1.
        -12    1    4    4    0    0  0.48587915962E+02  0.10099441393E+01 -0.21593479469E+02  0.53179732232E+02  0.00000000000E+00 0.  1.
</event>
<event>
12    1  0.8406581E-002  0.3002708E+03  0.7818608E-02  0.1085256E+00
         21   -1    0    0  503  502  0.00000000000E+00  0.00000000000E+00  0.80337203692E+03  0.80337203692E+03  0.00000000000E+00 0.  1.
         21   -1    0    0  501  503 -0.00000000000E+00 -0.00000000000E+00 -0.12668136982E+03  0.12668136982E+03  0.00000000000E+00 0. -1.
          6    2    1    2  501    0 -0.33906909505E+01  0.24485569153E+03  0.17946009685E+03  0.34981203934E+03  0.17377206348E+03 0.  0.
         24    2    3    3    0    0  0.49982560836E+01  0.50561028484E+02  0.85752475928E+01  0.90882488637E+02  0.74864488940E+02 0.  0.
         -6    2    1    2    0  502  0.33906909505E+01 -0.24485569153E+03  0.49723057025E+03  0.58024136740E+03  0.17168575361E+03 0.  0.
        -24    2    5    5    0    0 -0.34277113706E+02 -0.84551121589E+02  0.13308427961E+03  0.18056521144E+03  0.81046637309E+02 0.  0.
          5    1    3    3  501    0 -0.83889470341E+01  0.19429466305E+03  0.17088484926E+03  0.25892955070E+03  0.47000000000E+01 0. -1.
        -13    1    4    4    0    0  0.22955023569E+02  0.22927384963E+02  0.35670805350E+02  0.48218299873E+02  0.00000000000E+00 0.  1.
         14    1    4    4    0    0 -0.17956767485E+02  0.27633643521E+02 -0.27095557757E+02  0.42664188764E+02  0.00000000000E+00 0. -1.
         -5    1    5    5    0  502  0.37667804657E+02 -0.16030456995E+03  0.36414629064E+03  0.39967615596E+03  0.47000000000E+01 0.  1.
         13    1    6    6    0    0 -0.18172894726E+02 -0.43464033700E+02  0.12769367982E+03  0.13610676763E+03  0.00000000000E+00 0. -1.
        -14    1    6    6    0    0 -0.16104218981E+02 -0.41087087889E+02  0.53905997840E+01  0.44458443812E+02  0.00000000000E+00 0.  1.
</event>
<event>
12    1  0.8406581E-002  0.1794508E+03  0.7818608E-02  0.1168804E+00
         21   -1    0    0  501  502  0.00000000000E+00  0.00000000000E+00  0.56032855516E+02  0.56032855516E+02  0.00000000000E+00 0.  1.
         21   -1    0    0  502  503 -0.00000000000E+00 -0.00000000000E+00 -0.57767515094E+03  0.57767515094E+03  0.00000000000E+00 0.  1.
         -6    2    1    2    0  503  0.43520852436E+02 -0.30029367975E+02 -0.22245232258E+03  0.28581050173E+03  0.17148405040E+03 0.  0.
        -24    2    3    3    0    0  0.25821025883E+02 -0.72611973029E+02 -0.12064942120E+03  0.17395129182E+03  0.98810652688E+02 0.  0.
          6    2    1    2  501    0 -0.43520852436E+02  0.30029367975E+02 -0.29918997285E+03  0.34789750473E+03  0.16947627092E+03 0.  0.
         24    2    5    5    0    0 -0.45985614193E+02  0.69164788459E+02 -0.28285995592E+03  0.30516092040E+03  0.78835195208E+02 0.  0.
          5    1    5    5  501    0  0.24647617574E+01 -0.39135420483E+02 -0.16330016930E+02  0.42736584326E+02  0.47000000000E+01 0. -1.
        -11    1    6    6    0    0 -0.24568243729E+02  0.35801157452E+02 -0.39840273318E+02  0.58928506284E+02  0.00000000000E+00 0.  1.
         12    1    6    6    0    0 -0.21417370464E+02  0.33363631007E+02 -0.24301968260E+03  0.24623241412E+03  0.00000000000E+00 0. -1.
         -5    1    3    3    0  503  0.17699826553E+02  0.42582605053E+02 -0.10180290138E+03  0.11185920991E+03  0.47000000000E+01 0.  1.
         11    1    4    4    0    0  0.56970964006E+02 -0.69975172120E+02 -0.69057789376E+02  0.11362743386E+03  0.00000000000E+00 0. -1.
        -12    1    4    4    0    0 -0.31149938124E+02 -0.26368009087E+01 -0.51591631827E+02  0.60323857956E+02  0.00000000000E+00 0.  1.
</event>
<event>
12    1  0.8406581E-002  0.1794290E+03  0.7818608E-02  0.1168498E+00
         21   -1    0    0  503  502  0.00000000000E+00  0.00000000000E+00  0.42572416404E+02  0.42572416404E+02  0.00000000000E+00 0. -1.
         21   -1    0    0  501  503 -0.00000000000E+00 -0.00000000000E+00 -0.10398068085E+04  0.10398068085E+04  0.00000000000E+00 0. -1.
          6    2    1    2  501    0 -0.37275078785E+02  0.38511959095E+02 -0.78304196419E+03  0.80333646521E+03  0.17123713426E+03 0.  0.
         24    2    3    3    0    0  0.74274773842E+01  0.42690395943E+02 -0.72087179937E+03  0.72650549973E+03  0.79224066276E+02 0.  0.
         -6    2    1    2    0  502  0.37275078785E+02 -0.38511959095E+02 -0.21419242789E+03  0.27904275968E+03  0.17062784965E+03 0.  0.
        -24    2    5    5    0    0 -0.23919848584E+02 -0.21947811578E+02 -0.43057377958E+02  0.96481850852E+02  0.80005900769E+02 0.  0.
          5    1    3    3  501    0 -0.44702556170E+02 -0.41784368477E+01 -0.62170164819E+02  0.76830965478E+02  0.47000000000E+01 0. -1.
        -13    1    4    4    0    0  0.12422931806E+02 -0.19764697095E+02 -0.11127908302E+03  0.11370139315E+03  0.00000000000E+00 0.  1.
         14    1    4    4    0    0 -0.49954544214E+01  0.62455093037E+02 -0.60959271635E+03  0.61280410658E+03  0.00000000000E+00 0. -1.
         -5    1    5    5    0  502  0.61194927370E+02 -0.16564147517E+02 -0.17113504993E+03  0.18256090883E+03  0.47000000000E+01 0.  1.
         11    1    6    6    0    0 -0.24963342413E+02 -0.47705497361E+02 -0.10335384055E+02  0.54825205029E+02  0.00000000000E+00 0. -1.
        -12    1    6    6    0    0  0.10434938285E+01  0.25757685783E+02 -0.32721993903E+02  0.41656645823E+02  0.00000000000E+00 0.  1.
</event>
<event>
12    1  0.8406581E-002  0.2018009E+03  0.7818608E-02  0.1150368E+00
         21   -1    0    0  503  502  0.00000000000E+00  0.00000000000E+00  0.11982247368E+03  0.11982247368E+03  0.00000000000E+00 0.  1.
         21   -1    0    0  501  503 -0.00000000000E+00 -0.00000000000E+00 -0.32358227757E+03  0.32358227757E+03  0.00000000000E+00 0. -1.
          6    2    1    2  501    0 -0.14950270306E+02 -0.82949805561E+02 -0.92229891442E+02  0.21283476951E+03  0.17230236624E+03 0.  0.
         24    2    3    3    0    0 -0.69261409875E+02 -0.82878751922E+02 -0.48537654974E+02  0.14297200076E+03  0.80119027906E+02 0.  0.
         -6    2    1    2    0  502  0.14950270306E+02  0.82949805561E+02 -0.11152991245E+03  0.23056998175E+03  0.18335597696E+03 0.  0.
        -24    2    5    5    0    0  0.64213335301E+02  0.30685711324E+02 -0.92406421831E+01  0.10549572408E+03  0.77323948563E+02 0.  0.
          5    1    3    3  501    0  0.54311139568E+02 -0.71053638692E-01 -0.43692236468E+02  0.69862768750E+02  0.47000000000E+01 0. -1.
        -13    1    4    4    0    0 -0.42409932286E+01 -0.65686165343E+02 -0.13715130823E+02  0.67236620636E+02  0.00000000000E+00 0.  1.
         14    1    4    4    0    0 -0.65020416646E+02 -0.17192586579E+02 -0.34822524151E+02  0.75735380123E+02  0.00000000000E+00 0. -1.
         -5    1    5    5    0  502 -0.49263064995E+02  0.52264094237E+02 -0.10228927026E+03  0.12507425766E+03  0.47000000000E+01 0.  1.
         11    1    6    6    0    0  0.52607722485E+02  0.49332164903E+02 -0.27246885704E+02  0.77094926809E+02  0.00000000000E+00 0. -1.
        -12    1    6    6    0    0  0.11605612816E+02 -0.18646453580E+02  0.18006243521E+02  0.28400797272E+02  0.00000000000E+00 0.  1.
</event>
<event>
12    1  0.8406581E-002  0.1809522E+03  0.7818608E-02  0.1167316E+00
         21   -1    0    0  501  502  0.00000000000E+00  0.00000000000E+00  0.90045619535E+03  0.90045619535E+03  0.00000000000E+00 0. -1.
         21   -1    0    0  502  503 -0.00000000000E+00 -0.00000000000E+00 -0.49371631213E+02  0.49371631213E+02  0.00000000000E+00 0. -1.
         -6    2    1    2    0  503 -0.39256281299E+02  0.36095719041E+02  0.17690610879E+03  0.25178749950E+03  0.17104741162E+03 0.  0.
        -24    2    3    3    0    0 -0.59217568678E+02  0.10647548237E+02  0.19114158675E+03  0.21613920046E+03  0.80999734976E+02 0.  0.
          6    2    1    2  501    0  0.39256281299E+02 -0.36095719041E+02  0.67417845535E+03  0.69804032707E+03  0.17291544754E+03 0.  0.
         24    2    5    5    0    0  0.46954257512E+02 -0.40748517812E+02  0.67914057931E+03  0.68674342270E+03  0.80743161706E+02 0.  0.
          5    1    5    5  501    0 -0.76979762137E+01  0.46527987708E+01 -0.49621239520E+01  0.11296904368E+02  0.47000000000E+01 0. -1.
        -11    1    6    6    0    0  0.16489377449E+02 -0.19453675456E+02  0.46681984077E+02  0.53193539972E+02  0.00000000000E+00 0.  1.
         12    1    6    6    0    0  0.30464880064E+02 -0.21294842355E+02  0.63245859523E+03  0.63354988273E+03  0.00000000000E+00 0. -1.
         -5    1    3    3    0  503  0.19961287379E+02  0.25448170804E+02 -0.14235477967E+02  0.35648299034E+02  0.47000000000E+01 0.  1.
         13    1    4    4    0    0 -0.37876590112E+02  0.26433666063E+01  0.18930373373E+02  0.42426200650E+02  0.00000000000E+00 0. -1.
        -14    1    4    4    0    0 -0.21340978565E+02  0.80041816310E+01  0.17221121338E+03  0.17371299981E+03  0.00000000000E+00 0.  1.
</event>
<event>
12    1  0.8406581E-002  0.1894682E+03  0.7818608E-02  0.1158991E+00
         21   -1    0    0  501  502  0.00000000000E+00  0.00000000000E+00  0.12716278045E+03  0.12716278045E+03  0.00000000000E+00 0. -1.
         21   -1    0    0  502  503 -0.00000000000E+00 -0.00000000000E+00 -0.54681074654E+03  0.54681074654E+03  0.00000000000E+00 0. -1.
         -6    2    1    2    0  503  0.98952389278E+01 -0.77313663291E+02 -0.44428160007E+03  0.48291070011E+03  0.17245662017E+03 0.  0.
        -24    2    3    3    0    0  0.69772106089E+02 -0.31410639669E+02 -0.24276870431E+03  0.26768555299E+03  0.82850083963E+02 0.  0.
          6    2    1    2  501    0 -0.98952389278E+01  0.77313663291E+02  0.24633633980E+02  0.19106282687E+03  0.17269299234E+03 0.  0.
         24    2    5    5    0    0 -0.18027761332E+02 -0.25283519414E+02  0.14359904509E+02  0.87525590399E+02  0.80562184581E+02 0.  0.
          5    1    5    5  501    0  0.81325224046E+01  0.10259718270E+03  0.10273729471E+02  0.10353723648E+03  0.47000000000E+01 0. -1.
        -13    1    6    6    0    0 -0.47744999214E+02 -0.29199324584E+02  0.53213159999E+01  0.56218341403E+02  0.00000000000E+00 0.  1.
         14    1    6    6    0    0  0.29717237882E+02  0.39158051706E+01  0.90385885089E+01  0.31307248996E+02  0.00000000000E+00 0. -1.
         -5    1    3    3    0  503 -0.59876867162E+02 -0.45903023622E+02 -0.20151289576E+03  0.21522514712E+03  0.47000000000E+01 0.  1.
         13    1    4    4    0    0  0.25050532151E+02 -0.39419453509E+02 -0.45327872375E+02  0.65084856073E+02  0.00000000000E+00 0. -1.
        -14    1    4    4    0    0  0.44721573938E+02  0.80088138396E+01 -0.19744083194E+03  0.20260069692E+03  0.00000000000E+00 0.  1.
</event>
<event>
12    1  0.8406581E-002  0.1813970E+03  0.7818608E-02  0.1166666E+00
         21   -1    0    0  503  502  0.00000000000E+00  0.00000000000E+00  0.53490231217E+02  0.53490231217E+02  0.00000000000E+00 0. -1.
         21   -1    0    0  501  503 -0.00000000000E+00 -0.00000000000E+00 -0.63498453167E+03  0.63498453167E+03  0.00000000000E+00 0.  1.
          6    2    1    2  501    0  0.58460265209E+02 -0.36631869030E+01 -0.35660604503E+03  0.40009093416E+03  0.17167953487E+03 0.  0.
         24    2    3    3    0    0 -0.22099332995E+02 -0.40403584485E+02 -0.15974179838E+03  0.18418047288E+03  0.79272784004E+02 0.  0.
         -6    2    1    2    0  502 -0.58460265209E+02  0.36631869030E+01 -0.22488825542E+03  0.28838382873E+03  0.17076148190E+03 0.  0.
        -24    2    5    5    0    0 -0.43918033235E+02 -0.42879365894E+01 -0.24480868486E+03  0.26204734482E+03  0.82403511459E+02 0.  0.
          5    1    3    3  501    0  0.80559598204E+02  0.36740397582E+02 -0.19686424665E+03  0.21591046128E+03  0.47000000000E+01 0. -1.
        -11    1    4    4    0    0 -0.20401749995E+02  0.15777639884E+02 -0.95026383183E+02  0.98464099163E+02  0.00000000000E+00 0.  1.
         12    1    4    4    0    0 -0.16975829999E+01 -0.56181224368E+02 -0.64715415193E+02  0.85716373717E+02  0.00000000000E+00 0. -1.
         -5    1    5    5    0  502 -0.14542231974E+02  0.79511234923E+01  0.19920429441E+02  0.26336483908E+02  0.47000000000E+01 0.  1.
         13    1    6    6    0    0 -0.33168833033E+02  0.21370837467E+02 -0.43117320851E+02  0.58446450158E+02  0.00000000000E+00 0. -1.
        -14    1    6    6    0    0 -0.10749200202E+02 -0.25658774056E+02 -0.20169136401E+03  0.20360089466E+03  0.00000000000E+00 0.  1.
</event>
<event>
12    1  0.8406581E-002  0.1859427E+03  0.7818608E-02  0.1162188E+00
         21   -1    0    0  503  502  0.00000000000E+00  0.00000000000E+00  0.33539929197E+03  0.33539929197E+03  0.00000000000E+00 0.  1.
         21   -1    0    0  501  503 -0.00000000000E+00 -0.00000000000E+00 -0.25717629730E+03  0.25717629730E+03  0.00000000000E+00 0.  1.
          6    2    1    2  501    0  0.13578600278E+02  0.70536278272E+02 -0.19025760521E+03  0.26603131094E+03  0.17150789230E+03 0.  0.
         24    2    3    3    0    0 -0.16232841751E+02  0.77111861315E+01 -0.17784390990E+03  0.19523650810E+03  0.78523055618E+02 0.  0.
         -6    2    1    2    0  502 -0.13578600278E+02 -0.70536278272E+02  0.26848059988E+03  0.32654427832E+03  0.17143391804E+03 0.  0.
        -24    2    5    5    0    0 -0.65515637304E+02 -0.15610108743E+02  0.12831134014E+03  0.16722117488E+03  0.83445473771E+02 0.  0.
          5    1    3    3  501    0  0.29811442029E+02  0.62825092140E+02 -0.12413695316E+02  0.70794802844E+02  0.47000000000E+01 0. -1.
        -11    1    4    4    0    0 -0.24772301765E+02  0.26265791070E+02 -0.16928164050E+03  0.17308908840E+03  0.00000000000E+00 0.  1.
         12    1    4    4    0    0  0.85394600139E+01 -0.18554604939E+02 -0.85622693996E+01  0.22147419692E+02  0.00000000000E+00 0. -1.
         -5    1    5    5    0  502  0.51937037025E+02 -0.54926169529E+02  0.14016925974E+03  0.15932310344E+03  0.47000000000E+01 0.  1.
         13    1    6    6    0    0 -0.57789676173E+02  0.20121966604E+02  0.11104876187E+03  0.12679261700E+03  0.00000000000E+00 0. -1.
        -14    1    6    6    0    0 -0.77259611307E+01 -0.35732075346E+02  0.17262578275E+02  0.40428557885E+02  0.00000000000E+00 0.  1.
</event>
<event>
12    1  0.8406581E-002  0.1732717E+03  0.7818608E-02  0.1174789E+00
         21   -1    0    0  501  502  0.00000000000E+00  0.00000000000E+00  0.56589111706E+02  0.56589111706E+02  0.00000000000E+00 0.  1.
         21   -1    0    0  502  503 -0.00000000000E+00 -0.00000000000E+00 -0.11415886773E+04  0.11415886773E+04  0.00000000000E+00 0.  1.
         -6    2    1    2    0  503  0.19222236819E+02 -0.11692109457E+02 -0.98124882914E+03  0.99621912286E+03  0.17057865122E+03 0.  0.
        -24    2    3    3    0    0 -0.11569579599E+02 -0.47695994467E+02 -0.36955827683E+03  0.38267871060E+03  0.86376573854E+02 0.  0.
          6    2    1    2  501    0 -0.19222236819E+02  0.11692109457E+02 -0.10375073642E+03  0.20195866612E+03  0.17180479533E+03 0.  0.
         24    2    5    5    0    0 -0.55248003319E+02  0.20188968533E+02 -0.68305495157E+01  0.98104609399E+02  0.78217144269E+02 0.  0.
          5    1    5    5  501    0  0.36025766500E+02 -0.84968590758E+01 -0.96920186909E+02  0.10385405672E+03  0.47000000000E+01 0. -1.
        -13    1    6    6    0    0 -0.15708262022E+02  0.43708652437E+02 -0.19519551547E+02  0.50380638009E+02  0.00000000000E+00 0.  1.
         14    1    6    6    0    0 -0.39539741297E+02 -0.23519683904E+02  0.12689002031E+02  0.47723971391E+02  0.00000000000E+00 0. -1.
         -5    1    3    3    0  503  0.30791816417E+02  0.36003885010E+02 -0.61169055231E+03  0.61354041227E+03  0.47000000000E+01 0.  1.
         13    1    4    4    0    0 -0.23349222948E+02 -0.79346352730E+01 -0.23237790222E+02  0.33884207879E+02  0.00000000000E+00 0. -1.
        -14    1    4    4    0    0  0.11779643349E+02 -0.39761359194E+02 -0.34632048661E+03  0.34879450272E+03  0.00000000000E+00 0.  1.
</event>
<event>
12    1  0.8406581E-002  0.1950886E+03  0.7818608E-02  0.1154075E+00
         21   -1    0    0  503  502  0.00000000000E+00  0.00000000000E+00  0.76847389885E+03  0.76847389885E+03  0.00000000000E+00 0. -1.
         21   -1    0    0  501  503 -0.00000000000E+00 -0.00000000000E+00 -0.77744214191E+02  0.77744214191E+02  0.00000000000E+00 0. -1.
          6    2    1    2  501    0 -0.87149324976E+02 -0.28346483530E+02  0.90124809319E+02  0.21490007082E+03  0.17222378236E+03 0.  0.
         24    2    3    3    0    0 -0.10812877390E+03 -0.68468504160E+02  0.76553856467E+02  0.16740086474E+03  0.76044649840E+02 0.  0.
         -6    2    1    2    0  502  0.87149324976E+02  0.28346483530E+02  0.60060487534E+03  0.63131804222E+03  0.17157425851E+03 0.  0.
        -24    2    5    5    0    0  0.11102052631E+03  0.53312118097E+02  0.36550288485E+03  0.39364567720E+03  0.78719890434E+02 0.  0.
          5    1    3    3  501    0  0.20979448922E+02  0.40122020630E+02  0.13570952852E+02  0.47499206076E+02  0.47000000000E+01 0. -1.
        -13    1    4    4    0    0 -0.86300240581E+02 -0.20459367136E+02  0.72415162111E+02  0.11450010014E+03  0.00000000000E+00 0.  1.
         14    1    4    4    0    0 -0.21828533317E+02 -0.48009137024E+02  0.41386943555E+01  0.52900764602E+02  0.00000000000E+00 0. -1.
         -5    1    5    5    0  502 -0.23871201332E+02 -0.24965634567E+02  0.23510199049E+03  0.23767236502E+03  0.47000000000E+01 0.  1.
         11    1    6    6    0    0  0.23953947594E+02  0.12435508639E+01  0.18532615149E+03  0.18687193596E+03  0.00000000000E+00 0. -1.
        -12    1    6    6    0    0  0.87066578714E+02  0.52068567233E+02  0.18017673335E+03  0.20677374124E+03  0.00000000000E+00 0.  1.
</event>
<event>
12    1  0.8406581E-002  0.3015123E+03  0.7818608E-02  0.1084644E+00
         21   -1    0    0  503  502  0.00000000000E+00  0.00000000000E+00  0.19068173879E+03  0.19068173879E+03  0.00000000000E+00 0.  1.
         21   -1    0    0  501  503 -0.00000000000E+00 -0.00000000000E+00 -0.50552017856E+03  0.50552017856E+03  0.00000000000E+00 0. -1.
          6    2    1    2  501    0  0.23762076921E+03 -0.68701373339E+02 -0.24359320703E+03  0.38761746425E+03  0.17241270088E+03 0.  0.
         24    2    3    3    0    0  0.67435164029E+02 -0.52755773927E+02 -0.41864886036E+02  0.12316745415E+03  0.78018459670E+02 0.  0.
         -6    2    1    2    0  502 -0.23762076921E+03  0.68701373339E+02 -0.71245232742E+02  0.30858445310E+03  0.17019098932E+03 0.  0.
        -24    2    5    5    0    0 -0.13505078867E+03  0.58961924070E+02 -0.10870854597E+03  0.19885274566E+03  0.77521883862E+02 0.  0.
          5    1    3    3  501    0  0.17018560518E+03 -0.15945599411E+02 -0.20172832099E+03  0.26445001010E+03  0.47000000000E+01 0. -1.
        -13    1    4    4    0    0  0.13460993218E+01  0.18266577797E+02 -0.10978615678E+02  0.21354387137E+02  0.00000000000E+00 0.  1.
         14    1    4    4    0    0  0.66089064708E+02 -0.71022351724E+02 -0.30886270358E+02  0.10181306701E+03  0.00000000000E+00 0. -1.
         -5    1    5    5    0  502 -0.10256998054E+03  0.97394492688E+01  0.37463313229E+02  0.10973170745E+03  0.47000000000E+01 0.  1.
         13    1    6    6    0    0 -0.82374393119E+02  0.72013974904E+02 -0.54845591909E+02  0.12239114419E+03  0.00000000000E+00 0. -1.
        -14    1    6    6    0    0 -0.52676395550E+02 -0.13052050834E+02 -0.53862954062E+02  0.76461601470E+02  0.00000000000E+00 0.  1.
</event>
<event>
12    1  0.8406581E-002  0.2348705E+03  0.7818608E-02  0.1123260E+00
         21   -1    0    0  503  502  0.00000000000E+00  0.00000000000E+00  0.16121846272E+03  0.16121846272E+03  0.00000000000E+00 0. -1.
         21   -1    0    0  501  503 -0.00000000000E+00 -0.00000000000E+00 -0.45293163907E+03  0.45293163907E+03  0.00000000000E+00 0.  1.
          6    2    1    2  501    0  0.14758004075E+03 -0.61009735600E+02 -0.29771960157E+03  0.37920276543E+03  0.17220836184E+03 0.  0.
         24    2    3    3    0    0  0.13739725394E+03  0.12753720019E+02 -0.19690933895E+03  0.25378532015E+03  0.81197525782E+02 0.  0.
         -6    2    1    2    0  502 -0.14758004075E+03  0.61009735600E+02  0.60064252214E+01  0.23494733636E+03  0.17222693591E+03 0.  0.
        -24    2    5    5    0    0 -0.11242109567E+03 -0.21864495297E+02  0.29267483363E+02  0.14184816132E+03  0.78407629620E+02 0.  0.
          5    1    3    3  501    0  0.10182786813E+02 -0.73763455619E+02 -0.10081026262E+03  0.12541744528E+03  0.47000000000E+01 0. -1.
        -13    1    4    4    0    0  0.43952349853E+02 -0.31888745220E+02 -0.48451750877E+02  0.72775499259E+02  0.00000000000E+00 0.  1.
         14    1    4    4    0    0  0.93444904086E+02  0.44642465239E+02 -0.14845758807E+03  0.18100982089E+03  0.00000000000E+00 0. -1.
         -5    1    5    5    0  502 -0.35158945081E+02  0.82874230897E+02 -0.23261058142E+02  0.93099175033E+02  0.47000000000E+01 0.  1.
         11    1    6    6    0    0 -0.10149412524E+03 -0.39007235910E+01  0.49215843545E+02  0.11286484111E+03  0.00000000000E+00 0. -1.
        -12    1    6    6    0    0 -0.10926970425E+02 -0.17963771706E+02 -0.19948360181E+02  0.28983320212E+02  0.00000000000E+00 0.  1.
</event>
<event>
12    1  0.8406581E-002  0.1804891E+03  0.7818608E-02  0.1167352E+00
         21   -1    0    0  501  502  0.00000000000E+00  0.00000000000E+00  0.18160752753E+03  0.18160752753E+03  0.00000000000E+00 0.  1.
         21   -1    0    0  502  503 -0.00000000000E+00 -0.00000000000E+00 -0.40368137190E+03  0.40368137190E+03  0.00000000000E+00 0.  1.
         -6    2    1    2    0  503 -0.37640656509E+02  0.40640917889E+02 -0.32921011607E+03  0.37539723407E+03  0.17168366140E+03 0.  0.
        -24    2    3    3    0    0  0.42302949744E+02 -0.16405446991E+01 -0.14010288135E+03  0.16572525577E+03  0.77741958381E+02 0.  0.
          6    2    1    2  501    0  0.37640656509E+02 -0.40640917889E+02  0.10713627171E+03  0.20989166536E+03  0.17177842485E+03 0.  0.
         24    2    5    5    0    0  0.87019451567E+02 -0.37852056526E+01  0.57150448030E+02  0.13041033740E+03  0.78447241233E+02 0.  0.
          5    1    5    5  501    0 -0.49378795058E+02 -0.36855712236E+02  0.49985823681E+02  0.79481327964E+02  0.47000000000E+01 0. -1.
        -13    1    6    6    0    0  0.40478303896E+02 -0.17786330303E+02 -0.12069944844E+02  0.45831541545E+02  0.00000000000E+00 0.  1.
         14    1    6    6    0    0  0.46541147671E+02  0.14001124650E+02  0.69220392874E+02  0.84578795851E+02  0.00000000000E+00 0. -1.
         -5    1    3    3    0  503 -0.79943606252E+02  0.42281462588E+02 -0.18910723472E+03  0.20967197830E+03  0.47000000000E+01 0.  1.
         13    1    4    4    0    0  0.28574649559E+02 -0.38553701503E+02 -0.63525047321E+02  0.79613630329E+02  0.00000000000E+00 0. -1.
        -14    1    4    4    0    0  0.13728300184E+02  0.36913156804E+02 -0.76577834032E+02  0.86111625441E+02  0.00000000000E+00 0.  1.
</event>
<event>
12    1  0.8406581E-002  0.2538903E+03  0.7818608E-02  0.1111035E+00
         21   -1    0    0  503  502  0.00000000000E+00  0.00000000000E+00  0.20533160474E+04  0.20533160474E+04  0.00000000000E+00 0. -1.
         21   -1    0    0  501  503 -0.00000000000E+00 -0.00000000000E+00 -0.42004263745E+02  0.42004263745E+02  0.00000000000E+00 0. -1.
          6    2    1    2  501    0 -0.16954688119E+03  0.77863614559E+02  0.47742553815E+03  0.54073599780E+03  0.17219578232E+03 0.  0.
         24    2    3    3    0    0 -0.16002045687E+03  0.42488919156E+02  0.46793185716E+03  0.50260016408E+03  0.78961048128E+02 0.  0.
         -6    2    1    2    0  502  0.16954688119E+03 -0.77863614559E+02  0.15338862455E+04  0.15545843133E+04  0.17063553482E+03 0.  0.
        -24    2    5    5    0    0  0.16611153993E+03 -0.11437821355E+03  0.12904037663E+04  0.13083102278E+04  0.76539876943E+02 0.  0.
          5    1    3    3  501    0 -0.95264243157E+01  0.35374695402E+02  0.94936809941E+01  0.38135833725E+02  0.47000000000E+01 0. -1.
        -11    1    4    4    0    0 -0.83078583414E+02 -0.17846091095E+02  0.23925385858E+03  0.25389553528E+03  0.00000000000E+00 0.  1.
         12    1    4    4    0    0 -0.76941873458E+02  0.60335010251E+02  0.22867799857E+03  0.24870462880E+03  0.00000000000E+00 0. -1.
         -5    1    5    5    0  502  0.34353412562E+01  0.36514598986E+02  0.24348247918E+03  0.24627408548E+03  0.47000000000E+01 0.  1.
         11    1    6    6    0    0  0.10273297779E+03 -0.82224527473E+02  0.10304214566E+04  0.10387893510E+04  0.00000000000E+00 0. -1.
        -12    1    6    6    0    0  0.63378562139E+02 -0.32153686072E+02  0.25998230969E+03  0.26952087678E+03  0.00000000000E+00 0.  1.
</event>
<event>
12    1  0.8406581E-002  0.1832076E+03  0.7818608E-02  0.1165206E+00
         21   -1    0    0  501  502  0.00000000000E+00  0.00000000000E+00  0.21929577269E+03  0.21929577269E+03  0.00000000000E+00 0. -1.
         21   -1    0    0  502  503 -0.00000000000E+00 -0.00000000000E+00 -0.20945581393E+03  0.20945581393E+03  0.00000000000E+00 0. -1.
         -6    2    1    2    0  503 -0.55200221051E+02 -0.17011223264E+02 -0.10791865483E+03  0.21262986896E+03  0.17386367934E+03 0.  0.
        -24    2    3    3    0    0 -0.26100013779E+02 -0.52108428677E+01  0.14878520115E+02  0.85794119998E+02  0.80192874140E+02 0.  0.
          6    2    1    2  501    0  0.55200221051E+02  0.17011223264E+02  0.11775861359E+03  0.21612171766E+03  0.17177036895E+03 0.  0.
         24    2    5    5    0    0 -0.10064404963E+02 -0.10230229460E+02  0.13259963993E+03  0.14370684199E+03  0.53507402127E+02 0.  0.
          5    1    5    5  501    0  0.65264626014E+02  0.27241452725E+02 -0.14841026342E+02  0.72414875670E+02  0.47000000000E+01 0. -1.
        -13    1    6    6    0    0 -0.23869089896E+02  0.13214436964E+02  0.53428910618E+02  0.59991693480E+02  0.00000000000E+00 0.  1.
         14    1    6    6    0    0  0.13804684933E+02 -0.23444666424E+02  0.79170729317E+02  0.83715148512E+02  0.00000000000E+00 0. -1.
         -5    1    3    3    0  503 -0.29100207272E+02 -0.11800380397E+02 -0.12279717495E+03  0.12683574896E+03  0.47000000000E+01 0.  1.
         11    1    4    4    0    0 -0.38566246905E+01 -0.25303186115E+02 -0.25085219018E+02  0.35838429022E+02  0.00000000000E+00 0. -1.
        -12    1    4    4    0    0 -0.22243389089E+02  0.20092343247E+02  0.39963739134E+02  0.49955690976E+02  0.00000000000E+00 0.  1.
</event>
<event>
12    1  0.8406581E-002  0.1787612E+03  0.7818608E-02  0.1169603E+00
         21   -1    0    0  503  502  0.00000000000E+00  0.00000000000E+00  0.77307511306E+03  0.77307511306E+03  0.00000000000E+00 0. -1.
         21   -1    0    0  501  503 -0.00000000000E+00 -0.00000000000E+00 -0.10879082995E+03  0.10879082995E+03  0.00000000000E+00 0. -1.
          6    2    1    2  501    0  0.77842522348E+01  0.47714812339E+02 -0.17341154535E+02  0.17718955057E+03  0.16958220216E+03 0.  0.
         24    2    3    3    0    0  0.71688374570E+02  0.41118138049E+02 -0.72366068285E+01  0.11198644598E+03  0.75224140279E+02 0.  0.
         -6    2    1    2    0  502 -0.77842522348E+01 -0.47714812339E+02  0.68162543764E+03  0.70467639244E+03  0.17209963078E+03 0.  0.
        -24    2    5    5    0    0  0.25751731912E+02 -0.91395283216E+02  0.44530085285E+03  0.46197483672E+03  0.78177047298E+02 0.  0.
          5    1    3    3  501    0 -0.63904122335E+02  0.65966742907E+01 -0.10104547707E+02  0.65203104585E+02  0.47000000000E+01 0. -1.
        -11    1    4    4    0    0  0.74709784388E+02  0.27135554441E+02  0.19340161287E+02  0.81804229944E+02  0.00000000000E+00 0.  1.
         12    1    4    4    0    0 -0.30214098178E+01  0.13982583608E+02 -0.26576768115E+02  0.30182216040E+02  0.00000000000E+00 0. -1.
         -5    1    5    5    0  502 -0.33535984147E+02  0.43680470877E+02  0.23632458480E+03  0.24270155572E+03  0.47000000000E+01 0.  1.
         11    1    6    6    0    0  0.60464427146E+01 -0.66898402230E+02  0.40661171067E+03  0.41212260183E+03  0.00000000000E+00 0. -1.
        -12    1    6    6    0    0  0.19705289198E+02 -0.24496880986E+02  0.38689142179E+02  0.49852234884E+02  0.00000000000E+00 0.  1.
</event>
<event>
12    1  0.8406581E-002  0.1788515E+03  0.7818608E-02  0.1168947E+00
         21   -1    0    0  503  502  0.00000000000E+00  0.00000000000E+00  0.12430126814E+04  0.12430126814E+04  0.00000000000E+00 0.  1.
         21   -1    0    0  501  503 -0.00000000000E+00 -0.00000000000E+00 -0.38286993144E+02  0.38286993144E+02  0.00000000000E+00 0.  1.
          6    2    1    2  501    0 -0.23824211533E+02 -0.42704834858E+02  0.23542284567E+03  0.29565483419E+03  0.17203653316E+03 0.  0.
         24    2    3    3    0    0 -0.63556507655E+02 -0.75975877370E+02  0.16533273866E+03  0.20836032849E+03  0.79166586441E+02 0.  0.
         -6    2    1    2    0  502  0.23824211533E+02  0.42704834858E+02  0.96930284262E+03  0.98564484039E+03  0.17191990778E+03 0.  0.
        -24    2    5    5    0    0 -0.43912247108E+02  0.49131718347E+02  0.47601101541E+03  0.48766045363E+03  0.82969994862E+02 0.  0.
          5    1    3    3  501    0  0.39732296123E+02  0.33271042512E+02  0.70090107011E+02  0.87294505702E+02  0.47000000000E+01 0. -1.
        -13    1    4    4    0    0 -0.25257269717E+02 -0.82839775617E+01  0.10553639318E+01  0.26602025314E+02  0.00000000000E+00 0.  1.
         14    1    4    4    0    0 -0.38299237939E+02 -0.67691899809E+02  0.16427737473E+03  0.18175830318E+03  0.00000000000E+00 0. -1.
         -5    1    5    5    0  502  0.67736458641E+02 -0.64268834892E+01  0.49329182721E+03  0.49798438676E+03  0.47000000000E+01 0.  1.
         11    1    6    6    0    0 -0.79179047341E+01 -0.60957786136E+01  0.35223032970E+01  0.10595204236E+02  0.00000000000E+00 0. -1.
        -12    1    6    6    0    0 -0.35994342374E+02  0.55227496961E+02  0.47248871212E+03  0.47706524940E+03  0.00000000000E+00 0.  1.
</event>
<event>
12    1  0.8406581E-002  0.2001164E+03  0.7818608E-02  0.1151250E+00
         21   -1    0    0  501  502  0.00000000000E+00  0.00000000000E+00  0.10098683487E+03  0.10098683487E+03  0.00000000000E+00 0. -1.
         21   -1    0    0  502  503 -0.00000000000E+00 -0.00000000000E+00 -0.49252871585E+03  0.49252871585E+03  0.00000000000E+00 0. -1.
         -6    2    1    2    0  503 -0.83484717608E+02 -0.29980058710E+02 -0.33930456043E+03  0.39392152464E+03  0.17938249874E+03 0.  0.
        -24    2    3    3    0    0 -0.20481880590E+02 -0.58801853180E+02 -0.91824399087E+02  0.13688344660E+03  0.80176008347E+02 0.  0.
          6    2    1    2  501    0  0.83484717608E+02  0.29980058710E+02 -0.52237320553E+02  0.19959402607E+03  0.17099864207E+03 0.  0.
         24    2    5    5    0    0  0.29172731603E+02 -0.45891842443E+02  0.82156338855E+00  0.92152542582E+02  0.74392920805E+02 0.  0.
          5    1    5    5  501    0  0.54311986006E+02  0.75871901154E+02 -0.53058883942E+02  0.10744148349E+03  0.47000000000E+01 0. -1.
        -13    1    6    6    0    0  0.52297621059E+02 -0.16686733447E+02  0.77221420171E+00  0.54900679015E+02  0.00000000000E+00 0.  1.
         14    1    6    6    0    0 -0.23124889457E+02 -0.29205108996E+02  0.49349186844E-01  0.37251863567E+02  0.00000000000E+00 0. -1.
         -5    1    3    3    0  503 -0.63002837018E+02  0.28821794469E+02 -0.24748016134E+03  0.25703807805E+03  0.47000000000E+01 0.  1.
         13    1    4    4    0    0 -0.37299437258E+01 -0.73139925778E+02 -0.88027985737E+02  0.11450889702E+03  0.00000000000E+00 0. -1.
        -14    1    4    4    0    0 -0.16751936865E+02  0.14338072598E+02 -0.37964133496E+01  0.22374549579E+02  0.00000000000E+00 0.  1.
</event>
<event>
12    1  0.8406581E-002  0.2052667E+03  0.7818608E-02  0.1148858E+00
         21   -1    0    0  501  502  0.00000000000E+00  0.00000000000E+00  0.47194765123E+03  0.47194765123E+03  0.00000000000E+00 0. -1.
         21   -1    0    0  502  503 -0.00000000000E+00 -0.00000000000E+00 -0.85315468898E+02  0.85315468898E+02  0.00000000000E+00 0.  1.
         -6    2    1    2    0  503  0.80763097787E+02  0.76865153838E+02  0.13326859747E+03  0.23118413050E+03  0.15249476477E+03 0.  0.
        -24    2    3    3    0    0  0.78533373288E+02  0.56182083679E+01  0.50806039949E+02  0.12208205763E+03  0.78254201896E+02 0.  0.
          6    2    1    2  501    0 -0.80763097787E+02 -0.76865153838E+02  0.25336358485E+03  0.32607898963E+03  0.17234695097E+03 0.  0.
         24    2    5    5    0    0  0.18098572315E+02 -0.21017155217E+02  0.64534595942E+02  0.10569045586E+03  0.78971382490E+02 0.  0.
          5    1    5    5  501    0 -0.98861670102E+02 -0.55847998621E+02  0.18882898891E+03  0.22038853377E+03  0.47000000000E+01 0. -1.
        -11    1    6    6    0    0  0.39547953204E+00 -0.43879801843E+02  0.11625275691E+02  0.45395379156E+02  0.00000000000E+00 0.  1.
         12    1    6    6    0    0  0.17703092783E+02  0.22862646626E+02  0.52909320251E+02  0.60295076700E+02  0.00000000000E+00 0. -1.
         -5    1    3    3    0  503  0.22297244988E+01  0.71246945470E+02  0.82462557525E+02  0.10910207287E+03  0.47000000000E+01 0.  1.
         11    1    4    4    0    0  0.68784963520E+02  0.33042714872E+02  0.18346338987E+02  0.78484268275E+02  0.00000000000E+00 0. -1.
        -12    1    4    4    0    0  0.97484097686E+01 -0.27424506504E+02  0.32459700962E+02  0.43597789354E+02  0.00000000000E+00 0.  1.
</event>
<event>
12    1  0.8406581E-002  0.1993292E+03  0.7818608E-02  0.1150420E+00
         21   -1    0    0  501  502  0.00000000000E+00  0.00000000000E+00  0.17552251535E+04  0.17552251535E+04  0.00000000000E+00 0.  1.
         21   -1    0    0  502  503 -0.00000000000E+00 -0.00000000000E+00 -0.23919624823E+02  0.23919624823E+02  0.00000000000E+00 0.  1.
         -6    2    1    2    0  503  0.97811201567E+02 -0.20977282270E+02  0.65368604481E+03  0.68324520602E+03  0.17178908242E+03 0.  0.
        -24    2    3    3    0    0  0.43263647074E+02  0.15506199356E+02  0.56674829173E+03  0.57421886496E+03  0.80071801039E+02 0.  0.
          6    2    1    2  501    0 -0.97811201567E+02  0.20977282270E+02  0.10776194838E+04  0.10958995723E+04  0.17240952136E+03 0.  0.
         24    2    5    5    0    0 -0.18588024407E+02  0.64686553486E+02  0.46447441332E+03  0.47609655544E+03  0.80009903234E+02 0.  0.
          5    1    5    5  501    0 -0.79223177160E+02 -0.43709271216E+02  0.61314507050E+03  0.61980301683E+03  0.47000000000E+01 0. -1.
        -11    1    6    6    0    0 -0.40214307127E+02  0.70846082702E+02  0.38357025085E+03  0.39212561160E+03  0.00000000000E+00 0.  1.
         12    1    6    6    0    0  0.21626282720E+02 -0.61595292163E+01  0.80904162470E+02  0.83970943840E+02  0.00000000000E+00 0. -1.
         -5    1    3    3    0  503  0.54547554493E+02 -0.36483481626E+02  0.86937753079E+02  0.10902634105E+03  0.47000000000E+01 0.  1.
         11    1    4    4    0    0 -0.15106958221E+02  0.28651212548E+01  0.26181283226E+02  0.30362620075E+02  0.00000000000E+00 0. -1.
        -12    1    4    4    0    0  0.58370605295E+02  0.12641078101E+02  0.54056700851E+03  0.54385624489E+03  0.00000000000E+00 0.  1.
</event>
<event>
12    1  0.8406581E-002  0.1937274E+03  0.7818608E-02  0.1155413E+00
         21   -1    0    0  503  502  0.00000000000E+00  0.00000000000E+00  0.15067970409E+03  0.15067970409E+03  0.00000000000E+00 0. -1.
         21   -1    0    0  501  503 -0.00000000000E+00 -0.00000000000E+00 -0.46217296364E+03  0.46217296364E+03  0.00000000000E+00 0. -1.
          6    2    1    2  501    0 -0.81615772862E+02 -0.36933481741E+02  0.52828131670E+02  0.20080114829E+03  0.17177040841E+03 0.  0.
         24    2    3    3    0    0 -0.89148205083E+02  0.19901546237E+02  0.37178117856E+01  0.12516470562E+03  0.85492148154E+02 0.  0.
         -6    2    1    2    0  502  0.81615772862E+02  0.36933481741E+02 -0.36432139122E+03  0.41205151944E+03  0.17038533423E+03 0.  0.
        -24    2    5    5    0    0  0.96927246005E+02 -0.13259922027E+02 -0.31695767280E+03  0.34120498943E+03  0.79924726578E+02 0.  0.
          5    1    3    3  501    0  0.75324322207E+01 -0.56835027978E+02  0.49110319885E+02  0.75636442669E+02  0.47000000000E+01 0. -1.
        -13    1    4    4    0    0 -0.35398488808E+02 -0.31729243555E+02 -0.11925508645E+02  0.49010362811E+02  0.00000000000E+00 0.  1.
         14    1    4    4    0    0 -0.53749716275E+02  0.51630789792E+02  0.15643320431E+02  0.76154342807E+02  0.00000000000E+00 0. -1.
         -5    1    5    5    0  502 -0.15311473143E+02  0.50193403768E+02 -0.47363718424E+02  0.70846530011E+02  0.47000000000E+01 0.  1.
         11    1    6    6    0    0  0.46346468103E+02  0.11406079678E+02 -0.24626966020E+03  0.25085222601E+03  0.00000000000E+00 0. -1.
        -12    1    6    6    0    0  0.50580777902E+02 -0.24666001705E+02 -0.70688012600E+02  0.90352763425E+02  0.00000000000E+00 0.  1.
</event>
<event>
12    1  0.8406581E-002  0.1797213E+03  0.7818608E-02  0.1168328E+00
         21   -1    0    0  503  502  0.00000000000E+00  0.00000000000E+00  0.69827920844E+02  0.69827920844E+02  0.00000000000E+00 0.  1.
         21   -1    0    0  501  503 -0.00000000000E+00 -0.00000000000E+00 -0.10021864634E+04  0.10021864634E+04  0.00000000000E+00 0.  1.
          6    2    1    2  501    0 -0.40968289814E+02 -0.19112518125E+02 -0.85985039907E+03  0.87821765271E+03  0.17285788276E+03 0.  0.
         24    2    3    3    0    0 -0.68203823755E+02  0.34725719998E+02 -0.41925647856E+03  0.43348692184E+03  0.79229283628E+02 0.  0.
         -6    2    1    2    0  502  0.40968289814E+02  0.19112518125E+02 -0.72508143457E+02  0.19379673151E+03  0.17394267204E+03 0.  0.
        -24    2    5    5    0    0 -0.21932878885E+02  0.47089517669E+02 -0.21161897471E+01  0.95224997859E+02  0.79779998168E+02 0.  0.
          5    1    3    3  501    0  0.27235533942E+02 -0.53838238123E+02 -0.44059392052E+03  0.44473073088E+03  0.47000000000E+01 0. -1.
        -13    1    4    4    0    0 -0.25771538331E+02 -0.17376016199E+02 -0.24082639888E+03  0.24282391258E+03  0.00000000000E+00 0.  1.
         14    1    4    4    0    0 -0.42432285424E+02  0.52101736198E+02 -0.17843007968E+03  0.19066300925E+03  0.00000000000E+00 0. -1.
         -5    1    5    5    0  502  0.62901168698E+02 -0.27976999545E+02 -0.70391953710E+02  0.98571733647E+02  0.47000000000E+01 0.  1.
         11    1    6    6    0    0  0.21289764557E+02  0.28526290789E+02 -0.24418506067E+02  0.43165574010E+02  0.00000000000E+00 0. -1.
        -12    1    6    6    0    0 -0.43222643441E+02  0.18563226881E+02  0.22302316320E+02  0.52059423849E+02  0.00000000000E+00 0.  1.
</event>
<event>
12    1  0.8406581E-002  0.1798111E+03  0.7818608E-02  0.1169014E+00
         21   -1    0    0  503  502  0.00000000000E+00  0.00000000000E+00  0.88126237816E+03  0.88126237816E+03  0.00000000000E+00 0. -1.
         21   -1    0    0  501  503 -0.00000000000E+00 -0.00000000000E+00 -0.30426307067E+03  0.30426307067E+03  0.00000000000E+00 0. -1.
          6    2    1    2  501    0 -0.29132844267E+02  0.43339748424E+02 -0.26865582804E+03  0.32096507660E+03  0.16767698128E+03 0.  0.
         24    2    3    3    0    0 -0.28345626605E+02  0.17298596817E+01 -0.52829586773E+02  0.10111271939E+03  0.81402394451E+02 0.  0.
         -6    2    1    2    0  502  0.29132844267E+02 -0.43339748424E+02  0.84565513553E+03  0.86456037223E+03  0.17206095599E+03 0.  0.
        -24    2    5    5    0    0 -0.16021367078E+02 -0.83865681036E+02  0.62387380225E+03  0.63458145187E+03  0.78644524750E+02 0.  0.
          5    1    3    3  501    0 -0.78721766133E+00  0.41609888742E+02 -0.21582624126E+03  0.21985235721E+03  0.47000000000E+01 0. -1.
        -11    1    4    4    0    0  0.16686558194E+02  0.26841141831E+02 -0.33479611044E+02  0.46040986901E+02  0.00000000000E+00 0.  1.
         12    1    4    4    0    0 -0.45032184799E+02 -0.25111282150E+02 -0.19349975729E+02  0.55071732492E+02  0.00000000000E+00 0. -1.
         -5    1    5    5    0  502  0.45154211345E+02  0.40525932613E+02  0.22178133328E+03  0.22997892036E+03  0.47000000000E+01 0.  1.
         13    1    6    6    0    0 -0.52151984994E+01 -0.76408193221E+02  0.61232355619E+03  0.61709443990E+03  0.00000000000E+00 0. -1.
        -14    1    6    6    0    0 -0.10806168579E+02 -0.74574878157E+01  0.11550246056E+02  0.17487011976E+02  0.00000000000E+00 0.  1.
</event>
<event>
12    1  0.8406581E-002  0.2437817E+03  0.7818608E-02  0.1117533E+00
         21   -1    0    0  503  502  0.00000000000E+00  0.00000000000E+00  0.96970407111E+03  0.96970407111E+03  0.00000000000E+00 0.  1.
         21   -1    0    0  501  503 -0.00000000000E+00 -0.00000000000E+00 -0.11066381298E+03  0.11066381298E+03  0.00000000000E+00 0.  1.
          6    2    1    2  501    0 -0.97827279536E+02  0.13984882556E+03  0.68076441470E+02  0.25310847763E+03  0.17407363078E+03 0.  0.
         24    2    3    3    0    0 -0.94456560166E+02  0.65041412197E+02  0.99799506471E+02  0.17164711442E+03  0.79689167004E+02 0.  0.
         -6    2    1    2    0  502  0.97827279536E+02 -0.13984882556E+03  0.79096381666E+03  0.82725940647E+03  0.17206538202E+03 0.  0.
        -24    2    5    5    0    0  0.11811119707E+03 -0.80564245848E+02  0.41623410658E+03  0.44729816592E+03  0.79899719475E+02 0.  0.
          5    1    3    3  501    0 -0.33707193702E+01  0.74807413363E+02 -0.31723065001E+02  0.81461363211E+02  0.47000000000E+01 0. -1.
        -13    1    4    4    0    0 -0.51395299761E+02  0.78613603926E+02  0.59935399983E+02  0.11141735830E+03  0.00000000000E+00 0.  1.
         14    1    4    4    0    0 -0.43061260405E+02 -0.13572191729E+02  0.39864106488E+02  0.60229756119E+02  0.00000000000E+00 0. -1.
         -5    1    5    5    0  502 -0.20283917529E+02 -0.59284579712E+02  0.37472971008E+03  0.37996124055E+03  0.47000000000E+01 0.  1.
         11    1    6    6    0    0 -0.82910158487E+01  0.78236359258E+00  0.56500337728E+01  0.10063593703E+02  0.00000000000E+00 0. -1.
        -12    1    6    6    0    0  0.12640221291E+03 -0.81346609441E+02  0.41058407281E+03  0.43723457222E+03  0.00000000000E+00 0.  1.
</event>
<event>
12    1  0.8406581E-002  0.1896791E+03  0.7818608E-02  0.1159075E+00
         21   -1    0    0  501  502  0.00000000000E+00  0.00000000000E+00  0.83077402243E+03  0.83077402243E+03  0.00000000000E+00 0.  1.
         21   -1    0    0  502  503 -0.00000000000E+00 -0.00000000000E+00 -0.78865787597E+02  0.78865787597E+02  0.00000000000E+00 0.  1.
         -6    2    1    2    0  503 -0.19965727313E+02  0.75341771543E+02  0.68386015573E+02  0.20028744831E+03  0.17135752688E+03 0.  0.
        -24    2    3    3    0    0 -0.79339141276E+02  0.42181417138E+02  0.37143688494E+02  0.12530088691E+03  0.79035987843E+02 0.  0.
          6    2    1    2  501    0  0.19965727313E+02 -0.75341771543E+02  0.68352221926E+03  0.70935236171E+03  0.17292523253E+03 0.  0.
         24    2    5    5    0    0 -0.77213098756E+01 -0.11305890773E+03  0.56906287622E+03  0.58560994539E+03  0.79148694251E+02 0.  0.
          5    1    5    5  501    0  0.27687037189E+02  0.37717136185E+02  0.11445934303E+03  0.12374241632E+03  0.47000000000E+01 0. -1.
        -11    1    6    6    0    0 -0.38093756955E+02 -0.34163073651E+02  0.27106771230E+03  0.27585495205E+03  0.00000000000E+00 0.  1.
         12    1    6    6    0    0  0.30372447079E+02 -0.78895834076E+02  0.29799516393E+03  0.30975499334E+03  0.00000000000E+00 0. -1.
         -5    1    3    3    0  503  0.59373413963E+02  0.33160354405E+02  0.31242327079E+02  0.74986561403E+02  0.47000000000E+01 0.  1.
         13    1    4    4    0    0 -0.68661256534E+02  0.66949031230E+01 -0.50164309017E+01  0.69169028153E+02  0.00000000000E+00 0. -1.
        -14    1    4    4    0    0 -0.10677884741E+02  0.35486514015E+02  0.42160119396E+02  0.56131858752E+02  0.00000000000E+00 0.  1.
</event>
<event>
12    1  0.8406581E-002  0.1799864E+03  0.7818608E-02  0.1168240E+00
         21   -1    0    0  501  502  0.00000000000E+00  0.00000000000E+00  0.98863411267E+02  0.98863411267E+02  0.00000000000E+00 0. -1.
         21   -1    0    0  502  503 -0.00000000000E+00 -0.00000000000E+00 -0.76930776686E+03  0.76930776686E+03  0.00000000000E+00 0. -1.
         -6    2    1    2    0  503  0.44153878541E+02  0.16953604212E+02 -0.66460258301E+03  0.68809000906E+03  0.17185539717E+03 0.  0.
        -24    2    3    3    0    0  0.57280810771E+02  0.68596871377E+02 -0.52649918697E+03  0.53998875521E+03  0.79998998936E+02 0.  0.
          6    2    1    2  501    0 -0.44153878541E+02 -0.16953604212E+02 -0.58417725768E+01  0.18008116906E+03  0.17366090941E+03 0.  0.
         24    2    5    5    0    0 -0.31446579588E+02  0.49771632947E+02 -0.37036102450E+02  0.10518851964E+03  0.78910385668E+02 0.  0.
          5    1    5    5  501    0 -0.12707298954E+02 -0.66725237159E+02  0.31194329873E+02  0.74892649418E+02  0.47000000000E+01 0. -1.
        -13    1    6    6    0    0  0.30943001296E+00  0.52080652022E+02 -0.48676674542E+02  0.71287507366E+02  0.00000000000E+00 0.  1.
         14    1    6    6    0    0 -0.31756009601E+02 -0.23090190745E+01  0.11640572092E+02  0.33901012278E+02  0.00000000000E+00 0. -1.
         -5    1    3    3    0  503 -0.13126932229E+02 -0.51643267165E+02 -0.13810339604E+03  0.14810125385E+03  0.47000000000E+01 0.  1.
         13    1    4    4    0    0 -0.15505041587E+02  0.30986838798E+02 -0.10402725178E+03  0.10964606516E+03  0.00000000000E+00 0. -1.
        -14    1    4    4    0    0  0.72785852358E+02  0.37610032578E+02 -0.42247193519E+03  0.43034269005E+03  0.00000000000E+00 0.  1.
</event>
<event>
12    1  0.8406581E-002  0.2044666E+03  0.7818608E-02  0.1146099E+00
         21   -1    0    0  501  502  0.00000000000E+00  0.00000000000E+00  0.12677952630E+03  0.12677952630E+03  0.00000000000E+00 0.  1.
         21   -1    0    0  502  503 -0.00000000000E+00 -0.00000000000E+00 -0.46219255784E+03  0.46219255784E+03  0.00000000000E+00 0. -1.
         -6    2    1    2    0  503  0.61098661484E+02 -0.86396824371E+02 -0.32579693670E+03  0.38464302200E+03  0.17495471619E+03 0.  0.
        -24    2    3    3    0    0  0.51091348470E+02  0.20704504006E+01 -0.25150987984E+03  0.26859448976E+03  0.79190704107E+02 0.  0.
          6    2    1    2  501    0 -0.61098661484E+02  0.86396824371E+02 -0.96160948431E+01  0.20432906214E+03  0.17452919142E+03 0.  0.
         24    2    5    5    0    0 -0.69788300668E+02  0.59690901283E+02  0.55003259840E+02  0.13371414051E+03  0.80129284113E+02 0.  0.
          5    1    5    5  501    0  0.86896391841E+01  0.26705923089E+02 -0.64619354683E+02  0.70614921630E+02  0.47000000000E+01 0. -1.
        -11    1    6    6    0    0 -0.66347379649E+02  0.14806195850E+02  0.76997372287E+01  0.68414064162E+02  0.00000000000E+00 0.  1.
         12    1    6    6    0    0 -0.34409210195E+01  0.44884705433E+02  0.47303522611E+02  0.65300076345E+02  0.00000000000E+00 0. -1.
         -5    1    3    3    0  503  0.10007313014E+02 -0.88467274772E+02 -0.74287056854E+02  0.11604853224E+03  0.47000000000E+01 0.  1.
         13    1    4    4    0    0  0.21837071378E+02 -0.35919366677E+02 -0.15815384581E+03  0.16364503516E+03  0.00000000000E+00 0. -1.
        -14    1    4    4    0    0  0.29254277092E+02  0.37989817077E+02 -0.93356034030E+02  0.10494945459E+03  0.00000000000E+00 0.  1.
</event>
<event>
12    1  0.8406581E-002  0.1791587E+03  0.7818608E-02  0.1168979E+00
         21   -1    0    0  501  502  0.00000000000E+00  0.00000000000E+00  0.88537439744E+02  0.88537439744E+02  0.00000000000E+00 0. -1.
         21   -1    0    0  502  503 -0.00000000000E+00 -0.00000000000E+00 -0.74928243670E+03  0.74928243670E+03  0.00000000000E+00 0. -1.
         -6    2    1    2    0  503  0.49648060404E+01 -0.43607032086E+02 -0.63313815976E+03  0.65799831254E+03  0.17369981985E+03 0.  0.
        -24    2    3    3    0    0  0.49552331492E+02 -0.19687714734E+02 -0.56428186363E+03  0.57242109194E+03  0.80055263488E+02 0.  0.
          6    2    1    2  501    0 -0.49648060404E+01  0.43607032086E+02 -0.27606837195E+02  0.17982156390E+03  0.17218430485E+03 0.  0.
         24    2    5    5    0    0  0.17934804067E+02  0.92326709492E+02 -0.13756379863E+02  0.12403693988E+03  0.79687175782E+02 0.  0.
          5    1    5    5  501    0 -0.22899610108E+02 -0.48719677406E+02 -0.13850457332E+02  0.55784624028E+02  0.47000000000E+01 0. -1.
        -13    1    6    6    0    0  0.15420331579E+02  0.10820437392E+00 -0.26747067006E+02  0.30874000835E+02  0.00000000000E+00 0.  1.
         14    1    6    6    0    0  0.25144724887E+01  0.92218505118E+02  0.12990687142E+02  0.93162939040E+02  0.00000000000E+00 0. -1.
         -5    1    3    3    0  503 -0.44587525452E+02 -0.23919317352E+02 -0.68856296135E+02  0.85577220602E+02  0.47000000000E+01 0.  1.
         13    1    4    4    0    0 -0.43847170498E+01 -0.36835437351E+02 -0.28982779631E+03  0.29219210582E+03  0.00000000000E+00 0. -1.
        -14    1    4    4    0    0  0.53937048542E+02  0.17147722617E+02 -0.27445406731E+03  0.28022898612E+03  0.00000000000E+00 0.  1.
</event>
<event>
12    1  0.8406581E-002  0.2287936E+03  0.7818608E-02  0.1127820E+00
         21   -1    0    0  501  502  0.00000000000E+00  0.00000000000E+00  0.44392809918E+02  0.44392809918E+02  0.00000000000E+00 0.  1.
         21   -1    0    0  502  503 -0.00000000000E+00 -0.00000000000E+00 -0.12900120386E+04  0.12900120386E+04  0.00000000000E+00 0. -1.
         -6    2    1    2    0  503  0.61631885746E+02 -0.13520811196E+03 -0.82430287596E+03  0.85497397741E+03  0.17153876488E+03 0.  0.
        -24    2    3    3    0    0  0.33567616016E+02 -0.32353169895E+02 -0.59386056218E+03  0.60102025658E+03  0.79884097688E+02 0.  0.
          6    2    1    2  501    0 -0.61631885746E+02  0.13520811196E+03 -0.42131635270E+03  0.47943087108E+03  0.17397346985E+03 0.  0.
         24    2    5    5    0    0  0.23949567721E+02  0.50853355272E+02 -0.11371665814E+03  0.14915890399E+03  0.78468176760E+02 0.  0.
          5    1    5    5  501    0 -0.85581453467E+02  0.84354756692E+02 -0.30759969456E+03  0.33027196709E+03  0.47000000000E+01 0. -1.
        -13    1    6    6    0    0  0.38099998240E+02 -0.52861927229E+01 -0.41179630394E+02  0.56349939297E+02  0.00000000000E+00 0.  1.
         14    1    6    6    0    0 -0.14150430518E+02  0.56139547995E+02 -0.72537027742E+02  0.92808964689E+02  0.00000000000E+00 0. -1.
         -5    1    3    3    0  503  0.28064269729E+02 -0.10285494207E+03 -0.23044231378E+03  0.25395372083E+03  0.47000000000E+01 0.  1.
         13    1    4    4    0    0 -0.30444225741E+01 -0.42632013296E+02 -0.16389369740E+03  0.16937503097E+03  0.00000000000E+00 0. -1.
        -14    1    4    4    0    0  0.36612038590E+02  0.10278843402E+02 -0.42996686478E+03  0.43164522562E+03  0.00000000000E+00 0.  1.
</event>
<event>
12    1  0.8406581E-002  0.2126644E+03  0.7818608E-02  0.1139497E+00
         21   -1    0    0  503  502  0.00000000000E+00  0.00000000000E+00  0.36391708635E+02  0.36391708635E+02  0.00000000000E+00 0.  1.
         21   -1    0    0  501  503 -0.00000000000E+00 -0.00000000000E+00 -0.32996939394E+04  0.32996939394E+04  0.00000000000E+00 0.  1.
          6    2    1    2  501    0  0.12474532963E+03 -0.11817483089E+02 -0.29486875748E+04  0.29563376634E+04  0.17167677907E+03 0.  0.
         24    2    3    3    0    0  0.14563950065E+03 -0.45175466611E+02 -0.22897249034E+04  0.22961837316E+04  0.79799179947E+02 0.  0.
         -6    2    1    2    0  502 -0.12474532963E+03  0.11817483089E+02 -0.31461465604E+03  0.37974798465E+03  0.17182869340E+03 0.  0.
        -24    2    5    5    0    0 -0.15792643063E+03  0.17069372358E+02 -0.25047805955E+03  0.30719344782E+03  0.79977716294E+02 0.  0.
          5    1    3    3  501    0 -0.20894171019E+02  0.33357983522E+02 -0.65896267137E+03  0.66015393183E+03  0.47000000000E+01 0. -1.
        -11    1    4    4    0    0  0.12567592951E+03 -0.16623215036E+02 -0.20528434516E+04  0.20567539977E+04  0.00000000000E+00 0.  1.
         12    1    4    4    0    0  0.19963571138E+02 -0.28552251575E+02 -0.23688145182E+03  0.23942973387E+03  0.00000000000E+00 0. -1.
         -5    1    5    5    0  502  0.33181101001E+02 -0.52518892690E+01 -0.64136596486E+02  0.72554536821E+02  0.47000000000E+01 0.  1.
         11    1    6    6    0    0 -0.56220848550E+02  0.44046707842E+02 -0.11909156895E+03  0.13886575560E+03  0.00000000000E+00 0. -1.
        -12    1    6    6    0    0 -0.10170558208E+03 -0.26977335484E+02 -0.13138649061E+03  0.16832769223E+03  0.00000000000E+00 0.  1.
</event>
<event>
12    1  0.8406581E-002  0.1860307E+03  0.7818608E-02  0.1163114E+00
         21   -1    0    0  501  502  0.00000000000E+00  0.00000000000E+00  0.55732632265E+02  0.55732632265E+02  0.00000000000E+00 0.  1.
         21   -1    0    0  502  503 -0.00000000000E+00 -0.00000000000E+00 -0.71290290400E+03  0.71290290400E+03  0.00000000000E+00 0. -1.
         -6    2    1    2    0  503 -0.39816496204E+02  0.44160992868E+02 -0.47374197565E+03  0.50738211941E+03  0.17166714579E+03 0.  0.
        -24    2    3    3    0    0 -0.88028731431E+01 -0.14240997097E+02 -0.40611341243E+03  0.41268074767E+03  0.71393271136E+02 0.  0.
          6    2    1    2  501    0  0.39816496204E+02 -0.44160992868E+02 -0.18342829608E+03  0.26125341685E+03  0.17627212301E+03 0.  0.
         24    2    5    5    0    0 -0.88866690915E+01 -0.47880411244E+02 -0.26858736961E+02  0.97174322430E+02  0.79686576788E+02 0.  0.
          5    1    5    5  501    0  0.48703165296E+02  0.37194183758E+01 -0.15656955912E+03  0.16407909442E+03  0.47000000000E+01 0. -1.
        -11    1    6    6    0    0  0.14751567642E+02 -0.17718606663E+02  0.24141051440E+02  0.33381853373E+02  0.00000000000E+00 0.  1.
         12    1    6    6    0    0 -0.23638236734E+02 -0.30161804581E+02 -0.50999788401E+02  0.63792469057E+02  0.00000000000E+00 0. -1.
         -5    1    3    3    0  503 -0.31013623061E+02  0.58401989965E+02 -0.67628563222E+02  0.94701371747E+02  0.47000000000E+01 0.  1.
         11    1    4    4    0    0  0.23778704549E+02  0.90477869016E+01 -0.75967919270E+02  0.80115004812E+02  0.00000000000E+00 0. -1.
        -12    1    4    4    0    0 -0.32581577692E+02 -0.23288783999E+02 -0.33014549316E+03  0.33256574286E+03  0.00000000000E+00 0.  1.
</event>
<event>
12    1  0.8406581E-002  0.1925908E+03  0.7818608E-02  0.1156229E+00
         21   -1    0    0  501  502  0.00000000000E+00  0.00000000000E+00  0.60732520016E+03  0.60732520016E+03  0.00000000000E+00 0. -1.
         21   -1    0    0  502  503 -0.00000000000E+00 -0.00000000000E+00 -0.67167982570E+02  0.67167982570E+02  0.00000000000E+00 0. -1.
         -6    2    1    2    0  503  0.64222733345E+02 -0.56144164580E+02  0.16726039235E+03  0.25479892811E+03  0.17224902966E+03 0.  0.
        -24    2    3    3    0    0  0.73744176522E+02 -0.77709711680E+02  0.18255516706E+03  0.22630768673E+03  0.80073573603E+02 0.  0.
          6    2    1    2  501    0 -0.64222733345E+02  0.56144164580E+02  0.37289682524E+03  0.41969425463E+03  0.17266875339E+03 0.  0.
         24    2    5    5    0    0  0.33771298448E+02  0.50746544876E+02  0.19038806904E+03  0.21241786751E+03  0.71819365007E+02 0.  0.
          5    1    5    5  501    0 -0.97994031792E+02  0.53976197037E+01  0.18250875621E+03  0.20727638712E+03  0.47000000000E+01 0. -1.
        -13    1    6    6    0    0  0.10684488594E+02 -0.17398704980E+02  0.61586197275E+02  0.64882454687E+02  0.00000000000E+00 0.  1.
         14    1    6    6    0    0  0.23086809854E+02  0.68145249856E+02  0.12880187176E+03  0.14753541282E+03  0.00000000000E+00 0. -1.
         -5    1    3    3    0  503 -0.95214431770E+01  0.21565547101E+02 -0.15294774711E+02  0.28491241380E+02  0.47000000000E+01 0.  1.
         13    1    4    4    0    0  0.11124154499E+02 -0.69019708607E+02  0.10667728103E+03  0.12754414639E+03  0.00000000000E+00 0. -1.
        -14    1    4    4    0    0  0.62620022023E+02 -0.86900030729E+01  0.75877886036E+02  0.98763540341E+02  0.00000000000E+00 0.  1.
</event>
<event>
12    1  0.8406581E-002  0.1861198E+03  0.7818608E-02  0.1162447E+00
         21   -1    0    0  501  502  0.00000000000E+00  0.00000000000E+00  0.12921711551E+04  0.12921711551E+04  0.00000000000E+00 0.  1.
         21   -1    0    0  502  503 -0.00000000000E+00 -0.00000000000E+00 -0.30451214165E+02  0.30451214165E+02  0.00000000000E+00 0.  1.
         -6    2    1    2    0  503 -0.59447654973E+02  0.31278676334E+02  0.39099317088E+03  0.43222601356E+03  0.17155549495E+03 0.  0.
        -24    2    3    3    0    0 -0.65044515887E+02  0.16835649522E+02  0.10054567702E+03  0.14132781390E+03  0.73142940003E+02 0.  0.
          6    2    1    2  501    0  0.59447654973E+02 -0.31278676334E+02  0.87072677005E+03  0.89039635570E+03  0.17357471846E+03 0.  0.
         24    2    5    5    0    0  0.54521937845E+02 -0.85576694185E+02  0.59453117129E+03  0.60883173398E+03  0.83142975457E+02 0.  0.
          5    1    5    5  501    0  0.49257171277E+01  0.54298017851E+02  0.27619559875E+03  0.28156462172E+03  0.47000000000E+01 0. -1.
        -13    1    6    6    0    0  0.47856200064E+02 -0.19062623552E+02  0.39627637202E+03  0.39961051353E+03  0.00000000000E+00 0.  1.
         14    1    6    6    0    0  0.66657377810E+01 -0.66514070633E+02  0.19825479927E+03  0.20922122045E+03  0.00000000000E+00 0. -1.
         -5    1    3    3    0  503  0.55968609145E+01  0.14443026812E+02  0.29044749386E+03  0.29089819966E+03  0.47000000000E+01 0.  1.
         11    1    4    4    0    0  0.57756241668E+01 -0.19898276409E+01 -0.81821120181E+01  0.10210984558E+02  0.00000000000E+00 0. -1.
        -12    1    4    4    0    0 -0.70820140054E+02  0.18825477163E+02  0.10872778903E+03  0.13111682934E+03  0.00000000000E+00 0.  1.
</event>
<event>
12    1  0.8406581E-002  0.1889373E+03  0.7818608E-02  0.1161781E+00
         21   -1    0    0  503  502  0.00000000000E+00  0.00000000000E+00  0.30785730305E+03  0.30785730305E+03  0.00000000000E+00 0.  1.
         21   -1    0    0  501  503 -0.00000000000E+00 -0.00000000000E+00 -0.19177301136E+03  0.19177301136E+03  0.00000000000E+00 0.  1.
          6    2    1    2  501    0 -0.34261661078E+02 -0.67540193980E+02 -0.10429013567E+03  0.21580951996E+03  0.17309470611E+03 0.  0.
         24    2    3    3    0    0 -0.76284963342E+02 -0.13375451964E+02 -0.34432054952E+02  0.11781962939E+03  0.81838867995E+02 0.  0.
         -6    2    1    2    0  502  0.34261661078E+02  0.67540193980E+02  0.22037442736E+03  0.28382079446E+03  0.16203029319E+03 0.  0.
        -24    2    5    5    0    0  0.27007442397E+02  0.68972522738E+02  0.61741636753E+02  0.12494622913E+03  0.79453883644E+02 0.  0.
          5    1    3    3  501    0  0.42023302264E+02 -0.54164742016E+02 -0.69858080720E+02  0.97989890564E+02  0.47000000000E+01 0. -1.
        -13    1    4    4    0    0 -0.41374288520E+02 -0.40027417223E+02 -0.44496867205E+02  0.72759858927E+02  0.00000000000E+00 0.  1.
         14    1    4    4    0    0 -0.34910674823E+02  0.26651965259E+02  0.10064812253E+02  0.45059770466E+02  0.00000000000E+00 0. -1.
         -5    1    5    5    0  502  0.72542186806E+01 -0.14323287583E+01  0.15863279061E+03  0.15887456533E+03  0.47000000000E+01 0.  1.
         13    1    6    6    0    0  0.55109561752E+02  0.44425680580E+02  0.34495381031E+02  0.78744118535E+02  0.00000000000E+00 0. -1.
        -14    1    6    6    0    0 -0.28102119354E+02  0.24546842158E+02  0.27246255722E+02  0.46202110590E+02  0.00000000000E+00 0.  1.
</event>
<event>
12    1  0.8406581E-002  0.1937069E+03  0.7818608E-02  0.1156400E+00
         21   -1    0    0  503  502  0.00000000000E+00  0.00000000000E+00  0.34266194645E+03  0.34266194645E+03  0.00000000000E+00 0. -1.
         21   -1    0    0  501  503 -0.00000000000E+00 -0.00000000000E+00 -0.18339471417E+03  0.18339471417E+03  0.00000000000E+00 0. -1.
          6    2    1    2  501    0 -0.59619113507E+02  0.64236308176E+02 -0.91471847636E+02  0.20920895995E+03  0.16649488890E+03 0.  0.
         24    2    3    3    0    0 -0.44955557474E+02  0.26413668027E+02  0.13751200165E+02  0.96339337058E+02  0.79834130247E+02 0.  0.
         -6    2    1    2    0  502  0.59619113507E+02 -0.64236308176E+02  0.25073907991E+03  0.31684770067E+03  0.17274732195E+03 0.  0.
        -24    2    5    5    0    0 -0.13328277061E+02 -0.85242246883E+02  0.14526140968E+03  0.18680847517E+03  0.79703485674E+02 0.  0.
          5    1    3    3  501    0 -0.14663556033E+02  0.37822640148E+02 -0.10522304780E+03  0.11286962289E+03  0.47000000000E+01 0. -1.
        -11    1    4    4    0    0  0.20140616288E+02  0.21443729544E+02  0.95024801169E+01  0.30915612392E+02  0.00000000000E+00 0.  1.
         12    1    4    4    0    0 -0.65096173762E+02  0.49699384831E+01  0.42487200483E+01  0.65423724665E+02  0.00000000000E+00 0. -1.
         -5    1    5    5    0  502  0.72947390568E+02  0.21005938708E+02  0.10547767023E+03  0.13003922550E+03  0.47000000000E+01 0.  1.
         11    1    6    6    0    0 -0.10801831270E+02 -0.71944989570E+02  0.15426021760E+03  0.17055490558E+03  0.00000000000E+00 0. -1.
        -12    1    6    6    0    0 -0.25264457913E+01 -0.13297257313E+02 -0.89988079189E+01  0.16253569588E+02  0.00000000000E+00 0.  1.
</event>
<event>
12    1  0.8406581E-002  0.1815755E+03  0.7818608E-02  0.1166328E+00
         21   -1    0    0  503  502  0.00000000000E+00  0.00000000000E+00  0.14911783283E+03  0.14911783283E+03  0.00000000000E+00 0. -1.
         21   -1    0    0  501  503 -0.00000000000E+00 -0.00000000000E+00 -0.60046222243E+03  0.60046222243E+03  0.00000000000E+00 0. -1.
          6    2    1    2  501    0  0.51676707746E+02 -0.26110683957E+02 -0.52361648986E+03  0.55415000566E+03  0.17191785938E+03 0.  0.
         24    2    3    3    0    0  0.47569733370E+02 -0.82115145720E+02 -0.32568781994E+03  0.34835589652E+03  0.79205415829E+02 0.  0.
         -6    2    1    2    0  502 -0.51676707746E+02  0.26110683957E+02  0.72272100273E+02  0.19543004960E+03  0.17209705945E+03 0.  0.
        -24    2    5    5    0    0 -0.18826637388E+01 -0.50853804414E+02  0.21402461621E+02  0.90488211305E+02  0.71696563206E+02 0.  0.
          5    1    3    3  501    0  0.41069743760E+01  0.56004461762E+02 -0.19792866992E+03  0.20579410913E+03  0.47000000000E+01 0. -1.
        -13    1    4    4    0    0 -0.14433334440E+02 -0.52261734084E+02 -0.12703269748E+03  0.13811921018E+03  0.00000000000E+00 0.  1.
         14    1    4    4    0    0  0.62003067810E+02 -0.29853411636E+02 -0.19865512246E+03  0.21023668634E+03  0.00000000000E+00 0. -1.
         -5    1    5    5    0  502 -0.49794044007E+02  0.76964488371E+02  0.50869638651E+02  0.10494183830E+03  0.47000000000E+01 0.  1.
         13    1    6    6    0    0 -0.24001265805E+01 -0.36992500856E+02  0.47906282359E+02  0.60574067195E+02  0.00000000000E+00 0. -1.
        -14    1    6    6    0    0  0.51746284177E+00 -0.13861303558E+02 -0.26503820737E+02  0.29914144110E+02  0.00000000000E+00 0.  1.
</event>
<event>
12    1  0.8406581E-002  0.2108284E+03  0.7818608E-02  0.1140950E+00
         21   -1    0    0  503  502  0.00000000000E+00  0.00000000000E+00  0.62557893234E+03  0.62557893234E+03  0.00000000000E+00 0. -1.
         21   -1    0    0  501  503 -0.00000000000E+00 -0.00000000000E+00 -0.38894594851E+03  0.38894594851E+03  0.00000000000E+00 0. -1.
          6    2    1    2  501    0 -0.51322633684E+01  0.12170642829E+03 -0.34033519476E+03  0.40024409270E+03  0.17183857000E+03 0.  0.
         24    2    3    3    0    0 -0.67628827746E+02  0.80751084430E+02 -0.17793120237E+03  0.22141370521E+03  0.79184089922E+02 0.  0.
         -6    2    1    2    0  502  0.51322633684E+01 -0.12170642829E+03  0.57696817858E+03  0.61428078815E+03  0.17207502078E+03 0.  0.
        -24    2    5    5    0    0 -0.13800218890E+02 -0.11865692195E+03  0.26314832989E+03  0.29984045071E+03  0.79920843282E+02 0.  0.
          5    1    3    3  501    0  0.62496564378E+02  0.40955343865E+02 -0.16240399238E+03  0.17883038750E+03  0.47000000000E+01 0. -1.
        -13    1    4    4    0    0 -0.66941809228E+02  0.20399721899E+02 -0.11166091304E+03  0.13177827581E+03  0.00000000000E+00 0.  1.
         14    1    4    4    0    0 -0.68701851821E+00  0.60351362532E+02 -0.66270289336E+02  0.89635429394E+02  0.00000000000E+00 0. -1.
         -5    1    5    5    0  502  0.18932482259E+02 -0.30495063430E+01  0.31381984869E+03  0.31444033743E+03  0.47000000000E+01 0.  1.
         13    1    6    6    0    0 -0.48928580450E+01 -0.78114128007E+02  0.23972456104E+03  0.25217775917E+03  0.00000000000E+00 0. -1.
        -14    1    6    6    0    0 -0.89073608451E+01 -0.40542793945E+02  0.23423768854E+02  0.47662691546E+02  0.00000000000E+00 0.  1.
</event>
<event>
12    1  0.8406581E-002  0.1900283E+03  0.7818608E-02  0.1158548E+00
         21   -1    0    0  503  502  0.00000000000E+00  0.00000000000E+00  0.63673274734E+02  0.63673274734E+02  0.00000000000E+00 0.  1.
         21   -1    0    0  501  503 -0.00000000000E+00 -0.00000000000E+00 -0.60203400023E+03  0.60203400023E+03  0.00000000000E+00 0.  1.
          6    2    1    2  501    0  0.78461940970E+02  0.45117483172E+00 -0.35134731508E+03  0.39944421682E+03  0.17307301000E+03 0.  0.
         24    2    3    3    0    0  0.68323207960E+02  0.60538820195E+02 -0.17664945710E+03  0.21436382721E+03  0.80086267402E+02 0.  0.
         -6    2    1    2    0  502 -0.78461940970E+02 -0.45117483172E+00 -0.18701341041E+03  0.26626305815E+03  0.17252686956E+03 0.  0.
        -24    2    5    5    0    0 -0.76690851808E+02 -0.40910605909E+02 -0.19063387289E+03  0.22533262854E+03  0.82935852105E+02 0.  0.
          5    1    3    3  501    0  0.10138733010E+02 -0.60087645363E+02 -0.17469785798E+03  0.18508038960E+03  0.47000000000E+01 0. -1.
        -13    1    4    4    0    0  0.12562337454E+02  0.49431978474E+02 -0.13373242536E+03  0.14312824463E+03  0.00000000000E+00 0.  1.
         14    1    4    4    0    0  0.55760870507E+02  0.11106841720E+02 -0.42917031749E+02  0.71235582589E+02  0.00000000000E+00 0. -1.
         -5    1    5    5    0  502 -0.17710891622E+01  0.40459431077E+02  0.36204624722E+01  0.40930429614E+02  0.47000000000E+01 0.  1.
         11    1    6    6    0    0  0.36843159809E+01  0.15482203952E+02 -0.59031690493E+02  0.61139294287E+02  0.00000000000E+00 0. -1.
        -12    1    6    6    0    0 -0.80375167789E+02 -0.56392809861E+02 -0.13160218239E+03  0.16419333425E+03  0.00000000000E+00 0.  1.
</event>
<event>
12    1  0.8406581E-002  0.2297780E+03  0.7818608E-02  0.1126876E+00
         21   -1    0    0  503  502  0.00000000000E+00  0.00000000000E+00  0.12529218203E+03  0.12529218203E+03  0.00000000000E+00 0. -1.
         21   -1    0    0  501  503 -0.00000000000E+00 -0.00000000000E+00 -0.59770800805E+03  0.59770800805E+03  0.00000000000E+00 0.  1.
          6    2    1    2  501    0  0.13527635049E+03 -0.71347673914E+02 -0.43284137746E+03  0.48983914968E+03  0.17088169283E+03 0.  0.
         24    2    3    3    0    0  0.12341766933E+03 -0.11244615152E+03 -0.35215481221E+03  0.39839449433E+03  0.82638388517E+02 0.  0.
         -6    2    1    2    0  502 -0.13527635049E+03  0.71347673914E+02 -0.39574448565E+02  0.23316104040E+03  0.17148688639E+03 0.  0.
        -24    2    5    5    0    0 -0.14029300121E+03  0.44483737178E+02 -0.78353863474E+02  0.18548745335E+03  0.81273232775E+02 0.  0.
          5    1    3    3  501    0  0.11858681159E+02  0.41098477602E+02 -0.80686565243E+02  0.91444655343E+02  0.47000000000E+01 0. -1.
        -13    1    4    4    0    0  0.61775455664E+02 -0.56072446505E+02 -0.26435085363E+03  0.27720335495E+03  0.00000000000E+00 0.  1.
         14    1    4    4    0    0  0.61642213667E+02 -0.56373705011E+02 -0.87803958578E+02  0.12119113938E+03  0.00000000000E+00 0. -1.
         -5    1    5    5    0  502  0.50166507240E+01  0.26863936736E+02  0.38779414908E+02  0.47673587048E+02  0.47000000000E+01 0.  1.
         13    1    6    6    0    0 -0.13844439079E+03  0.52191166765E+02 -0.50200637850E+02  0.15623978773E+03  0.00000000000E+00 0. -1.
        -14    1    6    6    0    0 -0.18486104289E+01 -0.77074295869E+01 -0.28153225624E+02  0.29247665623E+02  0.00000000000E+00 0.  1.
</event>
<event>
12    1  0.8406581E-002  0.2030238E+03  0.7818608E-02  0.1148626E+00
         21   -1    0    0  501  502  0.00000000000E+00  0.00000000000E+00  0.19185084720E+04  0.19185084720E+04  0.00000000000E+00 0.  1.
         21   -1    0    0  502  503 -0.00000000000E+00 -0.00000000000E+00 -0.26399647044E+02  0.26399647044E+02  0.00000000000E+00 0.  1.
         -6    2    1    2    0  503  0.82641356302E+01 -0.10603420275E+03  0.13821379356E+04  0.13960101719E+04  0.16500781471E+03 0.  0.
        -24    2    3    3    0    0 -0.45333461644E+02 -0.22728539814E+02  0.62548788950E+03  0.63288900316E+03  0.82107741042E+02 0.  0.
          6    2    1    2  501    0 -0.82641356302E+01  0.10603420275E+03  0.50997088940E+03  0.54889794720E+03  0.17293669451E+03 0.  0.
         24    2    5    5    0    0 -0.62545490536E+02  0.10145837168E+03  0.31044750588E+03  0.34201857584E+03  0.79958193726E+02 0.  0.
          5    1    5    5  501    0  0.54281354905E+02  0.45758310746E+01  0.19952338353E+03  0.20687937136E+03  0.47000000000E+01 0. -1.
        -13    1    6    6    0    0  0.17396435380E+02  0.35667525231E+02  0.76312394022E+02  0.86013893072E+02  0.00000000000E+00 0.  1.
         14    1    6    6    0    0 -0.79941925916E+02  0.65790846445E+02  0.23413511186E+03  0.25600468277E+03  0.00000000000E+00 0. -1.
         -5    1    3    3    0  503  0.53597597274E+02 -0.83305662936E+02  0.75665004609E+03  0.76312116873E+03  0.47000000000E+01 0.  1.
         11    1    4    4    0    0  0.12167904035E+02  0.10929103327E+02  0.34760894597E+02  0.38416441550E+02  0.00000000000E+00 0. -1.
        -12    1    4    4    0    0 -0.57501365679E+02 -0.33657643142E+02  0.59072699490E+03  0.59447256161E+03  0.00000000000E+00 0.  1.
</event>
<event>
12    1  0.8406581E-002  0.1842925E+03  0.7818608E-02  0.1164044E+00
         21   -1    0    0  503  502  0.00000000000E+00  0.00000000000E+00  0.19491219783E+03  0.19491219783E+03  0.00000000000E+00 0.  1.
         21   -1    0    0  501  503 -0.00000000000E+00 -0.00000000000E+00 -0.73303382929E+03  0.73303382929E+03  0.00000000000E+00 0. -1.
          6    2    1    2  501    0 -0.47334093085E+02 -0.44135775780E+02 -0.67438861007E+03  0.69874655580E+03  0.17105048604E+03 0.  0.
         24    2    3    3    0    0 -0.71016439252E+02 -0.79671127007E+02 -0.57671871336E+03  0.59204550880E+03  0.80762534810E+02 0.  0.
         -6    2    1    2    0  502  0.47334093085E+02  0.44135775780E+02  0.13626697861E+03  0.22919947132E+03  0.17255499158E+03 0.  0.
        -24    2    5    5    0    0 -0.24452470038E+02  0.52509118843E+02  0.35340944382E+02  0.10497556901E+03  0.80098420001E+02 0.  0.
          5    1    3    3  501    0  0.23682346168E+02  0.35535351227E+02 -0.97669896706E+02  0.10670104699E+03  0.47000000000E+01 0. -1.
        -11    1    4    4    0    0 -0.44696835348E+02 -0.18338174142E+02 -0.10442628440E+03  0.11506061270E+03  0.00000000000E+00 0.  1.
         12    1    4    4    0    0 -0.26319603904E+02 -0.61332952866E+02 -0.47229242896E+03  0.47698489610E+03  0.00000000000E+00 0. -1.
         -5    1    5    5    0  502  0.71786563123E+02 -0.83733430630E+01  0.10092603423E+03  0.12422390231E+03  0.47000000000E+01 0.  1.
         11    1    6    6    0    0 -0.30654999165E+02  0.47795558453E+01 -0.15741302669E+02  0.34790253486E+02  0.00000000000E+00 0. -1.
        -12    1    6    6    0    0  0.62025291271E+01  0.47729562998E+02  0.51082247051E+02  0.70185315525E+02  0.00000000000E+00 0.  1.
</event>
<event>
12    1  0.8406581E-002  0.2584354E+03  0.7818608E-02  0.1108119E+00
         21   -1    0    0  501  502  0.00000000000E+00  0.00000000000E+00  0.16207902293E+03  0.16207902293E+03  0.00000000000E+00 0.  1.
         21   -1    0    0  502  503 -0.00000000000E+00 -0.00000000000E+00 -0.50342091323E+03  0.50342091323E+03  0.00000000000E+00 0. -1.
         -6    2    1    2    0  503 -0.86540203960E+02  0.17193808985E+03 -0.31272840781E+03  0.40569438073E+03  0.17244407750E+03 0.  0.
        -24    2    3    3    0    0  0.17166314261E+02  0.67061176808E+02 -0.17182936241E+03  0.20166291305E+03  0.79691385557E+02 0.  0.
          6    2    1    2  501    0  0.86540203960E+02 -0.17193808985E+03 -0.28613482491E+02  0.25980555543E+03  0.17212867748E+03 0.  0.
         24    2    5    5    0    0  0.87343113898E+02 -0.96109492988E+02 -0.75961057047E+02  0.17028179555E+03  0.79749316739E+02 0.  0.
          5    1    5    5  501    0 -0.80290993818E+00 -0.75828596867E+02  0.47347574556E+02  0.89523759882E+02  0.47000000000E+01 0. -1.
        -13    1    6    6    0    0  0.84468568664E+02 -0.10123137162E+03 -0.45827413167E+02  0.13958109288E+03  0.00000000000E+00 0.  1.
         14    1    6    6    0    0  0.28745452339E+01  0.51218786302E+01 -0.30133643880E+02  0.30700702671E+02  0.00000000000E+00 0. -1.
         -5    1    3    3    0  503 -0.10370651822E+03  0.10487691305E+03 -0.14089904539E+03  0.20403146768E+03  0.47000000000E+01 0.  1.
         13    1    4    4    0    0 -0.13341568828E+02  0.63310144308E+02 -0.70116250760E+02  0.95406815542E+02  0.00000000000E+00 0. -1.
        -14    1    4    4    0    0  0.30507883089E+02  0.37510324998E+01 -0.10171311165E+03  0.10625609751E+03  0.00000000000E+00 0.  1.
</event>
<event>
12    1  0.8406581E-002  0.1925692E+03  0.7818608E-02  0.1156521E+00
         21   -1    0    0  501  502  0.00000000000E+00  0.00000000000E+00  0.28573512077E+03  0.28573512077E+03  0.00000000000E+00 0.  1.
         21   -1    0    0  502  503 -0.00000000000E+00 -0.00000000000E+00 -0.13224935171E+03  0.13224935171E+03  0.00000000000E+00 0. -1.
         -6    2    1    2    0  503  0.29735659112E+02  0.79696733699E+02  0.42199182771E+02  0.19557131396E+03  0.17097248034E+03 0.  0.
        -24    2    3    3    0    0  0.68521128511E+01  0.10339007875E+03  0.72450938887E+02  0.15060143474E+03  0.81824163697E+02 0.  0.
          6    2    1    2  501    0 -0.29735659112E+02 -0.79696733699E+02  0.11128658629E+03  0.22241315852E+03  0.17276321950E+03 0.  0.
         24    2    5    5    0    0 -0.27691152648E+02 -0.12348656730E+03  0.86709327189E+02  0.17193681557E+03  0.77640381816E+02 0.  0.
          5    1    5    5  501    0 -0.20445064635E+01  0.43789833597E+02  0.24577259103E+02  0.50476342955E+02  0.47000000000E+01 0. -1.
        -13    1    6    6    0    0  0.13373776901E+02 -0.10023647658E+03  0.55408367523E+02  0.11530956742E+03  0.00000000000E+00 0.  1.
         14    1    6    6    0    0 -0.41064929549E+02 -0.23250090712E+02  0.31300959665E+02  0.56627248149E+02  0.00000000000E+00 0. -1.
         -5    1    3    3    0  503  0.22883546260E+02 -0.23693345051E+02 -0.30251756116E+02  0.44969879222E+02  0.47000000000E+01 0.  1.
         11    1    4    4    0    0  0.28703032354E+02  0.84064051676E+02  0.80987858978E+02  0.12020674753E+03  0.00000000000E+00 0. -1.
        -12    1    4    4    0    0 -0.21850919503E+02  0.19326027074E+02 -0.85369200908E+01  0.30394687204E+02  0.00000000000E+00 0.  1.
</event>
<event>
12    1  0.8406581E-002  0.1754469E+03  0.7818608E-02  0.1172296E+00
         21   -1    0    0  501  502  0.00000000000E+00  0.00000000000E+00  0.46151378162E+02  0.46151378162E+02  0.00000000000E+00 0. -1.
         21   -1    0    0  502  503 -0.00000000000E+00 -0.00000000000E+00 -0.83214387425E+03  0.83214387425E+03  0.00000000000E+00 0. -1.
         -6    2    1    2    0  503  0.27296578403E+02 -0.20742193191E+02 -0.19728204475E+03  0.26401101855E+03  0.17206472899E+03 0.  0.
        -24    2    3    3    0    0  0.38095200132E+02  0.45364484657E+02 -0.15551218913E+03  0.18493185615E+03  0.80663310803E+02 0.  0.
          6    2    1    2  501    0 -0.27296578403E+02  0.20742193191E+02 -0.58871045134E+03  0.61428423386E+03  0.17201680931E+03 0.  0.
         24    2    5    5    0    0 -0.69070099476E+02 -0.49234153662E+01 -0.50876266435E+03  0.52038274735E+03  0.84639449662E+02 0.  0.
          5    1    5    5  501    0  0.41773521073E+02  0.25665608558E+02 -0.79947786986E+02  0.93901486513E+02  0.47000000000E+01 0. -1.
        -13    1    6    6    0    0 -0.25196230464E+02 -0.15388340106E+02 -0.41401534141E+02  0.50850153097E+02  0.00000000000E+00 0.  1.
         14    1    6    6    0    0 -0.43873869012E+02  0.10464924740E+02 -0.46736113021E+03  0.46953259425E+03  0.00000000000E+00 0. -1.
         -5    1    3    3    0  503 -0.10798621729E+02 -0.66106677848E+02 -0.41769855621E+02  0.79079162400E+02  0.47000000000E+01 0.  1.
         11    1    4    4    0    0  0.17929500550E+02 -0.22585128305E+02 -0.38067502113E+02  0.47756567377E+02  0.00000000000E+00 0. -1.
        -12    1    4    4    0    0  0.20165699581E+02  0.67949612961E+02 -0.11744468701E+03  0.13717528877E+03  0.00000000000E+00 0.  1.
</event>
<event>
12    1  0.8406581E-002  0.1995010E+03  0.7818608E-02  0.1150845E+00
         21   -1    0    0  503  502  0.00000000000E+00  0.00000000000E+00  0.43400739978E+03  0.43400739978E+03  0.00000000000E+00 0. -1.
         21   -1    0    0  501  503 -0.00000000000E+00 -0.00000000000E+00 -0.12752413962E+03  0.12752413962E+03  0.00000000000E+00 0.  1.
          6    2    1    2  501    0  0.86521631129E+02 -0.39802977673E+02  0.54703799952E+00  0.19629514132E+03  0.17164269158E+03 0.  0.
         24    2    3    3    0    0  0.11480679475E+03 -0.17381361929E+02 -0.37676408038E+02  0.14351350474E+03  0.75457951586E+02 0.  0.
         -6    2    1    2    0  502 -0.86521631129E+02  0.39802977673E+02  0.30593622216E+03  0.36523639807E+03  0.17530084074E+03 0.  0.
        -24    2    5    5    0    0 -0.40293250423E+02 -0.45546996488E+02  0.12112763726E+03  0.15643509462E+03  0.78115039531E+02 0.  0.
          5    1    3    3  501    0 -0.28285163618E+02 -0.22421615744E+02  0.38223446037E+02  0.52781636584E+02  0.47000000000E+01 0. -1.
        -13    1    4    4    0    0  0.83209180867E+02  0.95570734917E+01  0.50839033679E+01  0.83910377831E+02  0.00000000000E+00 0.  1.
         14    1    4    4    0    0  0.31597613880E+02 -0.26938435421E+02 -0.42760311405E+02  0.59603126909E+02  0.00000000000E+00 0. -1.
         -5    1    5    5    0  502 -0.46228380706E+02  0.85349974161E+02  0.18480858490E+03  0.20880130345E+03  0.47000000000E+01 0.  1.
         13    1    6    6    0    0 -0.55513855759E+02 -0.57277471326E+02  0.98621351010E+02  0.12684111233E+03  0.00000000000E+00 0. -1.
        -14    1    6    6    0    0  0.15220605335E+02  0.11730474839E+02  0.22506286250E+02  0.29593982285E+02  0.00000000000E+00 0.  1.
</event>
<event>
12    1  0.8406581E-002  0.2081143E+03  0.7818608E-02  0.1143470E+00
         21   -1    0    0  503  502  0.00000000000E+00  0.00000000000E+00  0.34861850078E+03  0.34861850078E+03  0.00000000000E+00 0.  1.
         21   -1    0    0  501  503 -0.00000000000E+00 -0.00000000000E+00 -0.12402719453E+03  0.12402719453E+03  0.00000000000E+00 0.  1.
          6    2    1    2  501    0  0.91720572276E+01 -0.11223740484E+03  0.90769360110E+02  0.22521920460E+03  0.17263618308E+03 0.  0.
         24    2    3    3    0    0 -0.53001967194E+02 -0.51048012990E+02  0.86087774680E+02  0.13773344444E+03  0.78385512771E+02 0.  0.
         -6    2    1    2    0  502 -0.91720572276E+01  0.11223740484E+03  0.13382194614E+03  0.24742649072E+03  0.17501483754E+03 0.  0.
        -24    2    5    5    0    0 -0.19180092343E+02  0.37575874174E+02  0.14552360895E+03  0.17104898198E+03  0.79377649326E+02 0.  0.
          5    1    3    3  501    0  0.62174024422E+02 -0.61189391853E+02  0.46815854296E+01  0.87485760158E+02  0.47000000000E+01 0. -1.
        -13    1    4    4    0    0 -0.20361726126E+02 -0.65388081466E+02  0.39466650351E+02  0.79043137454E+02  0.00000000000E+00 0.  1.
         14    1    4    4    0    0 -0.32640241068E+02  0.14340068476E+02  0.46621124329E+02  0.58690306990E+02  0.00000000000E+00 0. -1.
         -5    1    5    5    0  502  0.10008035116E+02  0.74661530670E+02 -0.11701662807E+02  0.76377508740E+02  0.47000000000E+01 0.  1.
         13    1    6    6    0    0 -0.49314925877E+01 -0.18285892714E+02  0.56553960805E+01  0.19765550746E+02  0.00000000000E+00 0. -1.
        -14    1    6    6    0    0 -0.14248599756E+02  0.55861766888E+02  0.13986821286E+03  0.15128343123E+03  0.00000000000E+00 0.  1.
</event>
<event>
12    1  0.8406581E-002  0.2036855E+03  0.7818608E-02  0.1146822E+00
         21   -1    0    0  503  502  0.00000000000E+00  0.00000000000E+00  0.68565378726E+02  0.68565378726E+02  0.00000000000E+00 0. -1.
         21   -1    0    0  501  503 -0.00000000000E+00 -0.00000000000E+00 -0.60606981821E+03  0.60606981821E+03  0.00000000000E+00 0. -1.
          6    2    1    2  501    0  0.11017222111E+03 -0.59522311956E+00 -0.29284412235E+03  0.35628564234E+03  0.17042155481E+03 0.  0.
         24    2    3    3    0    0  0.86864701826E+02  0.47101128469E+02 -0.26956943478E+03  0.29813081887E+03  0.80313836111E+02 0.  0.
         -6    2    1    2    0  502 -0.11017222111E+03  0.59522311956E+00 -0.24466031713E+03  0.31834955460E+03  0.17131694469E+03 0.  0.
        -24    2    5    5    0    0 -0.12862891283E+03  0.39632868586E+02 -0.15617973942E+03  0.21978237008E+03  0.76131581495E+02 0.  0.
          5    1    3    3  501    0  0.23307519289E+02 -0.47696351588E+02 -0.23274687575E+02  0.58154823462E+02  0.47000000000E+01 0. -1.
        -13    1    4    4    0    0  0.30308582559E+02  0.12583746334E+02 -0.16889285975E+02  0.36908113326E+02  0.00000000000E+00 0.  1.
         14    1    4    4    0    0  0.56556119267E+02  0.34517382135E+02 -0.25268014880E+03  0.26122270555E+03  0.00000000000E+00 0. -1.
         -5    1    5    5    0  502  0.18456691720E+02 -0.39037645466E+02 -0.88480577707E+02  0.98567184520E+02  0.47000000000E+01 0.  1.
         13    1    6    6    0    0 -0.55142861659E+02 -0.17086593685E+02 -0.36419276870E+02  0.68257238469E+02  0.00000000000E+00 0. -1.
        -14    1    6    6    0    0 -0.73486051176E+02  0.56719462271E+02 -0.11976046255E+03  0.15152513161E+03  0.00000000000E+00 0.  1.
</event>
<event>
12    1  0.8406581E-002  0.2015102E+03  0.7818608E-02  0.1148773E+00
         21   -1    0    0  503  502  0.00000000000E+00  0.00000000000E+00  0.19568399269E+03  0.19568399269E+03  0.00000000000E+00 0.  1.
         21   -1    0    0  501  503 -0.00000000000E+00 -0.00000000000E+00 -0.22534455120E+03  0.22534455120E+03  0.00000000000E+00 0.  1.
          6    2    1    2  501    0  0.10321315708E+03 -0.93303783226E+01  0.46752618591E+02  0.20686267472E+03  0.17281882737E+03 0.  0.
         24    2    3    3    0    0  0.12993326266E+03 -0.25503681172E+02  0.68658627532E+02  0.16842437358E+03  0.78228332348E+02 0.  0.
         -6    2    1    2    0  502 -0.10321315708E+03  0.93303783226E+01 -0.76413177106E+02  0.21416586917E+03  0.17113747143E+03 0.  0.
        -24    2    5    5    0    0 -0.74439476920E+02 -0.32671532747E+02  0.89752837874E+01  0.11464017170E+03  0.80331491156E+02 0.  0.
          5    1    3    3  501    0 -0.26720105576E+02  0.16173302849E+02 -0.21906008941E+02  0.38438301143E+02  0.47000000000E+01 0. -1.
        -13    1    4    4    0    0  0.57364927398E+02  0.26825909964E+02  0.19088952799E+02  0.66141911522E+02  0.00000000000E+00 0.  1.
         14    1    4    4    0    0  0.72568335259E+02 -0.52329591136E+02  0.49569674733E+02  0.10228246205E+03  0.00000000000E+00 0. -1.
         -5    1    5    5    0  502 -0.28773680161E+02  0.42001911070E+02 -0.85388460893E+02  0.99525697472E+02  0.47000000000E+01 0.  1.
         11    1    6    6    0    0 -0.77667246745E+02 -0.82262169648E+01  0.28551170583E+02  0.83156726752E+02  0.00000000000E+00 0. -1.
        -12    1    6    6    0    0  0.32277698249E+01 -0.24445315782E+02 -0.19575886796E+02  0.31483444944E+02  0.00000000000E+00 0.  1.
</event>
<event>
12    1  0.8406581E-002  0.2624055E+03  0.7818608E-02  0.1106113E+00
         21   -1    0    0  501  502  0.00000000000E+00  0.00000000000E+00  0.10857975570E+03  0.10857975570E+03  0.00000000000E+00 0. -1.
         21   -1    0    0  502  503 -0.00000000000E+00 -0.00000000000E+00 -0.84887347426E+03  0.84887347426E+03  0.00000000000E+00 0. -1.
         -6    2    1    2    0  503  0.55350936911E+02  0.18821906685E+03 -0.61313589711E+03  0.66586149780E+03  0.17013454261E+03 0.  0.
        -24    2    3    3    0    0  0.83679557877E+02  0.19441940514E+03 -0.57493380234E+03  0.61766974534E+03  0.78523014025E+02 0.  0.
          6    2    1    2  501    0 -0.55350936911E+02 -0.18821906685E+03 -0.12715782145E+03  0.29159173215E+03  0.17425981568E+03 0.  0.
         24    2    5    5    0    0 -0.36774806368E+02 -0.16166001644E+02 -0.47289397386E+02  0.10093920782E+03  0.79616019604E+02 0.  0.
          5    1    5    5  501    0 -0.18576130543E+02 -0.17205306520E+03 -0.79868424065E+02  0.19065252433E+03  0.47000000000E+01 0. -1.
        -11    1    6    6    0    0 -0.45595948862E+02 -0.24483242786E+02  0.37730263123E+00  0.51754826705E+02  0.00000000000E+00 0.  1.
         12    1    6    6    0    0  0.88211424945E+01  0.83172411413E+01 -0.47666700017E+02  0.49184381115E+02  0.00000000000E+00 0. -1.
         -5    1    3    3    0  503 -0.28328620966E+02 -0.62003382927E+01 -0.38202094766E+02  0.48191752461E+02  0.47000000000E+01 0.  1.
         11    1    4    4    0    0  0.11390665608E+02  0.45970750086E+02 -0.57297883833E+02  0.74337773831E+02  0.00000000000E+00 0. -1.
        -12    1    4    4    0    0  0.72288892269E+02  0.14844865505E+03 -0.51763591851E+03  0.54333197151E+03  0.00000000000E+00 0.  1.
</event>
<event>
12    1  0.8406581E-002  0.1738927E+03  0.7818608E-02  0.1174033E+00
         21   -1    0    0  503  502  0.00000000000E+00  0.00000000000E+00  0.65146781653E+03  0.65146781653E+03  0.00000000000E+00 0.  1.
         21   -1    0    0  501  503 -0.00000000000E+00 -0.00000000000E+00 -0.66115834966E+02  0.66115834966E+02  0.00000000000E+00 0.  1.
          6    2    1    2  501    0 -0.14613216183E+02 -0.16506840455E+02  0.95435919981E+02  0.19772172838E+03  0.17175518967E+03 0.  0.
         24    2    3    3    0    0 -0.63532479210E+02 -0.76019237356E+01  0.13647492003E+02  0.10188943326E+03  0.78109137826E+02 0.  0.
         -6    2    1    2    0  502  0.14613216183E+02  0.16506840455E+02  0.48991606159E+03  0.51986192312E+03  0.17248956445E+03 0.  0.
        -24    2    5    5    0    0 -0.14243348019E+02  0.69043344202E+02  0.23131092951E+03  0.25435958818E+03  0.78893584325E+02 0.  0.
          5    1    3    3  501    0  0.48919263028E+02 -0.89049167196E+01  0.81788427978E+02  0.95832295121E+02  0.47000000000E+01 0. -1.
        -11    1    4    4    0    0 -0.38558325073E+02 -0.14750683674E+02  0.45069792445E+02  0.61119663712E+02  0.00000000000E+00 0.  1.
         12    1    4    4    0    0 -0.24974154137E+02  0.71487599382E+01 -0.31422300442E+02  0.40769769543E+02  0.00000000000E+00 0. -1.
         -5    1    5    5    0  502  0.28856564201E+02 -0.52536503746E+02  0.25860513208E+03  0.26550233495E+03  0.47000000000E+01 0.  1.
         11    1    6    6    0    0  0.21727675486E+02  0.32125269390E+02  0.38007411939E+02  0.54301824810E+02  0.00000000000E+00 0. -1.
        -12    1    6    6    0    0 -0.35971023505E+02  0.36918074812E+02  0.19330351757E+03  0.20005776337E+03  0.00000000000E+00 0.  1.
</event>
<event>
12    1  0.8406581E-002  0.1840518E+03  0.7818608E-02  0.1163958E+00
         21   -1    0    0  503  502  0.00000000000E+00  0.00000000000E+00  0.63678293747E+02  0.63678293747E+02  0.00000000000E+00 0.  1.
         21   -1    0    0  501  503 -0.00000000000E+00 -0.00000000000E+00 -0.69952040491E+03  0.69952040491E+03  0.00000000000E+00 0.  1.
          6    2    1    2  501    0 -0.64664587863E+02 -0.26331299398E+01 -0.13097083221E+03  0.22582537865E+03  0.17220714403E+03 0.  0.
         24    2    3    3    0    0 -0.29843859763E+02 -0.65005209491E+02 -0.48116868828E+02  0.11632821585E+03  0.78106897970E+02 0.  0.
         -6    2    1    2    0  502  0.64664587863E+02  0.26331299398E+01 -0.50487127895E+03  0.53737332001E+03  0.17229809764E+03 0.  0.
        -24    2    5    5    0    0 -0.16444047009E+02 -0.41062152899E+02 -0.23677181239E+03  0.25384677387E+03  0.80129809557E+02 0.  0.
          5    1    3    3  501    0 -0.34820728100E+02  0.62372079552E+02 -0.82853963385E+02  0.10949716280E+03  0.47000000000E+01 0. -1.
        -11    1    4    4    0    0  0.34125534268E+01 -0.61809395099E+02 -0.54308611705E+02  0.82349694285E+02  0.00000000000E+00 0.  1.
         12    1    4    4    0    0 -0.33256413190E+02 -0.31958143921E+01  0.61917428778E+01  0.33978521565E+02  0.00000000000E+00 0. -1.
         -5    1    5    5    0  502  0.81108634872E+02  0.43695282839E+02 -0.26809946656E+03  0.28352654614E+03  0.47000000000E+01 0.  1.
         11    1    6    6    0    0  0.24283825720E+01 -0.16474559812E+02 -0.21575757066E+03  0.21639925476E+03  0.00000000000E+00 0. -1.
        -12    1    6    6    0    0 -0.18872429581E+02 -0.24587593087E+02 -0.21014241726E+02  0.37447519109E+02  0.00000000000E+00 0.  1.
</event>
<event>
12    1  0.8406581E-002  0.3978321E+03  0.7818608E-02  0.1044642E+00
         21   -1    0    0  501  502  0.00000000000E+00  0.00000000000E+00  0.26435134786E+03  0.26435134786E+03  0.00000000000E+00 0. -1.
         21   -1    0    0  502  503 -0.00000000000E+00 -0.00000000000E+00 -0.15504436520E+04  0.15504436520E+04  0.00000000000E+00 0.  1.
         -6    2    1    2    0  503  0.29688905422E+03  0.20170233656E+03 -0.13542880302E+04  0.14111601975E+04  0.16867154837E+03 0.  0.
        -24    2    3    3    0    0  0.27656720760E+03  0.20462666934E+03 -0.10826078355E+04  0.11386647896E+04  0.78461986634E+02 0.  0.
          6    2    1    2  501    0 -0.29688905422E+03 -0.20170233656E+03  0.68195726026E+02  0.40363480239E+03  0.17159094836E+03 0.  0.
         24    2    5    5    0    0 -0.13024724751E+03 -0.87502467819E+02  0.95560759642E+02  0.19971806245E+03  0.78322527572E+02 0.  0.
          5    1    5    5  501    0 -0.16664180671E+03 -0.11419986874E+03 -0.27365033615E+02  0.20391673994E+03  0.47000000000E+01 0. -1.
        -13    1    6    6    0    0 -0.95380744540E+01  0.98107773550E+01 -0.53831417353E+01  0.14703891714E+02  0.00000000000E+00 0.  1.
         14    1    6    6    0    0 -0.12070917306E+03 -0.97313245173E+02  0.10094390138E+03  0.18501417073E+03  0.00000000000E+00 0. -1.
         -5    1    3    3    0  503  0.20321846613E+02 -0.29243327800E+01 -0.27168019469E+03  0.27249540796E+03  0.47000000000E+01 0.  1.
         13    1    4    4    0    0  0.85535311727E+02  0.40380671885E+02 -0.20803723038E+03  0.22853091134E+03  0.00000000000E+00 0. -1.
        -14    1    4    4    0    0  0.19103189588E+03  0.16424599745E+03 -0.87457060514E+03  0.91013387823E+03  0.00000000000E+00 0.  1.
</event>
<event>
12    1  0.8406581E-002  0.1810574E+03  0.7818608E-02  0.1166990E+00
         21   -1    0    0  501  502  0.00000000000E+00  0.00000000000E+00  0.15896237734E+03  0.15896237734E+03  0.00000000000E+00 0. -1.
         21   -1    0    0  502  503 -0.00000000000E+00 -0.00000000000E+00 -0.27356218796E+03  0.27356218796E+03  0.00000000000E+00 0. -1.
         -6    2    1    2    0  503  0.43767213419E+02  0.31726640985E+02 -0.16547119155E+03  0.24528042396E+03  0.17279937044E+03 0.  0.
        -24    2    3    3    0    0  0.16135115579E+02  0.86803979991E+02 -0.10187761966E+03  0.15660529504E+03  0.79692509995E+02 0.  0.
          6    2    1    2  501    0 -0.43767213419E+02 -0.31726640985E+02  0.50871380927E+02  0.18724414134E+03  0.17190207198E+03 0.  0.
         24    2    5    5    0    0 -0.23474116029E+01 -0.79549396900E+02  0.94498667973E+01  0.11147839843E+03  0.77488814972E+02 0.  0.
          5    1    5    5  501    0 -0.41419801816E+02  0.47822755916E+02  0.41421514130E+02  0.75765742910E+02  0.47000000000E+01 0. -1.
        -11    1    6    6    0    0  0.20750096855E+02 -0.55867613064E+02 -0.24171132097E+02  0.64311743374E+02  0.00000000000E+00 0.  1.
         12    1    6    6    0    0 -0.23097508458E+02 -0.23681783837E+02  0.33620998894E+02  0.47166655057E+02  0.00000000000E+00 0. -1.
         -5    1    3    3    0  503  0.27632097840E+02 -0.55077339006E+02 -0.63593571895E+02  0.88675128922E+02  0.47000000000E+01 0.  1.
         11    1    4    4    0    0 -0.24905499138E+02  0.40428061665E+02 -0.75726136792E+02  0.89382100281E+02  0.00000000000E+00 0. -1.
        -12    1    4    4    0    0  0.41040614717E+02  0.46375918327E+02 -0.26151482865E+02  0.67223194755E+02  0.00000000000E+00 0.  1.
</event>
<event>
12    1  0.8406581E-002  0.2035217E+03  0.7818608E-02  0.1147343E+00
         21   -1    0    0  501  502  0.00000000000E+00  0.00000000000E+00  0.61250307739E+03  0.61250307739E+03  0.00000000000E+00 0.  1.
         21   -1    0    0  502  503 -0.00000000000E+00 -0.00000000000E+00 -0.67759336962E+02  0.67759336962E+02  0.00000000000E+00 0.  1.
         -6    2    1    2    0  503  0.65527701296E+01  0.10834403910E+03  0.22936734562E+03  0.30491808151E+03  0.16906888415E+03 0.  0.
        -24    2    3    3    0    0  0.78989655721E+01  0.50956185851E+02  0.22843748020E+03  0.24731484729E+03  0.79511161456E+02 0.  0.
          6    2    1    2  501    0 -0.65527701296E+01 -0.10834403910E+03  0.31537639481E+03  0.37534433284E+03  0.17216192433E+03 0.  0.
         24    2    5    5    0    0 -0.79565866590E+01 -0.77085525452E+02  0.32370831766E+03  0.34262467033E+03  0.81234871173E+02 0.  0.
          5    1    5    5  501    0  0.14038165294E+01 -0.31258513653E+02 -0.83319228470E+01  0.32719662513E+02  0.47000000000E+01 0. -1.
        -11    1    6    6    0    0 -0.14195650479E+02 -0.86449721748E+02  0.19925889678E+03  0.21766758791E+03  0.00000000000E+00 0.  1.
         12    1    6    6    0    0  0.62390638196E+01  0.93641962959E+01  0.12444942088E+03  0.12495708242E+03  0.00000000000E+00 0. -1.
         -5    1    3    3    0  503 -0.13461954425E+01  0.57387853254E+02  0.92986542501E+00  0.57603234223E+02  0.47000000000E+01 0.  1.
         13    1    4    4    0    0 -0.19545996419E+02  0.61631566691E+02  0.14280012045E+03  0.15675576669E+03  0.00000000000E+00 0. -1.
        -14    1    4    4    0    0  0.27444961992E+02 -0.10675380840E+02  0.85637359745E+02  0.90559080599E+02  0.00000000000E+00 0.  1.
</event>
<event>
12    1  0.8406581E-002  0.1993664E+03  0.7818608E-02  0.1150458E+00
         21   -1    0    0  503  502  0.00000000000E+00  0.00000000000E+00  0.11730474727E+04  0.11730474727E+04  0.00000000000E+00 0.  1.
         21   -1    0    0  501  503 -0.00000000000E+00 -0.00000000000E+00 -0.54294440008E+02  0.54294440008E+02  0.00000000000E+00 0. -1.
          6    2    1    2  501    0 -0.54992256193E+02 -0.85101544740E+02  0.18101727804E+03  0.26864733543E+03  0.17069772912E+03 0.  0.
         24    2    3    3    0    0 -0.81033732419E+02 -0.21545341218E+02  0.15746245475E+03  0.19588423221E+03  0.80904513183E+02 0.  0.
         -6    2    1    2    0  502  0.54992256193E+02  0.85101544740E+02  0.93773575467E+03  0.95869457730E+03  0.17169893943E+03 0.  0.
        -24    2    5    5    0    0  0.53892029935E+02  0.62445194448E+02  0.30671500547E+03  0.32724877865E+03  0.78828391777E+02 0.  0.
          5    1    3    3  501    0  0.26041476227E+02 -0.63556203522E+02  0.23554823292E+02  0.72763103222E+02  0.47000000000E+01 0. -1.
        -11    1    4    4    0    0 -0.54739233742E+02  0.61333224316E+01  0.29780624327E+02  0.62616986035E+02  0.00000000000E+00 0.  1.
         12    1    4    4    0    0 -0.26294498677E+02 -0.27678663650E+02  0.12768183042E+03  0.13326724617E+03  0.00000000000E+00 0. -1.
         -5    1    5    5    0  502  0.11002262576E+01  0.22656350292E+02  0.63102074920E+03  0.63144579864E+03  0.47000000000E+01 0.  1.
         11    1    6    6    0    0  0.27184946909E+02 -0.10242753438E+02  0.39457847991E+02  0.48998541861E+02  0.00000000000E+00 0. -1.
        -12    1    6    6    0    0  0.26707083026E+02  0.72687947886E+02  0.26725715748E+03  0.27825023679E+03  0.00000000000E+00 0.  1.
</event>
<event>
12    1  0.8406581E-002  0.2182728E+03  0.7818608E-02  0.1135802E+00
         21   -1    0    0  503  502  0.00000000000E+00  0.00000000000E+00  0.64859443535E+02  0.64859443535E+02  0.00000000000E+00 0.  1.
         21   -1    0    0  501  503 -0.00000000000E+00 -0.00000000000E+00 -0.10670367650E+04  0.10670367650E+04  0.00000000000E+00 0. -1.
          6    2    1    2  501    0  0.78059315188E+02 -0.10168312975E+03 -0.82476960536E+03  0.85316346477E+03  0.17666431483E+03 0.  0.
         24    2    3    3    0    0  0.64501125079E+02 -0.14137715312E+03 -0.65043855918E+03  0.67379556443E+03  0.82354409839E+02 0.  0.
         -6    2    1    2    0  502 -0.78059315188E+02  0.10168312975E+03 -0.17740771607E+03  0.27873274373E+03  0.17258542563E+03 0.  0.
        -24    2    5    5    0    0 -0.13021892097E+02  0.49073073366E+02 -0.16911532681E+03  0.19453928701E+03  0.81656623877E+02 0.  0.
          5    1    3    3  501    0  0.13558190109E+02  0.39694023368E+02 -0.17433104618E+03  0.17936790034E+03  0.47000000000E+01 0. -1.
        -11    1    4    4    0    0  0.25348246183E+02 -0.47900226666E+02 -0.96622196991E+02  0.11078273444E+03  0.00000000000E+00 0.  1.
         12    1    4    4    0    0  0.39152878897E+02 -0.93476926457E+02 -0.55381636219E+03  0.56301282999E+03  0.00000000000E+00 0. -1.
         -5    1    5    5    0  502 -0.65037423091E+02  0.52610056389E+02 -0.82923892622E+01  0.84193456725E+02  0.47000000000E+01 0.  1.
         11    1    6    6    0    0 -0.33128147668E+02  0.57654977542E+01 -0.12530499320E+03  0.12973841549E+03  0.00000000000E+00 0. -1.
        -12    1    6    6    0    0  0.20106255571E+02  0.43307575612E+02 -0.43810333610E+02  0.64800871518E+02  0.00000000000E+00 0.  1.
</event>
<event>
12    1  0.8406581E-002  0.2201342E+03  0.7818608E-02  0.1133981E+00
         21   -1    0    0  503  502  0.00000000000E+00  0.00000000000E+00  0.13459498353E+04  0.13459498353E+04  0.00000000000E+00 0. -1.
         21   -1    0    0  501  503 -0.00000000000E+00 -0.00000000000E+00 -0.43563467883E+02  0.43563467883E+02  0.00000000000E+00 0. -1.
          6    2    1    2  501    0  0.10202970808E+03  0.92527818991E+02  0.35977085038E+03  0.42177496011E+03  0.17171952006E+03 0.  0.
         24    2    3    3    0    0  0.74812503848E+02  0.11561290381E+03  0.18475787339E+03  0.24309835430E+03  0.77447297082E+02 0.  0.
         -6    2    1    2    0  502 -0.10202970808E+03 -0.92527818991E+02  0.94261551703E+03  0.96773834307E+03  0.17035853100E+03 0.  0.
        -24    2    5    5    0    0 -0.37275202619E+02 -0.20492636270E+02  0.19752984663E+03  0.21636828793E+03  0.77380920389E+02 0.  0.
          5    1    3    3  501    0  0.27217204232E+02 -0.23085084817E+02  0.17501297699E+03  0.17867660580E+03  0.47000000000E+01 0. -1.
        -13    1    4    4    0    0 -0.13843150481E+02  0.18904475321E+02  0.48956311229E+02  0.54274601901E+02  0.00000000000E+00 0.  1.
         14    1    4    4    0    0  0.88655654329E+02  0.96708428487E+02  0.13580156217E+03  0.18882375240E+03  0.00000000000E+00 0. -1.
         -5    1    5    5    0  502 -0.64754505461E+02 -0.72035182721E+02  0.74508567040E+03  0.75137005514E+03  0.47000000000E+01 0.  1.
         13    1    6    6    0    0 -0.29716503428E+02 -0.36950957681E+02  0.54686328171E+02  0.72381201554E+02  0.00000000000E+00 0. -1.
        -14    1    6    6    0    0 -0.75586991912E+01  0.16458321412E+02  0.14284351846E+03  0.14398708637E+03  0.00000000000E+00 0.  1.
</event>
<event>
12    1  0.8406581E-002  0.1781564E+03  0.7818608E-02  0.1169671E+00
         21   -1    0    0  503  502  0.00000000000E+00  0.00000000000E+00  0.10162608661E+03  0.10162608661E+03  0.00000000000E+00 0. -1.
         21   -1    0    0  501  503 -0.00000000000E+00 -0.00000000000E+00 -0.82425529631E+03  0.82425529631E+03  0.00000000000E+00 0. -1.
          6    2    1    2  501    0  0.40004716129E+02  0.21290295324E+02 -0.72622460333E+03  0.74768870502E+03  0.17199584628E+03 0.  0.
         24    2    3    3    0    0  0.32828518643E+02 -0.42107592387E+02 -0.26763127848E+03  0.28465445404E+03  0.80937605675E+02 0.  0.
         -6    2    1    2    0  502 -0.40004716129E+02 -0.21290295324E+02  0.35953936312E+01  0.17819267791E+03  0.17229640048E+03 0.  0.
        -24    2    5    5    0    0  0.21866929645E+02 -0.18296013510E+02  0.51804180174E+02  0.99559075841E+02  0.80096378047E+02 0.  0.
          5    1    3    3  501    0  0.71761974855E+01  0.63397887711E+02 -0.45859332486E+03  0.46303425098E+03  0.47000000000E+01 0. -1.
        -11    1    4    4    0    0  0.32153562508E+02 -0.36895382384E+02 -0.62149661268E+02  0.79105633295E+02  0.00000000000E+00 0.  1.
         12    1    4    4    0    0  0.67495613516E+00 -0.52122100035E+01 -0.20548161721E+03  0.20554882074E+03  0.00000000000E+00 0. -1.
         -5    1    5    5    0  502 -0.61871645774E+02 -0.29942818138E+01 -0.48208786543E+02  0.78633602069E+02  0.47000000000E+01 0.  1.
         13    1    6    6    0    0 -0.16915008110E+02 -0.36350033756E+02  0.36218926482E+02  0.54030112798E+02  0.00000000000E+00 0. -1.
        -14    1    6    6    0    0  0.38781937756E+02  0.18054020246E+02  0.15585253693E+02  0.45528963043E+02  0.00000000000E+00 0.  1.
</event>
<event>
12    1  0.8406581E-002  0.2228290E+03  0.7818608E-02  0.1133167E+00
         21   -1    0    0  503  502  0.00000000000E+00  0.00000000000E+00  0.35316396115E+03  0.35316396115E+03  0.00000000000E+00 0. -1.
         21   -1    0    0  501  503 -0.00000000000E+00 -0.00000000000E+00 -0.14996512931E+03  0.14996512931E+03  0.00000000000E+00 0. -1.
          6    2    1    2  501    0 -0.19009502012E+02 -0.12865594787E+03  0.17995070710E+03  0.28641756245E+03  0.18093935173E+03 0.  0.
         24    2    3    3    0    0  0.39673609693E+02 -0.16150973226E+02  0.44202728942E+02  0.10053942900E+03  0.79494945099E+02 0.  0.
         -6    2    1    2    0  502  0.19009502012E+02  0.12865594787E+03  0.23248124747E+02  0.21671152801E+03  0.17178386706E+03 0.  0.
        -24    2    5    5    0    0  0.75237519035E+02  0.10997308964E+03  0.27125892477E+02  0.15714840039E+03  0.78772082538E+02 0.  0.
          5    1    3    3  501    0 -0.58683111705E+02 -0.11250497464E+03  0.13574797815E+03  0.18587813344E+03  0.47000000000E+01 0. -1.
        -11    1    4    4    0    0 -0.11368532656E+02  0.21651140938E+02  0.23018383053E+02  0.33583647763E+02  0.00000000000E+00 0.  1.
         12    1    4    4    0    0  0.51042142349E+02 -0.37802114164E+02  0.21184345889E+02  0.66955781241E+02  0.00000000000E+00 0. -1.
         -5    1    5    5    0  502 -0.56228017023E+02  0.18682858232E+02 -0.38777677295E+01  0.59563127626E+02  0.47000000000E+01 0.  1.
         13    1    6    6    0    0  0.19895992253E+02  0.87507400638E+02  0.36139796633E+02  0.96744408493E+02  0.00000000000E+00 0. -1.
        -14    1    6    6    0    0  0.55341526782E+02  0.22465688999E+02 -0.90139041559E+01  0.60403991895E+02  0.00000000000E+00 0.  1.
</event>
<event>
12    1  0.8406581E-002  0.2905570E+03  0.7818608E-02  0.1090608E+00
         21   -1    0    0  503  502  0.00000000000E+00  0.00000000000E+00  0.10668509634E+04  0.10668509634E+04  0.00000000000E+00 0. -1.
         21   -1    0    0  501  503 -0.00000000000E+00 -0.00000000000E+00 -0.84033824530E+02  0.84033824530E+02  0.00000000000E+00 0.  1.
          6    2    1    2  501    0 -0.11312476579E+03  0.20500832731E+03  0.64895968254E+03  0.71103589208E+03  0.17203994702E+03 0.  0.
         24    2    3    3    0    0 -0.64037391777E+02  0.18701147085E+03  0.37426526318E+03  0.43137078673E+03  0.83259778052E+02 0.  0.
         -6    2    1    2    0  502  0.11312476579E+03 -0.20500832731E+03  0.33385745633E+03  0.43984889584E+03  0.16486546978E+03 0.  0.
        -24    2    5    5    0    0  0.13035136247E+03 -0.17403484725E+03  0.33209998163E+03  0.40405377302E+03  0.75428429234E+02 0.  0.
          5    1    3    3  501    0 -0.49087374008E+02  0.17996856460E+02  0.27469441935E+03  0.27966510536E+03  0.47000000000E+01 0. -1.
        -11    1    4    4    0    0 -0.69237118499E+02  0.10767713212E+03  0.17495763824E+03  0.21679095585E+03  0.00000000000E+00 0.  1.
         12    1    4    4    0    0  0.51997267216E+01  0.79334338736E+02  0.19930762494E+03  0.21457983088E+03  0.00000000000E+00 0. -1.
         -5    1    5    5    0  502 -0.17226596686E+02 -0.30973480058E+02  0.17574746966E+01  0.35795122819E+02  0.47000000000E+01 0.  1.
         13    1    6    6    0    0  0.69016719933E+02 -0.40148501651E+02  0.86764413263E+02  0.11791214197E+03  0.00000000000E+00 0. -1.
        -14    1    6    6    0    0  0.61334642538E+02 -0.13388634560E+03  0.24533556837E+03  0.28614163105E+03  0.00000000000E+00 0.  1.
</event>
<event>
12    1  0.8406581E-002  0.2261348E+03  0.7818608E-02  0.1129405E+00
         21   -1    0    0  501  502  0.00000000000E+00  0.00000000000E+00  0.84000832311E+03  0.84000832311E+03  0.00000000000E+00 0. -1.
         21   -1    0    0  502  503 -0.00000000000E+00 -0.00000000000E+00 -0.87693696113E+02  0.87693696113E+02  0.00000000000E+00 0.  1.
         -6    2    1    2    0  503  0.12000065473E+03  0.83696400643E+02  0.63272116826E+03  0.67189049224E+03  0.17232385841E+03 0.  0.
        -24    2    3    3    0    0  0.13070872319E+03  0.11594180050E+03  0.54729318742E+03  0.57983367037E+03  0.78421813755E+02 0.  0.
          6    2    1    2  501    0 -0.12000065473E+03 -0.83696400643E+02  0.11959345874E+03  0.25581152698E+03  0.17242881821E+03 0.  0.
         24    2    5    5    0    0 -0.15204796059E+03 -0.50418843811E+02  0.95944891701E+02  0.20369847368E+03  0.81406411333E+02 0.  0.
          5    1    5    5  501    0  0.32047305863E+02 -0.33277556831E+02  0.23648567035E+02  0.52113053303E+02  0.47000000000E+01 0. -1.
        -13    1    6    6    0    0  0.60588606233E+01 -0.17018151950E+02  0.10716238997E+02  0.21003929777E+02  0.00000000000E+00 0.  1.
         14    1    6    6    0    0 -0.15810682121E+03 -0.33400691862E+02  0.85228652704E+02  0.18269454391E+03  0.00000000000E+00 0. -1.
         -5    1    3    3    0  503 -0.10708068461E+02 -0.32245399861E+02  0.85427980841E+02  0.92056821871E+02  0.47000000000E+01 0.  1.
         11    1    4    4    0    0  0.82995637373E+02  0.11542904285E+03  0.37464804628E+03  0.40071598213E+03  0.00000000000E+00 0. -1.
        -12    1    4    4    0    0  0.47713085816E+02  0.51275765419E+00  0.17264514114E+03  0.17911768824E+03  0.00000000000E+00 0.  1.
</event>
<event>
12    1  0.8406581E-002  0.1804141E+03  0.7818608E-02  0.1169085E+00
         21   -1    0    0  503  502  0.00000000000E+00  0.00000000000E+00  0.24217259414E+03  0.24217259414E+03  0.00000000000E+00 0.  1.
         21   -1    0    0  501  503 -0.00000000000E+00 -0.00000000000E+00 -0.21765979788E+03  0.21765979788E+03  0.00000000000E+00 0.  1.
          6    2    1    2  501    0 -0.20212728061E+02  0.92005240023E+01 -0.13430415676E+03  0.21947413853E+03  0.17215715770E+03 0.  0.
         24    2    3    3    0    0 -0.31829305809E+02  0.60066027057E+02 -0.12969201032E+03  0.16688510760E+03  0.80059910592E+02 0.  0.
         -6    2    1    2    0  502  0.20212728061E+02 -0.92005240023E+01  0.15881695302E+03  0.24035825348E+03  0.17904206610E+03 0.  0.
        -24    2    5    5    0    0  0.48865017312E+02  0.40581929909E+02  0.42422475499E+02  0.11047749743E+03  0.79818093549E+02 0.  0.
          5    1    3    3  501    0  0.11616577748E+02 -0.50865503055E+02 -0.46121464362E+01  0.52589030932E+02  0.47000000000E+01 0. -1.
        -13    1    4    4    0    0 -0.20462948334E+02 -0.16694555349E+02 -0.43678409396E+02  0.51041589711E+02  0.00000000000E+00 0.  1.
         14    1    4    4    0    0 -0.11366357475E+02  0.76760582406E+02 -0.86013600924E+02  0.11584351789E+03  0.00000000000E+00 0. -1.
         -5    1    5    5    0  502 -0.28652289251E+02 -0.49782453911E+02  0.11639447752E+03  0.12988075605E+03  0.47000000000E+01 0.  1.
         13    1    6    6    0    0 -0.65109359689E+01  0.45892509075E+02  0.20519876129E+02  0.50691024775E+02  0.00000000000E+00 0. -1.
        -14    1    6    6    0    0  0.55375953281E+02 -0.53105791656E+01  0.21902599369E+02  0.59786472650E+02  0.00000000000E+00 0.  1.
</event>
<event>
12    1  0.8406581E-002  0.1777530E+03  0.7818608E-02  0.1171387E+00
         21   -1    0    0  503  502  0.00000000000E+00  0.00000000000E+00  0.29764519937E+02  0.29764519937E+02  0.00000000000E+00 0. -1.
         21   -1    0    0  501  503 -0.00000000000E+00 -0.00000000000E+00 -0.11472034261E+04  0.11472034261E+04  0.00000000000E+00 0. -1.
          6    2    1    2  501    0  0.12328830330E+02  0.97448754320E+01 -0.37746635014E+03  0.41722531590E+03  0.17705692893E+03 0.  0.
         24    2    3    3    0    0 -0.10770746228E+02 -0.29067189732E+02 -0.75776877805E+02  0.11213746862E+03  0.76627450468E+02 0.  0.
         -6    2    1    2    0  502 -0.12328830330E+02 -0.97448754320E+01 -0.73997255606E+03  0.75974263017E+03  0.17147162368E+03 0.  0.
        -24    2    5    5    0    0 -0.34738718577E+02  0.25038909131E+02 -0.21957382252E+03  0.23768032869E+03  0.80284180087E+02 0.  0.
          5    1    3    3  501    0  0.23099576557E+02  0.38812065164E+02 -0.30168947233E+03  0.30508784728E+03  0.47000000000E+01 0. -1.
        -13    1    4    4    0    0  0.15701596998E+02 -0.39327076130E+02 -0.14769614591E+02  0.44847525912E+02  0.00000000000E+00 0.  1.
         14    1    4    4    0    0 -0.26472343225E+02  0.10259886398E+02 -0.61007263214E+02  0.67289942707E+02  0.00000000000E+00 0. -1.
         -5    1    5    5    0  502  0.22409888248E+02 -0.34783784563E+02 -0.52039873354E+03  0.52206230148E+03  0.47000000000E+01 0.  1.
         11    1    6    6    0    0 -0.22794362849E+02  0.39226456720E+02 -0.21334611383E+03  0.21811662516E+03  0.00000000000E+00 0. -1.
        -12    1    6    6    0    0 -0.11944355729E+02 -0.14187547589E+02 -0.62277086893E+01  0.19563703532E+02  0.00000000000E+00 0.  1.
</event>
<event>
12    1  0.8406581E-002  0.2273620E+03  0.7818608E-02  0.1129039E+00
         21   -1    0    0  501  502  0.00000000000E+00  0.00000000000E+00  0.40275743134E+02  0.40275743134E+02  0.00000000000E+00 0. -1.
         21   -1    0    0  502  503 -0.00000000000E+00 -0.00000000000E+00 -0.15310022185E+04  0.15310022185E+04  0.00000000000E+00 0.  1.
         -6    2    1    2    0  503  0.13568220666E+03  0.60177296967E+02 -0.10756504260E+04  0.10994168014E+04  0.17222803513E+03 0.  0.
        -24    2    3    3    0    0  0.31646470286E+02  0.84167093637E+02 -0.52478708305E+03  0.53828271998E+03  0.79127778660E+02 0.  0.
          6    2    1    2  501    0 -0.13568220666E+03 -0.60177296967E+02 -0.41507604941E+03  0.47186116023E+03  0.16832664514E+03 0.  0.
         24    2    5    5    0    0 -0.15836415965E+03 -0.22496649966E+02 -0.31110132192E+03  0.35886940785E+03  0.80111878432E+02 0.  0.
          5    1    5    5  501    0  0.22681952988E+02 -0.37680647001E+02 -0.10397472749E+03  0.11299175238E+03  0.47000000000E+01 0. -1.
        -11    1    6    6    0    0 -0.17084290584E+01 -0.21400050844E+01  0.48821227560E+01  0.55976311252E+01  0.00000000000E+00 0.  1.
         12    1    6    6    0    0 -0.15665573059E+03 -0.20356644882E+02 -0.31598344468E+03  0.35327177672E+03  0.00000000000E+00 0. -1.
         -5    1    3    3    0  503  0.10403573637E+03 -0.23989796670E+02 -0.55086334290E+03  0.56113408143E+03  0.47000000000E+01 0.  1.
         11    1    4    4    0    0  0.11912717639E+02 -0.76295033342E+01 -0.18115570492E+02  0.22984691795E+02  0.00000000000E+00 0. -1.
        -12    1    4    4    0    0  0.19733752647E+02  0.91796596971E+02 -0.50667151256E+03  0.51529802818E+03  0.00000000000E+00 0.  1.
</event>
<event>
12    1  0.8406581E-002  0.2041945E+03  0.7818608E-02  0.1146321E+00
         21   -1    0    0  501  502  0.00000000000E+00  0.00000000000E+00  0.27359463084E+03  0.27359463084E+03  0.00000000000E+00 0.  1.
         21   -1    0    0  502  503 -0.00000000000E+00 -0.00000000000E+00 -0.21347225791E+03  0.21347225791E+03  0.00000000000E+00 0.  1.
         -6    2    1    2    0  503 -0.49113568813E+02 -0.98549274797E+02 -0.10046604657E+03  0.22757160779E+03  0.17196310056E+03 0.  0.
        -24    2    3    3    0    0 -0.59128013912E+00 -0.12565142558E+03 -0.68896835880E+02  0.16348070252E+03  0.78679957673E+02 0.  0.
          6    2    1    2  501    0  0.49113568813E+02  0.98549274797E+02  0.16058841950E+03  0.25949528096E+03  0.17153733750E+03 0.  0.
         24    2    5    5    0    0  0.84048120709E+02  0.74968573884E+02  0.16679602162E+03  0.21663391495E+03  0.80155889464E+02 0.  0.
          5    1    5    5  501    0 -0.34934551896E+02  0.23580700913E+02 -0.62076021170E+01  0.42861366004E+02  0.47000000000E+01 0. -1.
        -11    1    6    6    0    0  0.68142368106E+02  0.53973683465E+02  0.57537775995E+02  0.10424555868E+03  0.00000000000E+00 0.  1.
         12    1    6    6    0    0  0.15905752603E+02  0.20994890418E+02  0.10925824562E+03  0.11238835627E+03  0.00000000000E+00 0. -1.
         -5    1    3    3    0  503 -0.48522288674E+02  0.27102150781E+02 -0.31569210693E+02  0.64090905274E+02  0.47000000000E+01 0.  1.
         11    1    4    4    0    0  0.28537474278E+02 -0.73798931590E+02 -0.99567498021E+01  0.79748395649E+02  0.00000000000E+00 0. -1.
        -12    1    4    4    0    0 -0.29128754417E+02 -0.51852493988E+02 -0.58940086077E+02  0.83732306868E+02  0.00000000000E+00 0.  1.
</event>
<event>
12    1  0.8406581E-002  0.2233860E+03  0.7818608E-02  0.1131530E+00
         21   -1    0    0  501  502  0.00000000000E+00  0.00000000000E+00  0.98704671263E+03  0.98704671263E+03  0.00000000000E+00 0.  1.
         21   -1    0    0  502  503 -0.00000000000E+00 -0.00000000000E+00 -0.81481311280E+02  0.81481311280E+02  0.00000000000E+00 0.  1.
         -6    2    1    2    0  503 -0.28272697848E+02 -0.13854601283E+03  0.78338532067E+03  0.81461271807E+03  0.17293633706E+03 0.  0.
        -24    2    3    3    0    0 -0.26922971244E+02 -0.11597046115E+02  0.44152483063E+03  0.44990935016E+03  0.81332093523E+02 0.  0.
          6    2    1    2  501    0  0.28272697848E+02  0.13854601283E+03  0.12218008067E+03  0.25391530584E+03  0.17190307534E+03 0.  0.
         24    2    5    5    0    0 -0.63928865511E+01  0.16178219703E+03  0.91219172832E+02  0.20173972906E+03  0.78508805343E+02 0.  0.
          5    1    5    5  501    0  0.34665584399E+02 -0.23236184193E+02  0.30960907842E+02  0.52175576777E+02  0.47000000000E+01 0. -1.
        -11    1    6    6    0    0  0.32064579037E+02  0.81781806632E+02  0.26059482469E+02  0.91626948828E+02  0.00000000000E+00 0.  1.
         12    1    6    6    0    0 -0.38457465588E+02  0.80000390395E+02  0.65159690362E+02  0.11011278023E+03  0.00000000000E+00 0. -1.
         -5    1    3    3    0  503 -0.13497266039E+01 -0.12694896672E+03  0.34186049004E+03  0.36470336791E+03  0.47000000000E+01 0.  1.
         11    1    4    4    0    0  0.13946559657E+02 -0.10904066998E+02  0.21279089912E+02  0.27680405901E+02  0.00000000000E+00 0. -1.
        -12    1    4    4    0    0 -0.40869530901E+02 -0.69297911760E+00  0.42024574072E+03  0.42222894425E+03  0.00000000000E+00 0.  1.
</event>
<event>
12    1  0.8406581E-002  0.3356829E+03  0.7818608E-02  0.1068888E+00
         21   -1    0    0  503  502  0.00000000000E+00  0.00000000000E+00  0.71168196014E+03  0.71168196014E+03  0.00000000000E+00 0. -1.
         21   -1    0    0  501  503 -0.00000000000E+00 -0.00000000000E+00 -0.27284087362E+03  0.27284087362E+03  0.00000000000E+00 0. -1.
          6    2    1    2  501    0 -0.19246479504E+03 -0.21056174298E+03 -0.10050296068E+03  0.35040523631E+03  0.17692947632E+03 0.  0.
         24    2    3    3    0    0 -0.90253307988E+02 -0.15385925936E+03  0.17804021222E+01  0.19501432267E+03  0.78797746926E+02 0.  0.
         -6    2    1    2    0  502  0.19246479504E+03  0.21056174298E+03  0.53934404721E+03  0.63411759745E+03  0.17272573982E+03 0.  0.
        -24    2    5    5    0    0  0.20703317535E+03  0.14383331705E+03  0.41754380760E+03  0.49439534116E+03  0.80827985941E+02 0.  0.
          5    1    3    3  501    0 -0.10221148706E+03 -0.56702483612E+02 -0.10228336281E+03  0.15539091364E+03  0.47000000000E+01 0. -1.
        -11    1    4    4    0    0 -0.63495479738E+02 -0.52918333713E+02  0.28134211035E+02  0.87312999150E+02  0.00000000000E+00 0.  1.
         12    1    4    4    0    0 -0.26757828250E+02 -0.10094092565E+03 -0.26353808913E+02  0.10770132352E+03  0.00000000000E+00 0. -1.
         -5    1    5    5    0  502 -0.14568380311E+02  0.66728425928E+02  0.12180023961E+03  0.13972225628E+03  0.47000000000E+01 0.  1.
         11    1    6    6    0    0  0.14227575331E+03  0.13226693751E+03  0.34880493199E+03  0.39925156645E+03  0.00000000000E+00 0. -1.
        -12    1    6    6    0    0  0.64757422047E+02  0.11566379537E+02  0.68738875609E+02  0.95143774709E+02  0.00000000000E+00 0.  1.
</event>
<event>
12    1  0.8406581E-002  0.2568180E+03  0.7818608E-02  0.1109101E+00
         21   -1    0    0  501  502  0.00000000000E+00  0.00000000000E+00  0.26676963656E+03  0.26676963656E+03  0.00000000000E+00 0. -1.
         21   -1    0    0  502  503 -0.00000000000E+00 -0.00000000000E+00 -0.52913695152E+03  0.52913695152E+03  0.00000000000E+00 0. -1.
         -6    2    1    2    0  503 -0.10975983731E+02 -0.19101509662E+03 -0.42172512837E+03  0.49366434547E+03  0.17101217131E+03 0.  0.
        -24    2    3    3    0    0  0.17080326295E+02 -0.17827642253E+03 -0.23798724045E+03  0.30730144195E+03  0.75644095830E+02 0.  0.
          6    2    1    2  501    0  0.10975983731E+02  0.19101509662E+03  0.15935781341E+03  0.30224224262E+03  0.17131322533E+03 0.  0.
         24    2    5    5    0    0 -0.40808851639E+02  0.14312987803E+03  0.61356069205E+02  0.18140725100E+03  0.83621164355E+02 0.  0.
          5    1    5    5  501    0  0.51784835370E+02  0.47885218589E+02  0.98001744202E+02  0.12083499162E+03  0.47000000000E+01 0. -1.
        -11    1    6    6    0    0  0.10163411955E+02  0.12487381725E+02 -0.14764554186E+02  0.21845404671E+02  0.00000000000E+00 0.  1.
         12    1    6    6    0    0 -0.50972263593E+02  0.13064249631E+03  0.76120623391E+02  0.15956184633E+03  0.00000000000E+00 0. -1.
         -5    1    3    3    0  503 -0.28056310026E+02 -0.12738674091E+02 -0.18373788792E+03  0.18636290352E+03  0.47000000000E+01 0.  1.
         13    1    4    4    0    0 -0.11953956437E+02 -0.31093436045E+02 -0.92526805003E+02  0.98340777319E+02  0.00000000000E+00 0. -1.
        -14    1    4    4    0    0  0.29034282731E+02 -0.14718298649E+03 -0.14546043544E+03  0.20896066463E+03  0.00000000000E+00 0.  1.
</event>
<event>
12    1  0.8406581E-002  0.2202745E+03  0.7818608E-02  0.1134548E+00
         21   -1    0    0  501  502  0.00000000000E+00  0.00000000000E+00  0.28145970977E+03  0.28145970977E+03  0.00000000000E+00 0. -1.
         21   -1    0    0  502  503 -0.00000000000E+00 -0.00000000000E+00 -0.26317581737E+03  0.26317581737E+03  0.00000000000E+00 0. -1.
         -6    2    1    2    0  503 -0.63015587351E+02  0.11741670832E+03 -0.15386833843E+03  0.26869373522E+03  0.17539444158E+03 0.  0.
        -24    2    3    3    0    0 -0.80389540424E+02  0.22042377837E+02 -0.11637104970E+03  0.16464444968E+03  0.81346351930E+02 0.  0.
          6    2    1    2  501    0  0.63015587351E+02 -0.11741670832E+03  0.17215223083E+03  0.27594179191E+03  0.16955776096E+03 0.  0.
         24    2    5    5    0    0  0.18900585140E+02 -0.12189111758E+03  0.64282625861E+02  0.15921949141E+03  0.77484926230E+02 0.  0.
          5    1    5    5  501    0  0.44115002211E+02  0.44744092671E+01  0.10786960497E+03  0.11672230050E+03  0.47000000000E+01 0. -1.
        -11    1    6    6    0    0 -0.13537023738E+02 -0.20709918203E+02 -0.12889495219E+02  0.27897863908E+02  0.00000000000E+00 0.  1.
         12    1    6    6    0    0  0.32437608878E+02 -0.10118119938E+03  0.77172121080E+02  0.13132162750E+03  0.00000000000E+00 0. -1.
         -5    1    3    3    0  503  0.17373953073E+02  0.95374330479E+02 -0.37497288734E+02  0.10404928554E+03  0.47000000000E+01 0.  1.
         13    1    4    4    0    0 -0.35471247036E+02  0.49536117677E+02 -0.80359407748E+02  0.10084478536E+03  0.00000000000E+00 0. -1.
        -14    1    4    4    0    0 -0.44918293388E+02 -0.27493739840E+02 -0.36011641947E+02  0.63799664317E+02  0.00000000000E+00 0.  1.
</event>
<event>
12    1  0.8406581E-002  0.2327976E+03  0.7818608E-02  0.1125263E+00
         21   -1    0    0  501  502  0.00000000000E+00  0.00000000000E+00  0.18236170959E+03  0.18236170959E+03  0.00000000000E+00 0. -1.
         21   -1    0    0  502  503 -0.00000000000E+00 -0.00000000000E+00 -0.38706843061E+03  0.38706843061E+03  0.00000000000E+00 0. -1.
         -6    2    1    2    0  503  0.15084938432E+03  0.40633891084E+02 -0.24217125101E+03  0.33363718274E+03  0.16810771855E+03 0.  0.
        -24    2    3    3    0    0  0.15013765916E+03  0.35992090747E+02 -0.11974707680E+03  0.21103285453E+03  0.79741808338E+02 0.  0.
          6    2    1    2  501    0 -0.15084938432E+03 -0.40633891084E+02  0.37464529998E+02  0.23579295746E+03  0.17259223021E+03 0.  0.
         24    2    5    5    0    0 -0.91116289789E+02 -0.87476273734E+02  0.53268214725E+02  0.15811350172E+03  0.78791496965E+02 0.  0.
          5    1    5    5  501    0 -0.59733094526E+02  0.46842382650E+02 -0.15803684726E+02  0.77679455746E+02  0.47000000000E+01 0. -1.
        -13    1    6    6    0    0 -0.82816735185E+02 -0.84872227302E+02  0.15778677628E+02  0.11962806218E+03  0.00000000000E+00 0.  1.
         14    1    6    6    0    0 -0.82995546043E+01 -0.26040464323E+01  0.37489537097E+02  0.38485439535E+02  0.00000000000E+00 0. -1.
         -5    1    3    3    0  503  0.71172515871E+00  0.46418003365E+01 -0.12242417421E+03  0.12260432821E+03  0.47000000000E+01 0.  1.
         13    1    4    4    0    0  0.92697631162E+02  0.61085866465E+02 -0.79424308635E+02  0.13650111614E+03  0.00000000000E+00 0. -1.
        -14    1    4    4    0    0  0.57440027994E+02 -0.25093775717E+02 -0.40322768164E+02  0.74531738395E+02  0.00000000000E+00 0.  1.
</event>
<event>
12    1  0.8406581E-002  0.2214328E+03  0.7818608E-02  0.1133152E+00
         21   -1    0    0  503  502  0.00000000000E+00  0.00000000000E+00  0.39770650547E+02  0.39770650547E+02  0.00000000000E+00 0. -1.
         21   -1    0    0  501  503 -0.00000000000E+00 -0.00000000000E+00 -0.12442748914E+04  0.12442748914E+04  0.00000000000E+00 0. -1.
          6    2    1    2  501    0  0.12287213129E+03 -0.61899346263E+02 -0.51575542194E+03  0.56057651112E+03  0.17121121415E+03 0.  0.
         24    2    3    3    0    0  0.33691576959E+02  0.70079244896E+01 -0.34224551246E+03  0.35362443474E+03  0.82061054595E+02 0.  0.
         -6    2    1    2    0  502 -0.12287213129E+03  0.61899346263E+02 -0.68874881894E+03  0.72346903085E+03  0.17350335239E+03 0.  0.
        -24    2    5    5    0    0 -0.13216125034E+03  0.71055005651E+02 -0.68894308989E+03  0.70960391012E+03  0.79873138409E+02 0.  0.
          5    1    3    3  501    0  0.89180554327E+02 -0.68907270753E+02 -0.17350990948E+03  0.20695207638E+03  0.47000000000E+01 0. -1.
        -11    1    4    4    0    0 -0.18959877652E+02  0.14253206963E+02 -0.38174095929E+02  0.44943213829E+02  0.00000000000E+00 0.  1.
         12    1    4    4    0    0  0.52651454611E+02 -0.72452824731E+01 -0.30407141653E+03  0.30868122091E+03  0.00000000000E+00 0. -1.
         -5    1    5    5    0  502  0.92891190517E+01 -0.91556593876E+01  0.19427094620E+00  0.13865120727E+02  0.47000000000E+01 0.  1.
         11    1    6    6    0    0 -0.12277564715E+03  0.50244688910E+02 -0.43862448536E+03  0.45824647021E+03  0.00000000000E+00 0. -1.
        -12    1    6    6    0    0 -0.93856031862E+01  0.20810316741E+02 -0.25031860453E+03  0.25135743992E+03  0.00000000000E+00 0.  1.
</event>
<event>
12    1  0.8406581E-002  0.1835005E+03  0.7818608E-02  0.1165111E+00
         21   -1    0    0  503  502  0.00000000000E+00  0.00000000000E+00  0.31860089279E+03  0.31860089279E+03  0.00000000000E+00 0.  1.
         21   -1    0    0  501  503 -0.00000000000E+00 -0.00000000000E+00 -0.13919280332E+03  0.13919280332E+03  0.00000000000E+00 0.  1.
          6    2    1    2  501    0  0.34305040796E+02  0.43150332457E+02 -0.24698490781E+02  0.18515517166E+03  0.17502467006E+03 0.  0.
         24    2    3    3    0    0  0.27640199386E+02  0.98460183336E+02 -0.35322840577E+02  0.12824676697E+03  0.68855949981E+02 0.  0.
         -6    2    1    2    0  502 -0.34305040796E+02 -0.43150332457E+02  0.20410658025E+03  0.27263852446E+03  0.17214378264E+03 0.  0.
        -24    2    5    5    0    0  0.73942490561E+01 -0.87990756950E+02  0.11874578180E+03  0.16748125959E+03  0.78437002687E+02 0.  0.
          5    1    3    3  501    0  0.66648414098E+01 -0.55309850879E+02  0.10624349797E+02  0.56908404686E+02  0.47000000000E+01 0. -1.
        -13    1    4    4    0    0 -0.10684948538E+02  0.79908545660E+02 -0.20809191543E+02  0.83262033650E+02  0.00000000000E+00 0.  1.
         14    1    4    4    0    0  0.38325147924E+02  0.18551637675E+02 -0.14513649035E+02  0.44984733323E+02  0.00000000000E+00 0. -1.
         -5    1    5    5    0  502 -0.41699289852E+02  0.44840424494E+02  0.85360798443E+02  0.10515726486E+03  0.47000000000E+01 0.  1.
         13    1    6    6    0    0 -0.14386590664E+02  0.78137946765E+01  0.48717392457E+01  0.17081077877E+02  0.00000000000E+00 0. -1.
        -14    1    6    6    0    0  0.21780839720E+02 -0.95804551627E+02  0.11387404256E+03  0.15040018171E+03  0.00000000000E+00 0.  1.
</event>
<event>
12    1  0.8406581E-002  0.1848166E+03  0.7818608E-02  0.1163266E+00
         21   -1    0    0  503  502  0.00000000000E+00  0.00000000000E+00  0.15882072740E+03  0.15882072740E+03  0.00000000000E+00 0.  1.
         21   -1    0    0  501  503 -0.00000000000E+00 -0.00000000000E+00 -0.44835635713E+03  0.44835635713E+03  0.00000000000E+00 0.  1.
          6    2    1    2  501    0 -0.84799399493E+01 -0.53641866882E+02 -0.36382460178E+03  0.40798869450E+03  0.17645700529E+03 0.  0.
         24    2    3    3    0    0 -0.13257337490E+02  0.12890898224E+02 -0.72216983965E+02  0.10881228312E+03  0.79264670126E+02 0.  0.
         -6    2    1    2    0  502  0.84799399493E+01  0.53641866882E+02  0.74288972055E+02  0.19918839003E+03  0.17665730693E+03 0.  0.
        -24    2    5    5    0    0  0.19851256700E+01 -0.99739595095E+01 -0.22234584126E+02  0.83308957527E+02  0.79640348321E+02 0.  0.
          5    1    3    3  501    0  0.47773975410E+01 -0.66532765106E+02 -0.29160761782E+03  0.29917641138E+03  0.47000000000E+01 0. -1.
        -13    1    4    4    0    0 -0.15428950972E+02  0.31532031600E+02 -0.80859357182E+02  0.88150763972E+02  0.00000000000E+00 0.  1.
         14    1    4    4    0    0  0.21716134818E+01 -0.18641133375E+02  0.86423732173E+01  0.20661519147E+02  0.00000000000E+00 0. -1.
         -5    1    5    5    0  502  0.64948142793E+01  0.63615826392E+02  0.96523556181E+02  0.11587943251E+03  0.47000000000E+01 0.  1.
         11    1    6    6    0    0  0.40798990711E+02 -0.54943768691E+01 -0.12850300217E+02  0.43126280108E+02  0.00000000000E+00 0. -1.
        -12    1    6    6    0    0 -0.38813865042E+02 -0.44795826404E+01 -0.93842839085E+01  0.40182677419E+02  0.00000000000E+00 0.  1.
</event>
<event>
12    1  0.8406581E-002  0.2402006E+03  0.7818608E-02  0.1119925E+00
         21   -1    0    0  501  502  0.00000000000E+00  0.00000000000E+00  0.47838087384E+02  0.47838087384E+02  0.00000000000E+00 0. -1.
         21   -1    0    0  502  503 -0.00000000000E+00 -0.00000000000E+00 -0.17441237316E+04  0.17441237316E+04  0.00000000000E+00 0.  1.
         -6    2    1    2    0  503  0.12234741964E+03  0.11189755527E+03 -0.13475254127E+04  0.13684880428E+04  0.17159496351E+03 0.  0.
        -24    2    3    3    0    0  0.98933575826E+02  0.64653084970E+02 -0.12426808681E+04  0.12510371314E+04  0.82887215092E+02 0.  0.
          6    2    1    2  501    0 -0.12234741964E+03 -0.11189755527E+03 -0.34876023159E+03  0.42347377623E+03  0.17379984480E+03 0.  0.
         24    2    5    5    0    0 -0.12173681385E+03 -0.14668348858E+03 -0.29447167687E+03  0.35882262645E+03  0.75526227937E+02 0.  0.
          5    1    5    5  501    0 -0.61060579703E+00  0.34785933304E+02 -0.54288554715E+02  0.64651149784E+02  0.47000000000E+01 0. -1.
        -13    1    6    6    0    0 -0.11620297365E+03 -0.89234957859E+02 -0.19639337319E+03  0.24502319446E+03  0.00000000000E+00 0.  1.
         14    1    6    6    0    0 -0.55338401980E+01 -0.57448530717E+02 -0.98078303677E+02  0.11379943199E+03  0.00000000000E+00 0. -1.
         -5    1    3    3    0  503  0.23413843818E+02  0.47244470302E+02 -0.10484454458E+03  0.11745091139E+03  0.47000000000E+01 0.  1.
         13    1    4    4    0    0  0.22815856902E+02  0.71821908305E+01 -0.61132515515E+02  0.65645499803E+02  0.00000000000E+00 0. -1.
        -14    1    4    4    0    0  0.76117718924E+02  0.57470894140E+02 -0.11815483526E+04  0.11853916316E+04  0.00000000000E+00 0.  1.
</event>
<event>
12    1  0.8406581E-002  0.2509812E+03  0.7818608E-02  0.1112990E+00
         21   -1    0    0  503  502  0.00000000000E+00  0.00000000000E+00  0.48675171087E+03  0.48675171087E+03  0.00000000000E+00 0.  1.
         21   -1    0    0  501  503 -0.00000000000E+00 -0.00000000000E+00 -0.44425296367E+03  0.44425296367E+03  0.00000000000E+00 0. -1.
          6    2    1    2  501    0  0.10501539020E+03 -0.14888018156E+03 -0.37126784364E+03  0.44706835385E+03  0.16981390007E+03 0.  0.
         24    2    3    3    0    0 -0.96434383819E+01 -0.29683948210E+02 -0.10946504585E+03  0.13736335882E+03  0.76889293134E+02 0.  0.
         -6    2    1    2    0  502 -0.10501539020E+03  0.14888018156E+03  0.41376659084E+03  0.48393632069E+03  0.17262105939E+03 0.  0.
        -24    2    5    5    0    0 -0.90014648492E+02  0.20820482476E+02  0.22379780221E+03  0.25429629928E+03  0.77749740299E+02 0.  0.
          5    1    3    3  501    0  0.11465882858E+03 -0.11919623335E+03 -0.26180279779E+03  0.30970499504E+03  0.47000000000E+01 0. -1.
        -11    1    4    4    0    0 -0.32847256757E+02 -0.40889845781E+02 -0.93041275238E+02  0.10680636995E+03  0.00000000000E+00 0.  1.
         12    1    4    4    0    0  0.23203818376E+02  0.11205897571E+02 -0.16423770609E+02  0.30556988867E+02  0.00000000000E+00 0. -1.
         -5    1    5    5    0  502 -0.15000741709E+02  0.12805969908E+03  0.18996878863E+03  0.22964002141E+03  0.47000000000E+01 0.  1.
         11    1    6    6    0    0 -0.85025763644E+02  0.39174460504E+02  0.14034226028E+03  0.16870082649E+03  0.00000000000E+00 0. -1.
        -12    1    6    6    0    0 -0.49888848481E+01 -0.18353978029E+02  0.83455541937E+02  0.85595472786E+02  0.00000000000E+00 0.  1.
</event>
<event>
12    1  0.8406581E-002  0.1732823E+03  0.7818608E-02  0.1176939E+00
         21   -1    0    0  501  502  0.00000000000E+00  0.00000000000E+00  0.13745343725E+03  0.13745343725E+03  0.00000000000E+00 0.  1.
         21   -1    0    0  502  503 -0.00000000000E+00 -0.00000000000E+00 -0.29675213966E+03  0.29675213966E+03  0.00000000000E+00 0.  1.
         -6    2    1    2    0  503 -0.11666494873E+02 -0.28896919917E+02 -0.20075178375E+03  0.26519436354E+03  0.17045712860E+03 0.  0.
        -24    2    3    3    0    0  0.20683319016E+02 -0.20859251839E+02 -0.25959378970E+02  0.87189899168E+02  0.77879914533E+02 0.  0.
          6    2    1    2  501    0  0.11666494873E+02  0.28896919917E+02  0.41453081347E+02  0.16901121337E+03  0.16085799081E+03 0.  0.
         24    2    5    5    0    0  0.63082557051E+02  0.21529280618E+02  0.48687624760E+01  0.10530567243E+03  0.81379732551E+02 0.  0.
          5    1    5    5  501    0 -0.51416062178E+02  0.73676392992E+01  0.36584318871E+02  0.63705540936E+02  0.47000000000E+01 0. -1.
        -11    1    6    6    0    0  0.79991506593E+02  0.26977871119E+02  0.13606839258E+02  0.85507851871E+02  0.00000000000E+00 0.  1.
         12    1    6    6    0    0 -0.16908949542E+02 -0.54485905007E+01 -0.87380767820E+01  0.19797820559E+02  0.00000000000E+00 0. -1.
         -5    1    3    3    0  503 -0.32349813889E+02 -0.80376680784E+01 -0.17479240478E+03  0.17800446437E+03  0.47000000000E+01 0.  1.
         11    1    4    4    0    0  0.47092983442E+02 -0.29076841142E+02 -0.14225565942E+02  0.57145240454E+02  0.00000000000E+00 0. -1.
        -12    1    4    4    0    0 -0.26409664426E+02  0.82175893029E+01 -0.11733813028E+02  0.30044658713E+02  0.00000000000E+00 0.  1.
</event>
<event>
12    1  0.8406581E-002  0.2663461E+03  0.7818608E-02  0.1103485E+00
         21   -1    0    0  503  502  0.00000000000E+00  0.00000000000E+00  0.52570001134E+03  0.52570001134E+03  0.00000000000E+00 0. -1.
         21   -1    0    0  501  503 -0.00000000000E+00 -0.00000000000E+00 -0.22697175271E+03  0.22697175271E+03  0.00000000000E+00 0.  1.
          6    2    1    2  501    0  0.72374381990E+02  0.18911846320E+03 -0.90812836310E+02  0.28077931078E+03  0.17200641218E+03 0.  0.
         24    2    3    3    0    0  0.33396443687E+02  0.19077383308E+03 -0.34815395226E+02  0.21237007652E+03  0.79868390615E+02 0.  0.
         -6    2    1    2    0  502 -0.72374381990E+02 -0.18911846320E+03  0.38954109495E+03  0.47189245327E+03  0.17302132385E+03 0.  0.
        -24    2    5    5    0    0 -0.88118897276E+02 -0.57794440090E+02  0.16442168416E+03  0.21075125023E+03  0.79224124424E+02 0.  0.
          5    1    3    3  501    0  0.38977938303E+02 -0.16553698771E+01 -0.55997441084E+02  0.68409234257E+02  0.47000000000E+01 0. -1.
        -11    1    4    4    0    0 -0.21414870793E+02  0.78065052547E+02  0.43426733043E+01  0.81065454613E+02  0.00000000000E+00 0.  1.
         12    1    4    4    0    0  0.54811314480E+02  0.11270878053E+03 -0.39158068531E+02  0.13130462191E+03  0.00000000000E+00 0. -1.
         -5    1    5    5    0  502  0.15744515286E+02 -0.13132402311E+03  0.22511941079E+03  0.26114120304E+03  0.47000000000E+01 0.  1.
         11    1    6    6    0    0 -0.75612874864E+02 -0.53419921777E+02  0.17211227728E+03  0.19543190855E+03  0.00000000000E+00 0. -1.
        -12    1    6    6    0    0 -0.12506022412E+02 -0.43745183128E+01 -0.76905931237E+01  0.15319341684E+02  0.00000000000E+00 0.  1.
</event>
<event>
12    1  0.8406581E-002  0.1863025E+03  0.7818608E-02  0.1161869E+00
         21   -1    0    0  501  502  0.00000000000E+00  0.00000000000E+00  0.14745331803E+04  0.14745331803E+04  0.00000000000E+00 0. -1.
         21   -1    0    0  502  503 -0.00000000000E+00 -0.00000000000E+00 -0.23987598474E+02  0.23987598474E+02  0.00000000000E+00 0. -1.
         -6    2    1    2    0  503 -0.16556831124E+02 -0.69958088530E+02  0.62118548414E+03  0.64852141051E+03  0.17187306762E+03 0.  0.
        -24    2    3    3    0    0 -0.16762654051E+02 -0.54240115732E+02  0.16298389645E+03  0.19002617389E+03  0.79518674150E+02 0.  0.
          6    2    1    2  501    0  0.16556831124E+02  0.69958088530E+02  0.82936009768E+03  0.84999936826E+03  0.17173378122E+03 0.  0.
         24    2    5    5    0    0 -0.49227261942E+02  0.11587912192E+02  0.51391447496E+03  0.52248958935E+03  0.79559288477E+02 0.  0.
          5    1    5    5  501    0  0.65784093066E+02  0.58370176338E+02  0.31544562272E+03  0.32750977891E+03  0.47000000000E+01 0. -1.
        -13    1    6    6    0    0 -0.20423829315E+02  0.26701071498E+02  0.72904464696E+02  0.80281635482E+02  0.00000000000E+00 0.  1.
         14    1    6    6    0    0 -0.28803432628E+02 -0.15113159305E+02  0.44101001026E+03  0.44220795387E+03  0.00000000000E+00 0. -1.
         -5    1    3    3    0  503  0.20582292709E+00 -0.15717972798E+02  0.45820158769E+03  0.45849523661E+03  0.47000000000E+01 0.  1.
         13    1    4    4    0    0 -0.17169696740E+02 -0.64749828754E+02  0.16606479879E+03  0.17906662505E+03  0.00000000000E+00 0. -1.
        -14    1    4    4    0    0  0.40704268942E+00  0.10509713022E+02 -0.30809023457E+01  0.10959548842E+02  0.00000000000E+00 0.  1.
</event>
<event>
12    1  0.8406581E-002  0.1996219E+03  0.7818608E-02  0.1150155E+00
         21   -1    0    0  503  502  0.00000000000E+00  0.00000000000E+00  0.35180011225E+02  0.35180011225E+02  0.00000000000E+00 0.  1.
         21   -1    0    0  501  503 -0.00000000000E+00 -0.00000000000E+00 -0.11734475963E+04  0.11734475963E+04  0.00000000000E+00 0. -1.
          6    2    1    2  501    0 -0.93180712903E+02 -0.37403678056E+02 -0.68461470453E+03  0.71299686465E+03  0.17200452019E+03 0.  0.
         24    2    3    3    0    0 -0.12109949273E+03  0.86938854262E+01 -0.50365691051E+03  0.52412585883E+03  0.79353396938E+02 0.  0.
         -6    2    1    2    0  502  0.93180712903E+02  0.37403678056E+02 -0.45365288054E+03  0.49563074286E+03  0.17253178507E+03 0.  0.
        -24    2    5    5    0    0  0.19472342310E+02  0.98551923250E+01 -0.11392338917E+03  0.14687572817E+03  0.90097968880E+02 0.  0.
          5    1    3    3  501    0  0.27918779830E+02 -0.46097563482E+02 -0.18095779401E+03  0.18887100582E+03  0.47000000000E+01 0. -1.
        -11    1    4    4    0    0 -0.24003619165E+02  0.12716317680E+02 -0.29453322131E+02  0.40067151794E+02  0.00000000000E+00 0.  1.
         12    1    4    4    0    0 -0.97095873568E+02 -0.40224322534E+01 -0.47420358838E+03  0.48405870704E+03  0.00000000000E+00 0. -1.
         -5    1    5    5    0  502  0.73708370594E+02  0.27548485731E+02 -0.33972949138E+03  0.34875501469E+03  0.47000000000E+01 0.  1.
         13    1    6    6    0    0 -0.22688877788E+02  0.32991487499E+02 -0.29568351056E+02  0.49774600017E+02  0.00000000000E+00 0. -1.
        -14    1    6    6    0    0  0.42161220098E+02 -0.23136295174E+02 -0.84355038110E+02  0.97101128155E+02  0.00000000000E+00 0.  1.
</event>
<event>
12    1  0.8406581E-002  0.1943179E+03  0.7818608E-02  0.1155535E+00
         21   -1    0    0  501  502  0.00000000000E+00  0.00000000000E+00  0.70934569756E+03  0.70934569756E+03  0.00000000000E+00 0.  1.
         21   -1    0    0  502  503 -0.00000000000E+00 -0.00000000000E+00 -0.20557218733E+03  0.20557218733E+03  0.00000000000E+00 0.  1.
         -6    2    1    2    0  503  0.51214073161E+02  0.60434116356E+02 -0.14267290356E+03  0.24107053146E+03  0.17743810194E+03 0.  0.
        -24    2    3    3    0    0  0.83139598770E+02  0.64812702637E+02 -0.47809589094E+02  0.14077322524E+03  0.80115322057E+02 0.  0.
          6    2    1    2  501    0 -0.51214073161E+02 -0.60434116356E+02  0.64644641379E+03  0.67384735342E+03  0.17292231233E+03 0.  0.
         24    2    5    5    0    0 -0.18847154774E+02 -0.55448946968E+02  0.16333652432E+03  0.18960596256E+03  0.76431668165E+02 0.  0.
          5    1    5    5  501    0 -0.32366918387E+02 -0.49851693878E+01  0.48310988947E+03  0.48424139086E+03  0.47000000000E+01 0. -1.
        -13    1    6    6    0    0 -0.48156932131E+02 -0.40105371772E+02  0.97116359277E+02  0.11558165164E+03  0.00000000000E+00 0.  1.
         14    1    6    6    0    0  0.29309777357E+02 -0.15343575196E+02  0.66220165046E+02  0.74024310920E+02  0.00000000000E+00 0. -1.
         -5    1    3    3    0  503 -0.31925525609E+02 -0.43785862814E+01 -0.94863314468E+02  0.10029730622E+03  0.47000000000E+01 0.  1.
         13    1    4    4    0    0  0.19262314927E+02  0.55685412818E+02  0.24640779400E+01  0.58974347450E+02  0.00000000000E+00 0. -1.
        -14    1    4    4    0    0  0.63877283843E+02  0.91272898192E+01 -0.50273667034E+02  0.81798877790E+02  0.00000000000E+00 0.  1.
</event>
<event>
12    1  0.8406581E-002  0.3304146E+03  0.7818608E-02  0.1070960E+00
         21   -1    0    0  501  502  0.00000000000E+00  0.00000000000E+00  0.79614485431E+03  0.79614485431E+03  0.00000000000E+00 0. -1.
         21   -1    0    0  502  503 -0.00000000000E+00 -0.00000000000E+00 -0.21106769610E+03  0.21106769610E+03  0.00000000000E+00 0.  1.
         -6    2    1    2    0  503 -0.13932536239E+03 -0.24467700064E+03 -0.55952317032E+01  0.33040557999E+03  0.17279510822E+03 0.  0.
        -24    2    3    3    0    0 -0.13524296734E+03 -0.11683477964E+03 -0.33944085971E+02  0.19931001577E+03  0.81432520943E+02 0.  0.
          6    2    1    2  501    0  0.13932536239E+03  0.24467700064E+03  0.59067238992E+03  0.67680697042E+03  0.17290289690E+03 0.  0.
         24    2    5    5    0    0  0.11689211232E+03  0.23523978098E+03  0.40429300993E+03  0.48878655901E+03  0.80361320991E+02 0.  0.
          5    1    5    5  501    0  0.22433250078E+02  0.94372196516E+01  0.18637937998E+03  0.18802041141E+03  0.47000000000E+01 0. -1.
        -11    1    6    6    0    0  0.70182935315E+02  0.14719274004E+03  0.17736468087E+03  0.24093479854E+03  0.00000000000E+00 0.  1.
         12    1    6    6    0    0  0.46709177001E+02  0.88047040946E+02  0.22692832907E+03  0.24785176047E+03  0.00000000000E+00 0. -1.
         -5    1    3    3    0  503 -0.40823950524E+01 -0.12784222100E+03  0.28348854267E+02  0.13109556422E+03  0.47000000000E+01 0.  1.
         11    1    4    4    0    0 -0.12539937668E+02  0.12554212430E+02  0.23238592316E+00  0.17745768218E+02  0.00000000000E+00 0. -1.
        -12    1    4    4    0    0 -0.12270302967E+03 -0.12938899207E+03 -0.34176471894E+02  0.18156424756E+03  0.00000000000E+00 0.  1.
</event>
<event>
12    1  0.8406581E-002  0.1743177E+03  0.7818608E-02  0.1173760E+00
         21   -1    0    0  501  502  0.00000000000E+00  0.00000000000E+00  0.25168814374E+04  0.25168814374E+04  0.00000000000E+00 0.  1.
         21   -1    0    0  502  503 -0.00000000000E+00 -0.00000000000E+00 -0.11992560068E+02  0.11992560068E+02  0.00000000000E+00 0.  1.
         -6    2    1    2    0  503  0.29151215441E+02  0.24697843134E+01  0.12164517498E+04  0.12288781619E+04  0.17184523300E+03 0.  0.
        -24    2    3    3    0    0  0.32580833560E+02 -0.23772592387E+02  0.11810147912E+04  0.11844001601E+04  0.79882133415E+02 0.  0.
          6    2    1    2  501    0 -0.29151215441E+02 -0.24697843134E+01  0.12884371276E+04  0.12999958356E+04  0.17047887726E+03 0.  0.
         24    2    5    5    0    0  0.36249509687E+01 -0.44959349438E+02  0.41520060571E+03  0.42509941121E+03  0.79268424127E+02 0.  0.
          5    1    5    5  501    0 -0.32776166410E+02  0.42489565125E+02  0.87323652186E+03  0.87489642435E+03  0.47000000000E+01 0. -1.
        -13    1    6    6    0    0  0.37333916588E+01  0.20712366922E+02  0.16843035927E+03  0.16974017285E+03  0.00000000000E+00 0.  1.
         14    1    6    6    0    0 -0.10844069011E+00 -0.65671716360E+02  0.24677024644E+03  0.25535923836E+03  0.00000000000E+00 0. -1.
         -5    1    3    3    0  503 -0.34296181191E+01  0.26242376701E+02  0.35436958509E+02  0.44478001795E+02  0.47000000000E+01 0.  1.
         11    1    4    4    0    0  0.14498771825E+01  0.26310027754E+02  0.55159460879E+03  0.55222362513E+03  0.00000000000E+00 0. -1.
        -12    1    4    4    0    0  0.31130956378E+02 -0.50082620142E+02  0.62942018245E+03  0.63217653497E+03  0.00000000000E+00 0.  1.
</event>
<event>
12    1  0.8406581E-002  0.1739153E+03  0.7818608E-02  0.1173877E+00
         21   -1    0    0  501  502  0.00000000000E+00  0.00000000000E+00  0.15481606468E+03  0.15481606468E+03  0.00000000000E+00 0.  1.
         21   -1    0    0  502  503 -0.00000000000E+00 -0.00000000000E+00 -0.23018726193E+03  0.23018726193E+03  0.00000000000E+00 0.  1.
         -6    2    1    2    0  503 -0.15156081268E+02  0.20988251078E+02  0.37406501852E+02  0.17789261432E+03  0.17197767985E+03 0.  0.
        -24    2    3    3    0    0  0.35424909755E+02  0.48637009846E+02 -0.12265972168E+02  0.10165394179E+03  0.81009794777E+02 0.  0.
          6    2    1    2  501    0  0.15156081268E+02 -0.20988251078E+02 -0.11277769910E+03  0.20711071229E+03  0.17177259458E+03 0.  0.
         24    2    5    5    0    0  0.53986708211E+02  0.11157576613E+02 -0.12192359232E+03  0.15566259095E+03  0.79538818684E+02 0.  0.
          5    1    5    5  501    0 -0.38830626943E+02 -0.32145827691E+02  0.91458932177E+01  0.51448121341E+02  0.47000000000E+01 0. -1.
        -13    1    6    6    0    0  0.20403523553E+02 -0.30204201374E+02 -0.79844406739E+02  0.87770876955E+02  0.00000000000E+00 0.  1.
         14    1    6    6    0    0  0.33583184658E+02  0.41361777987E+02 -0.42079185583E+02  0.67891713996E+02  0.00000000000E+00 0. -1.
         -5    1    3    3    0  503 -0.50580991023E+02 -0.27648758767E+02  0.49672474020E+02  0.76238672533E+02  0.47000000000E+01 0.  1.
         11    1    4    4    0    0  0.42524458211E+02 -0.83154545361E+01 -0.22083816184E+01  0.43386095464E+02  0.00000000000E+00 0. -1.
        -12    1    4    4    0    0 -0.70995484558E+01  0.56952464382E+02 -0.10057590550E+02  0.58267846323E+02  0.00000000000E+00 0.  1.
</event>
<event>
12    1  0.8406581E-002  0.1847278E+03  0.7818608E-02  0.1163311E+00
         21   -1    0    0  503  502  0.00000000000E+00  0.00000000000E+00  0.80563281970E+02  0.80563281970E+02  0.00000000000E+00 0.  1.
         21   -1    0    0  501  503 -0.00000000000E+00 -0.00000000000E+00 -0.71602180271E+03  0.71602180271E+03  0.00000000000E+00 0.  1.
          6    2    1    2  501    0  0.11390768033E+02 -0.67605745599E+02 -0.57228868694E+03  0.60135496003E+03  0.17150265395E+03 0.  0.
         24    2    3    3    0    0 -0.32491367820E+02 -0.86065978625E+02 -0.49745887587E+03  0.51254047542E+03  0.82276145414E+02 0.  0.
         -6    2    1    2    0  502 -0.11390768033E+02  0.67605745599E+02 -0.63169833800E+02  0.19523012465E+03  0.17153450742E+03 0.  0.
        -24    2    5    5    0    0  0.54832290363E+02  0.46730790815E+02 -0.10774572238E+02  0.10811749277E+03  0.79893391205E+02 0.  0.
          5    1    3    3  501    0  0.43882135853E+02  0.18460233026E+02 -0.74829811070E+02  0.88814484602E+02  0.47000000000E+01 0. -1.
        -13    1    4    4    0    0 -0.81528539219E+01 -0.46488725464E+02 -0.82966221779E+02  0.95451896674E+02  0.00000000000E+00 0.  1.
         14    1    4    4    0    0 -0.24338513898E+02 -0.39577253161E+02 -0.41449265409E+03  0.41708857875E+03  0.00000000000E+00 0. -1.
         -5    1    5    5    0  502 -0.66223058396E+02  0.20874954784E+02 -0.52395261562E+02  0.87112631890E+02  0.47000000000E+01 0.  1.
         11    1    6    6    0    0  0.57690192416E+02 -0.25246383134E+01 -0.63920486777E+00  0.57748945293E+02  0.00000000000E+00 0. -1.
        -12    1    6    6    0    0 -0.28579020528E+01  0.49255429128E+02 -0.10135367370E+02  0.50368547472E+02  0.00000000000E+00 0.  1.
</event>
<event>
12    1  0.8406581E-002  0.1997156E+03  0.7818608E-02  0.1150119E+00
         21   -1    0    0  503  502  0.00000000000E+00  0.00000000000E+00  0.32784386208E+02  0.32784386208E+02  0.00000000000E+00 0.  1.
         21   -1    0    0  501  503 -0.00000000000E+00 -0.00000000000E+00 -0.12126898100E+04  0.12126898100E+04  0.00000000000E+00 0.  1.
          6    2    1    2  501    0  0.56155130285E+02 -0.81340387386E+02 -0.59639283187E+03  0.62894415376E+03  0.17354158398E+03 0.  0.
         24    2    3    3    0    0  0.80999735722E+02 -0.16731066170E+02 -0.47752444730E+03  0.49130912313E+03  0.80710414058E+02 0.  0.
         -6    2    1    2    0  502 -0.56155130285E+02  0.81340387386E+02 -0.58351259196E+03  0.61653004248E+03  0.17277931308E+03 0.  0.
        -24    2    5    5    0    0 -0.25343607396E+02 -0.26186583327E+02 -0.23583743031E+03  0.25127464224E+03  0.78686826842E+02 0.  0.
          5    1    3    3  501    0 -0.24844605436E+02 -0.64609321216E+02 -0.11886838456E+03  0.13763503063E+03  0.47000000000E+01 0. -1.
        -11    1    4    4    0    0  0.29512723785E+02 -0.42000981970E+02 -0.14369875053E+03  0.15259231388E+03  0.00000000000E+00 0.  1.
         12    1    4    4    0    0  0.51487011937E+02  0.25269915800E+02 -0.33382569677E+03  0.33871680925E+03  0.00000000000E+00 0. -1.
         -5    1    5    5    0  502 -0.30811522889E+02  0.10752697071E+03 -0.34767516165E+03  0.36525540023E+03  0.47000000000E+01 0.  1.
         13    1    6    6    0    0 -0.47249111902E+02  0.38400743116E+01 -0.15906055048E+03  0.16597434580E+03  0.00000000000E+00 0. -1.
        -14    1    6    6    0    0  0.21905504505E+02 -0.30026657639E+02 -0.76776879828E+02  0.85300296440E+02  0.00000000000E+00 0.  1.
</event>
<event>
12    1  0.8406581E-002  0.1788757E+03  0.7818608E-02  0.1169595E+00
         21   -1    0    0  501  502  0.00000000000E+00  0.00000000000E+00  0.10337026801E+04  0.10337026801E+04  0.00000000000E+00 0. -1.
         21   -1    0    0  502  503 -0.00000000000E+00 -0.00000000000E+00 -0.61812200289E+02  0.61812200289E+02  0.00000000000E+00 0. -1.
         -6    2    1    2    0  503 -0.42804739978E+02  0.24607357957E+02  0.93944671189E+02  0.19953198933E+03  0.16896640403E+03 0.  0.
        -24    2    3    3    0    0  0.25200243659E+02  0.33200684390E+02 -0.10224475190E+02  0.74744874144E+02  0.61195739994E+02 0.  0.
          6    2    1    2  501    0  0.42804739978E+02 -0.24607357957E+02  0.87794580863E+03  0.89598289107E+03  0.17192652608E+03 0.  0.
         24    2    5    5    0    0  0.70827869851E+02 -0.69598027903E+02  0.68328373389E+03  0.69417885361E+03  0.71743621150E+02 0.  0.
          5    1    5    5  501    0 -0.28023129873E+02  0.44990669946E+02  0.19466207474E+03  0.20180403745E+03  0.47000000000E+01 0. -1.
        -13    1    6    6    0    0  0.44157326576E+02 -0.14067608450E+02  0.14131300025E+03  0.14871829457E+03  0.00000000000E+00 0.  1.
         14    1    6    6    0    0  0.26670543275E+02 -0.55530419452E+02  0.54197073363E+03  0.54546055905E+03  0.00000000000E+00 0. -1.
         -5    1    3    3    0  503 -0.68004983637E+02 -0.85933264336E+01  0.10416914638E+03  0.12478711518E+03  0.47000000000E+01 0.  1.
         11    1    4    4    0    0 -0.17226113792E+02  0.16327287280E+02 -0.16143503137E+02  0.28704215716E+02  0.00000000000E+00 0. -1.
        -12    1    4    4    0    0  0.42426357451E+02  0.16873397110E+02  0.59190279476E+01  0.46040658428E+02  0.00000000000E+00 0.  1.
</event>
<event>
12    1  0.8406581E-002  0.1723854E+03  0.7818608E-02  0.1175402E+00
         21   -1    0    0  501  502  0.00000000000E+00  0.00000000000E+00  0.26374761233E+03  0.26374761233E+03  0.00000000000E+00 0.  1.
         21   -1    0    0  502  503 -0.00000000000E+00 -0.00000000000E+00 -0.15332488575E+03  0.15332488575E+03  0.00000000000E+00 0. -1.
         -6    2    1    2    0  503  0.18297238976E+01 -0.16417049187E+02 -0.52242922245E+02  0.18005595952E+03  0.17151664129E+03 0.  0.
        -24    2    3    3    0    0  0.21808093471E+02 -0.54969161298E+02 -0.80917147064E+02  0.12780941161E+03  0.79312416261E+02 0.  0.
          6    2    1    2  501    0 -0.18297238976E+01  0.16417049187E+02  0.16266564883E+03  0.23701653855E+03  0.17159212933E+03 0.  0.
         24    2    5    5    0    0 -0.74376865704E+02  0.26097771189E+01  0.78452389825E+02  0.12491082265E+03  0.62523651988E+02 0.  0.
          5    1    5    5  501    0  0.72547141806E+02  0.13807272068E+02  0.84213259001E+02  0.11210571590E+03  0.47000000000E+01 0. -1.
        -11    1    6    6    0    0 -0.54372944187E+02 -0.26868433319E+02  0.40915965389E+02  0.73160412740E+02  0.00000000000E+00 0.  1.
         12    1    6    6    0    0 -0.20003921517E+02  0.29478210438E+02  0.37536424436E+02  0.51750409912E+02  0.00000000000E+00 0. -1.
         -5    1    3    3    0  503 -0.19978369574E+02  0.38552112111E+02  0.28674224818E+02  0.52246547905E+02  0.47000000000E+01 0.  1.
         11    1    4    4    0    0 -0.89813914508E+01  0.13516638545E+02 -0.38002628558E+02  0.41322689739E+02  0.00000000000E+00 0. -1.
        -12    1    4    4    0    0  0.30789484922E+02 -0.68485799843E+02 -0.42914518506E+02  0.86486721874E+02  0.00000000000E+00 0.  1.
</event>
<event>
12    1  0.8406581E-002  0.1771911E+03  0.7818608E-02  0.1171399E+00
         21   -1    0    0  501  502  0.00000000000E+00  0.00000000000E+00  0.15827169304E+03  0.15827169304E+03  0.00000000000E+00 0.  1.
         21   -1    0    0  502  503 -0.00000000000E+00 -0.00000000000E+00 -0.74829429426E+03  0.74829429426E+03  0.00000000000E+00 0.  1.
         -6    2    1    2    0  503  0.19174278927E+02 -0.26589543005E+01 -0.68418328090E+03  0.70590975680E+03  0.17270523984E+03 0.  0.
        -24    2    3    3    0    0  0.60471411806E+02 -0.97989422048E+01 -0.26871909838E+03  0.28831065531E+03  0.84618373971E+02 0.  0.
          6    2    1    2  501    0 -0.19174278927E+02  0.26589543005E+01  0.94160679685E+02  0.20065623050E+03  0.17613053747E+03 0.  0.
         24    2    5    5    0    0  0.75051981168E+00 -0.33777555711E+01 -0.20124035515E+02  0.84395637009E+02  0.81888181248E+02 0.  0.
          5    1    5    5  501    0 -0.19924798738E+02  0.60367098716E+01  0.11428471520E+03  0.11626059349E+03  0.47000000000E+01 0. -1.
        -11    1    6    6    0    0  0.22409630583E+02 -0.20842076422E+02  0.19271322990E+02  0.36165834460E+02  0.00000000000E+00 0.  1.
         12    1    6    6    0    0 -0.21659110771E+02  0.17464320851E+02 -0.39395358505E+02  0.48229802549E+02  0.00000000000E+00 0. -1.
         -5    1    3    3    0  503 -0.41297132879E+02  0.71399879043E+01 -0.41546418252E+03  0.41759910149E+03  0.47000000000E+01 0.  1.
         11    1    4    4    0    0  0.30664151572E+02  0.30501079922E+02 -0.61959823225E+02  0.75562065629E+02  0.00000000000E+00 0. -1.
        -12    1    4    4    0    0  0.29807260233E+02 -0.40300022127E+02 -0.20675927516E+03  0.21274858968E+03  0.00000000000E+00 0.  1.
</event>
<event>
12    1  0.8406581E-002  0.2157017E+03  0.7818608E-02  0.1138233E+00
         21   -1    0    0  503  502  0.00000000000E+00  0.00000000000E+00  0.15821214733E+04  0.15821214733E+04  0.00000000000E+00 0.  1.
         21   -1    0    0  501  503 -0.00000000000E+00 -0.00000000000E+00 -0.38184534526E+02  0.38184534526E+02  0.00000000000E+00 0. -1.
          6    2    1    2  501    0 -0.77132128778E+02  0.10546914610E+03  0.37463514965E+03  0.43229471680E+03  0.17162202876E+03 0.  0.
         24    2    3    3    0    0 -0.83977474704E+02  0.27795490899E+02  0.12611086573E+03  0.17178278776E+03  0.76030060803E+02 0.  0.
         -6    2    1    2    0  502  0.77132128778E+02 -0.10546914610E+03  0.11693017891E+04  0.11880112910E+04  0.16441121457E+03 0.  0.
        -24    2    5    5    0    0  0.36807519898E+02 -0.22170081249E+02  0.87445412489E+03  0.87894488490E+03  0.77638831381E+02 0.  0.
          5    1    3    3  501    0  0.68453459266E+01  0.77673655198E+02  0.24852428392E+03  0.26051192904E+03  0.47000000000E+01 0. -1.
        -11    1    4    4    0    0 -0.83180297739E+02  0.16269939485E+02  0.13345382834E+03  0.15809363416E+03  0.00000000000E+00 0.  1.
         12    1    4    4    0    0 -0.79717696514E+00  0.11525551414E+02 -0.73429626131E+01  0.13689153606E+02  0.00000000000E+00 0. -1.
         -5    1    5    5    0  502  0.40324608880E+02 -0.83299064847E+02  0.29484766421E+03  0.30906640610E+03  0.47000000000E+01 0.  1.
         11    1    6    6    0    0 -0.19198821750E+02 -0.22934336305E+02  0.41765280114E+03  0.41872239113E+03  0.00000000000E+00 0. -1.
        -12    1    6    6    0    0  0.56006341648E+02  0.76425505539E+00  0.45680132375E+03  0.46022249376E+03  0.00000000000E+00 0.  1.
</event>
<event>
12    1  0.8406581E-002  0.3073751E+03  0.7818608E-02  0.1082419E+00
         21   -1    0    0  503  502  0.00000000000E+00  0.00000000000E+00  0.73589136286E+03  0.73589136286E+03  0.00000000000E+00 0.  1.
         21   -1    0    0  501  503 -0.00000000000E+00 -0.00000000000E+00 -0.17656273493E+03  0.17656273493E+03  0.00000000000E+00 0. -1.
          6    2    1    2  501    0  0.15124088559E+03  0.20532530521E+03  0.32525646598E+02  0.30253540409E+03  0.15949127439E+03 0.  0.
         24    2    3    3    0    0  0.11113691337E+03  0.14199919077E+03  0.81015105440E+02  0.21313829577E+03  0.79682508231E+02 0.  0.
         -6    2    1    2    0  502 -0.15124088559E+03 -0.20532530521E+03  0.52680298133E+03  0.60991869371E+03  0.17160170559E+03 0.  0.
        -24    2    5    5    0    0 -0.91630073360E+02 -0.10154754017E+03  0.16296563751E+03  0.22687434091E+03  0.78779402737E+02 0.  0.
          5    1    3    3  501    0  0.40103972214E+02  0.63326114439E+02 -0.48489458842E+02  0.89397108321E+02  0.47000000000E+01 0. -1.
        -11    1    4    4    0    0  0.69766321982E+02  0.11453394948E+03  0.21820032470E+02  0.13587302559E+03  0.00000000000E+00 0.  1.
         12    1    4    4    0    0  0.41370591392E+02  0.27465241296E+02  0.59195072970E+02  0.77265270177E+02  0.00000000000E+00 0. -1.
         -5    1    5    5    0  502 -0.59610812229E+02 -0.10377776504E+03  0.36383734382E+03  0.38304435280E+03  0.47000000000E+01 0.  1.
         11    1    6    6    0    0 -0.30109476954E+02 -0.66950573168E+02  0.36353401492E+02  0.81917822542E+02  0.00000000000E+00 0. -1.
        -12    1    6    6    0    0 -0.61520596405E+02 -0.34596967004E+02  0.12661223602E+03  0.14495651837E+03  0.00000000000E+00 0.  1.
</event>
<event>
12    1  0.8406581E-002  0.2020256E+03  0.7818608E-02  0.1148282E+00
         21   -1    0    0  501  502  0.00000000000E+00  0.00000000000E+00  0.16764606937E+03  0.16764606937E+03  0.00000000000E+00 0. -1.
         21   -1    0    0  502  503 -0.00000000000E+00 -0.00000000000E+00 -0.74763004261E+03  0.74763004261E+03  0.00000000000E+00 0. -1.
         -6    2    1    2    0  503  0.24172020556E+02 -0.10024030028E+03 -0.66658683551E+03  0.69652877783E+03  0.17372945834E+03 0.  0.
        -24    2    3    3    0    0  0.51999619340E+02 -0.30417981890E+02 -0.19181065783E+03  0.21581676395E+03  0.78462303753E+02 0.  0.
          6    2    1    2  501    0 -0.24172020556E+02  0.10024030028E+03  0.86602862266E+02  0.21874733415E+03  0.17238890936E+03 0.  0.
         24    2    5    5    0    0  0.35812727986E+02  0.40739519647E+02  0.89787537678E+02  0.13406708196E+03  0.83486050315E+02 0.  0.
          5    1    5    5  501    0 -0.59984748543E+02  0.59500780629E+02 -0.31846754121E+01  0.84680252188E+02  0.47000000000E+01 0. -1.
        -11    1    6    6    0    0  0.14191184593E+02  0.25977830199E+01 -0.14795828059E+02  0.20665302435E+02  0.00000000000E+00 0.  1.
         12    1    6    6    0    0  0.21621543393E+02  0.38141736627E+02  0.10458336574E+03  0.11340177953E+03  0.00000000000E+00 0. -1.
         -5    1    3    3    0  503 -0.27827598784E+02 -0.69822318386E+02 -0.47477617768E+03  0.48071201388E+03  0.47000000000E+01 0.  1.
         13    1    4    4    0    0 -0.61237886651E+01 -0.67023714576E+01 -0.12037875070E+03  0.12072061212E+03  0.00000000000E+00 0. -1.
        -14    1    4    4    0    0  0.58123408005E+02 -0.23715610432E+02 -0.71431907133E+02  0.95096151831E+02  0.00000000000E+00 0.  1.
</event>
<event>
12    1  0.8406581E-002  0.2219420E+03  0.7818608E-02  0.1132788E+00
         21   -1    0    0  503  502  0.00000000000E+00  0.00000000000E+00  0.75132509051E+02  0.75132509051E+02  0.00000000000E+00 0.  1.
         21   -1    0    0  501  503 -0.00000000000E+00 -0.00000000000E+00 -0.65078112971E+03  0.65078112971E+03  0.00000000000E+00 0.  1.
          6    2    1    2  501    0 -0.13567344916E+03  0.18097077319E+02 -0.27509753595E+03  0.35229725955E+03  0.17233663507E+03 0.  0.
         24    2    3    3    0    0 -0.38623854873E+02 -0.44088087996E+02 -0.16478065852E+03  0.19268046224E+03  0.80855014935E+02 0.  0.
         -6    2    1    2    0  502  0.13567344916E+03 -0.18097077319E+02 -0.30055108471E+03  0.37361637921E+03  0.17470963132E+03 0.  0.
        -24    2    5    5    0    0  0.13294517146E+02  0.34692423353E+02 -0.10636307056E+03  0.13804386548E+03  0.79766519257E+02 0.  0.
          5    1    3    3  501    0 -0.97049594292E+02  0.62185165315E+02 -0.11031687744E+03  0.15961679731E+03  0.47000000000E+01 0. -1.
        -13    1    4    4    0    0 -0.43424194867E+02  0.99073651720E+01 -0.60202139197E+02  0.74887343046E+02  0.00000000000E+00 0.  1.
         14    1    4    4    0    0  0.48003399944E+01 -0.53995453168E+02 -0.10457851932E+03  0.11779311919E+03  0.00000000000E+00 0. -1.
         -5    1    5    5    0  502  0.12237893202E+03 -0.52789500672E+02 -0.19418801415E+03  0.23557251372E+03  0.47000000000E+01 0.  1.
         13    1    6    6    0    0 -0.24675100977E+02 -0.41558535968E+01 -0.65353797151E+02  0.69980358168E+02  0.00000000000E+00 0. -1.
        -14    1    6    6    0    0  0.37969618124E+02  0.38848276950E+02 -0.41009273409E+02  0.68063507315E+02  0.00000000000E+00 0.  1.
</event>
<event>
12    1  0.8406581E-002  0.3033698E+03  0.7818608E-02  0.1083628E+00
         21   -1    0    0  503  502  0.00000000000E+00  0.00000000000E+00  0.11723952387E+03  0.11723952387E+03  0.00000000000E+00 0. -1.
         21   -1    0    0  501  503 -0.00000000000E+00 -0.00000000000E+00 -0.85049686869E+03  0.85049686869E+03  0.00000000000E+00 0.  1.
          6    2    1    2  501    0  0.77148175995E+02 -0.23861739873E+03 -0.50190931256E+03  0.58621949929E+03  0.16985358191E+03 0.  0.
         24    2    3    3    0    0  0.35712780991E+02 -0.19584597505E+03 -0.25830621465E+03  0.33539915332E+03  0.78354596888E+02 0.  0.
         -6    2    1    2    0  502 -0.77148175995E+02  0.23861739873E+03 -0.23134803227E+03  0.38151689326E+03  0.17071357233E+03 0.  0.
        -24    2    5    5    0    0 -0.88122340216E+02  0.79470745286E+02 -0.93159081798E+02  0.17040941918E+03  0.79243986663E+02 0.  0.
          5    1    3    3  501    0  0.41435395004E+02 -0.42771423674E+02 -0.24360309791E+03  0.25082034597E+03  0.47000000000E+01 0. -1.
        -11    1    4    4    0    0  0.17744558608E+02 -0.10283511857E+02 -0.59127442644E+02  0.62583340035E+02  0.00000000000E+00 0.  1.
         12    1    4    4    0    0  0.17968222382E+02 -0.18556246320E+03 -0.19917877200E+03  0.27281581329E+03  0.00000000000E+00 0. -1.
         -5    1    5    5    0  502  0.10974164221E+02  0.15914665344E+03 -0.13818895047E+03  0.21110747409E+03  0.47000000000E+01 0.  1.
         11    1    6    6    0    0 -0.59482734916E+02  0.93469619015E+02 -0.73575566611E+02  0.13299672716E+03  0.00000000000E+00 0. -1.
        -12    1    6    6    0    0 -0.28639605300E+02 -0.13998873729E+02 -0.19583515186E+02  0.37412692024E+02  0.00000000000E+00 0.  1.
</event>
<event>
12    1  0.8406581E-002  0.2373568E+03  0.7818608E-02  0.1121895E+00
         21   -1    0    0  503  502  0.00000000000E+00  0.00000000000E+00  0.46634459226E+02  0.46634459226E+02  0.00000000000E+00 0. -1.
         21   -1    0    0  501  503 -0.00000000000E+00 -0.00000000000E+00 -0.15408112091E+04  0.15408112091E+04  0.00000000000E+00 0. -1.
          6    2    1    2  501    0  0.48345667896E+02  0.15513129546E+03 -0.11189606026E+04  0.11434576070E+04  0.17035095064E+03 0.  0.
         24    2    3    3    0    0  0.28418123494E+02  0.40454861540E+02 -0.23364524157E+03  0.25051126483E+03  0.75641320249E+02 0.  0.
         -6    2    1    2    0  502 -0.48345667896E+02 -0.15513129546E+03 -0.37521614721E+03  0.44398806127E+03  0.17301797302E+03 0.  0.
        -24    2    5    5    0    0 -0.99228727198E+02 -0.10892439511E+03 -0.28043966795E+03  0.32681795252E+03  0.80328715774E+02 0.  0.
          5    1    3    3  501    0  0.19927544401E+02  0.11467643392E+03 -0.88531536105E+03  0.89294634219E+03  0.47000000000E+01 0. -1.
        -11    1    4    4    0    0  0.16663265984E+02 -0.10256637270E+02 -0.15479920133E+03  0.15603094492E+03  0.00000000000E+00 0.  1.
         12    1    4    4    0    0  0.11754857511E+02  0.50711498810E+02 -0.78846040249E+02  0.94480319907E+02  0.00000000000E+00 0. -1.
         -5    1    5    5    0  502  0.50883059302E+02 -0.46206900347E+02 -0.94776479256E+02  0.11717010875E+03  0.47000000000E+01 0.  1.
         11    1    6    6    0    0 -0.12687729923E+02 -0.39042136842E+02 -0.24637295816E+02  0.47877586456E+02  0.00000000000E+00 0. -1.
        -12    1    6    6    0    0 -0.86540997275E+02 -0.69882258269E+02 -0.25580237214E+03  0.27894036607E+03  0.00000000000E+00 0.  1.
</event>
<event>
12    1  0.8406581E-002  0.2076272E+03  0.7818608E-02  0.1143918E+00
         21   -1    0    0  503  502  0.00000000000E+00  0.00000000000E+00  0.11432470061E+04  0.11432470061E+04  0.00000000000E+00 0. -1.
         21   -1    0    0  501  503 -0.00000000000E+00 -0.00000000000E+00 -0.41057789777E+02  0.41057789777E+02  0.00000000000E+00 0. -1.
          6    2    1    2  501    0  0.26824575683E+02  0.11359056297E+03  0.72757279732E+03  0.75599820654E+03  0.16896372106E+03 0.  0.
         24    2    3    3    0    0  0.15838254206E+02  0.97753142868E+01  0.15443870268E+03  0.17341509182E+03  0.76649032082E+02 0.  0.
         -6    2    1    2    0  502 -0.26824575683E+02 -0.11359056297E+03  0.37461641899E+03  0.42830658933E+03  0.17171691596E+03 0.  0.
        -24    2    5    5    0    0  0.35555296335E+02 -0.11336683126E+03  0.28886612290E+03  0.32216281057E+03  0.78924153642E+02 0.  0.
          5    1    3    3  501    0  0.10986321477E+02  0.10381524869E+03  0.57313409464E+03  0.58258311472E+03  0.47000000000E+01 0. -1.
        -13    1    4    4    0    0  0.20418380434E+02 -0.26861517713E+02  0.11292365446E+03  0.11785670591E+03  0.00000000000E+00 0.  1.
         14    1    4    4    0    0 -0.45801262284E+01  0.36636832000E+02  0.41515048228E+02  0.55558385907E+02  0.00000000000E+00 0. -1.
         -5    1    5    5    0  502 -0.62379872018E+02 -0.22373171383E+00  0.85750296088E+02  0.10614377875E+03  0.47000000000E+01 0.  1.
         11    1    6    6    0    0  0.84391519076E+01 -0.65594305327E+02  0.69152879337E+02  0.95686743580E+02  0.00000000000E+00 0. -1.
        -12    1    6    6    0    0  0.27116144427E+02 -0.47772525933E+02  0.21971324357E+03  0.22647606699E+03  0.00000000000E+00 0.  1.
</event>
<event>
12    1  0.8406581E-002  0.2111293E+03  0.7818608E-02  0.1143291E+00
         21   -1    0    0  501  502  0.00000000000E+00  0.00000000000E+00  0.38724681304E+03  0.38724681304E+03  0.00000000000E+00 0.  1.
         21   -1    0    0  502  503 -0.00000000000E+00 -0.00000000000E+00 -0.10854663391E+03  0.10854663391E+03  0.00000000000E+00 0.  1.
         -6    2    1    2    0  503  0.28044413133E+02  0.94008090304E+02  0.12974294480E+03  0.24780802255E+03  0.18695340105E+03 0.  0.
        -24    2    3    3    0    0 -0.23000769633E+02  0.10451841303E+03  0.32526661533E+02  0.13740343343E+03  0.79803419353E+02 0.  0.
          6    2    1    2  501    0 -0.28044413133E+02 -0.94008090304E+02  0.14895723432E+03  0.24798542440E+03  0.17229191190E+03 0.  0.
         24    2    5    5    0    0 -0.71229840192E+02 -0.94014950099E+02  0.14667600514E+03  0.20448513516E+03  0.79923832759E+02 0.  0.
          5    1    5    5  501    0  0.43185427060E+02  0.68597949763E-02  0.22812291856E+01  0.43500289240E+02  0.47000000000E+01 0. -1.
        -11    1    6    6    0    0 -0.39441807064E+02  0.30871932977E+01  0.31906534681E+02  0.50825326977E+02  0.00000000000E+00 0.  1.
         12    1    6    6    0    0 -0.31788033128E+02 -0.97102143396E+02  0.11476947046E+03  0.15365980818E+03  0.00000000000E+00 0. -1.
         -5    1    3    3    0  503  0.51045182766E+02 -0.10510322729E+02  0.97216283269E+02  0.11040458913E+03  0.47000000000E+01 0.  1.
         13    1    4    4    0    0 -0.41817125007E+02  0.19339874013E+02  0.14770455053E+02  0.48382527974E+02  0.00000000000E+00 0. -1.
        -14    1    4    4    0    0  0.18816355374E+02  0.85178539020E+02  0.17756206480E+02  0.89020905454E+02  0.00000000000E+00 0.  1.
</event>
<event>
12    1  0.8406581E-002  0.1956014E+03  0.7818608E-02  0.1153844E+00
         21   -1    0    0  501  502  0.00000000000E+00  0.00000000000E+00  0.18618541691E+03  0.18618541691E+03  0.00000000000E+00 0. -1.
         21   -1    0    0  502  503 -0.00000000000E+00 -0.00000000000E+00 -0.21163663852E+03  0.21163663852E+03  0.00000000000E+00 0. -1.
         -6    2    1    2    0  503 -0.38396508484E+02  0.82244796086E+02 -0.50909240914E+02  0.20211790509E+03  0.17326684161E+03 0.  0.
        -24    2    3    3    0    0 -0.75676137926E+02  0.96213449917E+02 -0.10866650874E+02  0.14545757436E+03  0.77819766398E+02 0.  0.
          6    2    1    2  501    0  0.38396508484E+02 -0.82244796086E+02  0.25458019296E+02  0.19570415034E+03  0.17150365992E+03 0.  0.
         24    2    5    5    0    0  0.14387258425E+02 -0.10504804099E+03 -0.25505389023E+02  0.13474686157E+03  0.79146116226E+02 0.  0.
          5    1    5    5  501    0  0.24009250059E+02  0.22803244900E+02  0.50963408319E+02  0.60957288767E+02  0.47000000000E+01 0. -1.
        -13    1    6    6    0    0 -0.14503564826E+02 -0.20325052940E+02  0.22115041456E+02  0.33354703240E+02  0.00000000000E+00 0.  1.
         14    1    6    6    0    0  0.28890823251E+02 -0.84722988046E+02 -0.47620430479E+02  0.10139215833E+03  0.00000000000E+00 0. -1.
         -5    1    3    3    0  503  0.37279629442E+02 -0.13968653831E+02 -0.40042590040E+02  0.56660330729E+02  0.47000000000E+01 0.  1.
         13    1    4    4    0    0 -0.70749299905E+02  0.10973954664E+03 -0.11288449202E+02  0.13105594462E+03  0.00000000000E+00 0. -1.
        -14    1    4    4    0    0 -0.49268380209E+01 -0.13526096725E+02  0.42179832803E+00  0.14401629746E+02  0.00000000000E+00 0.  1.
</event>
<event>
12    1  0.8406581E-002  0.1745184E+03  0.7818608E-02  0.1173916E+00
         21   -1    0    0  503  502  0.00000000000E+00  0.00000000000E+00  0.73618886377E+03  0.73618886377E+03  0.00000000000E+00 0.  1.
         21   -1    0    0  501  503 -0.00000000000E+00 -0.00000000000E+00 -0.62738602824E+02  0.62738602824E+02  0.00000000000E+00 0.  1.
          6    2    1    2  501    0 -0.47894570496E+01 -0.30774786740E+02  0.98340627631E+02  0.19792183120E+03  0.16891461104E+03 0.  0.
         24    2    3    3    0    0  0.42500785803E+02 -0.40442650812E+02  0.11054651899E+03  0.14791274754E+03  0.78839858098E+02 0.  0.
         -6    2    1    2    0  502  0.47894570496E+01  0.30774786740E+02  0.57510963332E+03  0.60100563540E+03  0.17171679316E+03 0.  0.
        -24    2    5    5    0    0  0.35165880326E+02  0.51856051411E+02  0.53639751975E+03  0.54726678030E+03  0.88616817889E+02 0.  0.
          5    1    3    3  501    0 -0.47290242852E+02  0.96678640723E+01 -0.12205891355E+02  0.50009083660E+02  0.47000000000E+01 0. -1.
        -13    1    4    4    0    0  0.11143770540E+02 -0.25540462848E+02 -0.40628134458E+01  0.28160350094E+02  0.00000000000E+00 0.  1.
         14    1    4    4    0    0  0.31357015263E+02 -0.14902187965E+02  0.11460933243E+03  0.11975239744E+03  0.00000000000E+00 0. -1.
         -5    1    5    5    0  502 -0.30376423276E+02 -0.21081264671E+02  0.38712113562E+02  0.53738855101E+02  0.47000000000E+01 0.  1.
         11    1    6    6    0    0 -0.31185442054E+00 -0.19260486782E+02  0.38327734123E+02  0.42896139771E+02  0.00000000000E+00 0. -1.
        -12    1    6    6    0    0  0.35477734746E+02  0.71116538193E+02  0.49806978563E+03  0.50437064053E+03  0.00000000000E+00 0.  1.
</event>
<event>
12    1  0.8406581E-002  0.1862644E+03  0.7818608E-02  0.1161968E+00
         21   -1    0    0  503  502  0.00000000000E+00  0.00000000000E+00  0.16841931928E+03  0.16841931928E+03  0.00000000000E+00 0. -1.
         21   -1    0    0  501  503 -0.00000000000E+00 -0.00000000000E+00 -0.33250206354E+03  0.33250206354E+03  0.00000000000E+00 0. -1.
          6    2    1    2  501    0 -0.48112511556E+02 -0.55500184216E+02 -0.23685606371E+03  0.30132246485E+03  0.17117052517E+03 0.  0.
         24    2    3    3    0    0  0.16329696736E+02 -0.82053188391E+02 -0.16143468886E+03  0.19852006203E+03  0.79684826286E+02 0.  0.
         -6    2    1    2    0  502  0.48112511556E+02  0.55500184216E+02  0.72773319454E+02  0.19959891797E+03  0.17072986796E+03 0.  0.
        -24    2    5    5    0    0 -0.12336533664E+02 -0.13956947545E+02  0.84707842044E+02  0.10663170305E+03  0.62031565712E+02 0.  0.
          5    1    3    3  501    0 -0.64442208292E+02  0.26553004175E+02 -0.75421374848E+02  0.10280240281E+03  0.47000000000E+01 0. -1.
        -11    1    4    4    0    0 -0.28191783650E+02 -0.54482727600E+02 -0.69362324769E+02  0.92597388567E+02  0.00000000000E+00 0.  1.
         12    1    4    4    0    0  0.44521480386E+02 -0.27570460791E+02 -0.92072364094E+02  0.10592267346E+03  0.00000000000E+00 0. -1.
         -5    1    5    5    0  502  0.60449045219E+02  0.69457131761E+02 -0.11934522590E+02  0.92967214919E+02  0.47000000000E+01 0.  1.
         11    1    6    6    0    0 -0.37298561747E+02 -0.10753254447E+02  0.59255201042E+02  0.70837800926E+02  0.00000000000E+00 0. -1.
        -12    1    6    6    0    0  0.24962028083E+02 -0.32036930976E+01  0.25452641002E+02  0.35793902127E+02  0.00000000000E+00 0.  1.
</event>
<event>
12    1  0.8406581E-002  0.1793055E+03  0.7818608E-02  0.1168582E+00
         21   -1    0    0  501  502  0.00000000000E+00  0.00000000000E+00  0.63772915292E+03  0.63772915292E+03  0.00000000000E+00 0.  1.
         21   -1    0    0  502  503 -0.00000000000E+00 -0.00000000000E+00 -0.93161082669E+02  0.93161082669E+02  0.00000000000E+00 0.  1.
         -6    2    1    2    0  503  0.21245321335E+02 -0.44066883292E+02  0.24210031643E+02  0.18050588200E+03  0.17205520603E+03 0.  0.
        -24    2    3    3    0    0  0.37937873717E+02  0.36983715838E+02  0.94362120683E+01  0.96314453279E+02  0.79877120083E+02 0.  0.
          6    2    1    2  501    0 -0.21245321335E+02  0.44066883292E+02  0.52035803861E+03  0.55038435360E+03  0.17250273753E+03 0.  0.
         24    2    5    5    0    0  0.92463243029E+01 -0.14581955149E+02  0.43547534601E+03  0.44269689746E+03  0.77740839441E+02 0.  0.
          5    1    5    5  501    0 -0.30491645638E+02  0.58648838442E+02  0.84882692607E+02  0.10768745613E+03  0.47000000000E+01 0. -1.
        -11    1    6    6    0    0  0.39189785132E+02 -0.91068555718E+01  0.14026592279E+03  0.14592225044E+03  0.00000000000E+00 0.  1.
         12    1    6    6    0    0 -0.29943460829E+02 -0.54750995776E+01  0.29520942321E+03  0.29677464702E+03  0.00000000000E+00 0. -1.
         -5    1    3    3    0  503 -0.16692552383E+02 -0.81050599131E+02  0.14773819575E+02  0.84191428717E+02  0.47000000000E+01 0.  1.
         13    1    4    4    0    0 -0.16776709098E+02  0.35196086948E+02  0.13888870146E+02  0.41389892710E+02  0.00000000000E+00 0. -1.
        -14    1    4    4    0    0  0.54714582815E+02  0.17876288903E+01 -0.44526580780E+01  0.54924560569E+02  0.00000000000E+00 0.  1.
</event>
<event>
12    1  0.8406581E-002  0.2430564E+03  0.7818608E-02  0.1117924E+00
         21   -1    0    0  503  502  0.00000000000E+00  0.00000000000E+00  0.34135000080E+03  0.34135000080E+03  0.00000000000E+00 0. -1.
         21   -1    0    0  501  503 -0.00000000000E+00 -0.00000000000E+00 -0.18441304034E+03  0.18441304034E+03  0.00000000000E+00 0. -1.
          6    2    1    2  501    0 -0.68280491816E+01 -0.17048242290E+03  0.11547962771E+02  0.24333053923E+03  0.17310550858E+03 0.  0.
         24    2    3    3    0    0 -0.61734940182E+02 -0.12444525634E+03 -0.25296621716E+02  0.16262241826E+03  0.80674080007E+02 0.  0.
         -6    2    1    2    0  502  0.68280491816E+01  0.17048242290E+03  0.14538899769E+03  0.28243250191E+03  0.17181175371E+03 0.  0.
        -24    2    5    5    0    0 -0.32089711283E+02  0.84650590275E+02  0.14403864630E+03  0.18806296752E+03  0.80156572536E+02 0.  0.
          5    1    3    3  501    0  0.54906891000E+02 -0.46037166566E+02  0.36844584487E+02  0.80708120972E+02  0.47000000000E+01 0. -1.
        -13    1    4    4    0    0 -0.84945469489E+01 -0.31637144168E+01 -0.28729020526E+02  0.30125123024E+02  0.00000000000E+00 0.  1.
         14    1    4    4    0    0 -0.53240393233E+02 -0.12128154192E+03  0.34323988102E+01  0.13249729523E+03  0.00000000000E+00 0. -1.
         -5    1    5    5    0  502  0.38917760465E+02  0.85831832629E+02  0.13503513911E+01  0.94369534390E+02  0.47000000000E+01 0.  1.
         13    1    6    6    0    0 -0.51921179185E+01  0.87645415368E+02  0.80980955589E+02  0.11944284027E+03  0.00000000000E+00 0. -1.
        -14    1    6    6    0    0 -0.26897593364E+02 -0.29948250931E+01  0.63057690714E+02  0.68620127254E+02  0.00000000000E+00 0.  1.
</event>
<event>
12    1  0.8406581E-002  0.1780177E+03  0.7818608E-02  0.1170179E+00
         21   -1    0    0  501  502  0.00000000000E+00  0.00000000000E+00  0.33433126956E+03  0.33433126956E+03  0.00000000000E+00 0. -1.
         21   -1    0    0  502  503 -0.00000000000E+00 -0.00000000000E+00 -0.13389766486E+03  0.13389766486E+03  0.00000000000E+00 0. -1.
         -6    2    1    2    0  503 -0.17850770745E+02  0.34908878454E+02 -0.27488992273E+02  0.18012756042E+03  0.17364623093E+03 0.  0.
        -24    2    3    3    0    0 -0.68295914802E+02  0.13079444931E+02 -0.49967108983E+02  0.12055749699E+03  0.84864564113E+02 0.  0.
          6    2    1    2  501    0  0.17850770745E+02 -0.34908878454E+02  0.22792259697E+03  0.28810137400E+03  0.17180340998E+03 0.  0.
         24    2    5    5    0    0 -0.49484154759E+01  0.70406116840E+01  0.40305862876E+02  0.94447839235E+02  0.84981025679E+02 0.  0.
          5    1    5    5  501    0  0.22799186221E+02 -0.41949490138E+02  0.18761673410E+03  0.19365353477E+03  0.47000000000E+01 0. -1.
        -13    1    6    6    0    0  0.36362889944E+02 -0.14105758580E+02  0.17968352498E+02  0.42942914220E+02  0.00000000000E+00 0.  1.
         14    1    6    6    0    0 -0.41311305420E+02  0.21146370264E+02  0.22337510378E+02  0.51504925015E+02  0.00000000000E+00 0. -1.
         -5    1    3    3    0  503  0.50445144056E+02  0.21829433523E+02  0.22478116710E+02  0.59570063435E+02  0.47000000000E+01 0.  1.
         13    1    4    4    0    0  0.25224157867E+00 -0.29120332411E+02 -0.11053131020E+02  0.31148500621E+02  0.00000000000E+00 0. -1.
        -14    1    4    4    0    0 -0.68548156380E+02  0.42199777342E+02 -0.38913977963E+02  0.89408996369E+02  0.00000000000E+00 0.  1.
</event>
<event>
12    1  0.8406581E-002  0.1753185E+03  0.7818608E-02  0.1176459E+00
         21   -1    0    0  501  502  0.00000000000E+00  0.00000000000E+00  0.50172493243E+03  0.50172493243E+03  0.00000000000E+00 0. -1.
         21   -1    0    0  502  503 -0.00000000000E+00 -0.00000000000E+00 -0.85461673994E+02  0.85461673994E+02  0.00000000000E+00 0. -1.
         -6    2    1    2    0  503 -0.29870483240E+02 -0.23718537904E+02  0.42139322095E+02  0.18031168859E+03  0.17111916248E+03 0.  0.
        -24    2    3    3    0    0 -0.99096340062E+01 -0.48579811112E+02 -0.32071257525E+02  0.99405455610E+02  0.79966744038E+02 0.  0.
          6    2    1    2  501    0  0.29870483240E+02  0.23718537904E+02  0.37412393634E+03  0.40687491784E+03  0.15531794555E+03 0.  0.
         24    2    5    5    0    0  0.65383166615E+02  0.50895526176E+02  0.23202717380E+03  0.25783358365E+03  0.76001542173E+02 0.  0.
          5    1    5    5  501    0 -0.35512683375E+02 -0.27176988271E+02  0.14209676254E+03  0.14904133419E+03  0.47000000000E+01 0. -1.
        -13    1    6    6    0    0  0.39426054846E+02 -0.30785210592E+01  0.38271830603E+02  0.55032936596E+02  0.00000000000E+00 0.  1.
         14    1    6    6    0    0  0.25957111768E+02  0.53974047235E+02  0.19375534320E+03  0.20280064705E+03  0.00000000000E+00 0. -1.
         -5    1    3    3    0  503 -0.19960849233E+02  0.24861273208E+02  0.74210579621E+02  0.80906232981E+02  0.47000000000E+01 0.  1.
         11    1    4    4    0    0 -0.36052397456E+02 -0.30851818091E+02  0.82730222356E+01  0.48166927852E+02  0.00000000000E+00 0. -1.
        -12    1    4    4    0    0  0.26142763450E+02 -0.17727993021E+02 -0.40344279761E+02  0.51238527758E+02  0.00000000000E+00 0.  1.
</event>
<event>
12    1  0.8406581E-002  0.5471103E+03  0.7818608E-02  0.1002234E+00
         21   -1    0    0  503  502  0.00000000000E+00  0.00000000000E+00  0.30800912226E+03  0.30800912226E+03  0.00000000000E+00 0.  1.
         21   -1    0    0  501  503 -0.00000000000E+00 -0.00000000000E+00 -0.10282495054E+04  0.10282495054E+04  0.00000000000E+00 0. -1.
          6    2    1    2  501    0 -0.34198686822E+03  0.38925263349E+03 -0.51989131899E+03  0.75472954394E+03  0.17566180641E+03 0.  0.
         24    2    3    3    0    0 -0.73265731788E+02  0.76696772769E+02 -0.15267550118E+03  0.20266816865E+03  0.80711309734E+02 0.  0.
         -6    2    1    2    0  502  0.34198686822E+03 -0.38925263349E+03 -0.20034906411E+03  0.58152908367E+03  0.17194096936E+03 0.  0.
        -24    2    5    5    0    0  0.11552300103E+03 -0.11129566286E+03 -0.21809650749E+02  0.18097400283E+03  0.80892771581E+02 0.  0.
          5    1    3    3  501    0 -0.26872113643E+03  0.31255586072E+03 -0.36721581781E+03  0.55206137529E+03  0.47000000000E+01 0. -1.
        -11    1    4    4    0    0 -0.47246445237E+02 -0.49716862525E+01 -0.51472175990E+02  0.70045193646E+02  0.00000000000E+00 0.  1.
         12    1    4    4    0    0 -0.26019286551E+02  0.81668459021E+02 -0.10120332519E+03  0.13262297501E+03  0.00000000000E+00 0. -1.
         -5    1    5    5    0  502  0.22646386719E+03 -0.27795697063E+03 -0.17853941337E+03  0.40055508084E+03  0.47000000000E+01 0.  1.
         11    1    6    6    0    0  0.29507448011E+02 -0.65399433566E+02 -0.39477600721E+02  0.81891735587E+02  0.00000000000E+00 0. -1.
        -12    1    6    6    0    0  0.86015553021E+02 -0.45896229296E+02  0.17667949972E+02  0.99082267240E+02  0.00000000000E+00 0.  1.
</event>
<event>
12    1  0.8406581E-002  0.2623423E+03  0.7818608E-02  0.1105919E+00
         21   -1    0    0  501  502  0.00000000000E+00  0.00000000000E+00  0.22724803444E+03  0.22724803444E+03  0.00000000000E+00 0.  1.
         21   -1    0    0  502  503 -0.00000000000E+00 -0.00000000000E+00 -0.36164696548E+03  0.36164696548E+03  0.00000000000E+00 0. -1.
         -6    2    1    2    0  503 -0.17504417559E+03 -0.91690086951E+02 -0.18715281404E+03  0.32130116999E+03  0.17076513279E+03 0.  0.
        -24    2    3    3    0    0 -0.92496145308E+02 -0.75734318305E+01 -0.27246151055E+02  0.12260034000E+03  0.75336557217E+02 0.  0.
          6    2    1    2  501    0  0.17504417559E+03  0.91690086951E+02  0.52753882999E+02  0.26759382993E+03  0.17255709256E+03 0.  0.
         24    2    5    5    0    0  0.18514847259E+03  0.94594062192E+02  0.85345186092E+01  0.22189949684E+03  0.77062021663E+02 0.  0.
          5    1    5    5  501    0 -0.10104296999E+02 -0.29039752403E+01  0.44219364389E+02  0.45694333096E+02  0.47000000000E+01 0. -1.
        -13    1    6    6    0    0  0.79942086907E+02  0.74556289443E+02  0.28475656808E+02  0.11296123488E+03  0.00000000000E+00 0.  1.
         14    1    6    6    0    0  0.10520638568E+03  0.20037772749E+02 -0.19941138199E+02  0.10893826196E+03  0.00000000000E+00 0. -1.
         -5    1    3    3    0  503 -0.82548030285E+02 -0.84116655121E+02 -0.15990666298E+03  0.19870082999E+03  0.47000000000E+01 0.  1.
         11    1    4    4    0    0 -0.17926929321E+02  0.29214808232E+02 -0.18610590752E+02  0.39002998642E+02  0.00000000000E+00 0. -1.
        -12    1    4    4    0    0 -0.74569215987E+02 -0.36788240063E+02 -0.86355603034E+01  0.83597341355E+02  0.00000000000E+00 0.  1.
</event>
<event>
12    1  0.8406581E-002  0.1993210E+03  0.7818608E-02  0.1152081E+00
         21   -1    0    0  503  502  0.00000000000E+00  0.00000000000E+00  0.52151895278E+03  0.52151895278E+03  0.00000000000E+00 0. -1.
         21   -1    0    0  501  503 -0.00000000000E+00 -0.00000000000E+00 -0.74836459021E+02  0.74836459021E+02  0.00000000000E+00 0.  1.
          6    2    1    2  501    0 -0.74239452189E+02  0.70049257533E+02  0.17326992962E+03  0.25800159117E+03  0.16162907472E+03 0.  0.
         24    2    3    3    0    0 -0.16530294267E+02  0.27804412323E+02  0.22157289816E+02  0.90752992481E+02  0.81846344935E+02 0.  0.
         -6    2    1    2    0  502  0.74239452189E+02 -0.70049257533E+02  0.27341256414E+03  0.33835382063E+03  0.17120304601E+03 0.  0.
        -24    2    5    5    0    0  0.96059793105E+02 -0.94387312368E+02  0.17783037882E+03  0.23722760078E+03  0.80726961745E+02 0.  0.
          5    1    3    3  501    0 -0.57709157922E+02  0.42244845210E+02  0.15111263980E+03  0.16724859869E+03  0.47000000000E+01 0. -1.
        -11    1    4    4    0    0 -0.49428286701E+02  0.23569382732E+02  0.15633962864E+02  0.56948152941E+02  0.00000000000E+00 0.  1.
         12    1    4    4    0    0  0.32897992434E+02  0.42350295910E+01  0.65233269512E+01  0.33804839540E+02  0.00000000000E+00 0. -1.
         -5    1    5    5    0  502 -0.21820340916E+02  0.24338054835E+02  0.95582185324E+02  0.10112621985E+03  0.47000000000E+01 0.  1.
         11    1    6    6    0    0  0.11255694971E+02  0.13610611569E+02  0.97039351751E+01  0.20152066258E+02  0.00000000000E+00 0. -1.
        -12    1    6    6    0    0  0.84804098134E+02 -0.10799792394E+03  0.16812644364E+03  0.21707553452E+03  0.00000000000E+00 0.  1.
</event>
<event>
12    1  0.8406581E-002  0.1919735E+03  0.7818608E-02  0.1156898E+00
         21   -1    0    0  501  502  0.00000000000E+00  0.00000000000E+00  0.41887949451E+03  0.41887949451E+03  0.00000000000E+00 0.  1.
         21   -1    0    0  502  503 -0.00000000000E+00 -0.00000000000E+00 -0.87625767783E+02  0.87625767783E+02  0.00000000000E+00 0.  1.
         -6    2    1    2    0  503 -0.80050168064E+02 -0.25604401157E+02  0.15919925960E+03  0.24939569814E+03  0.17259836392E+03 0.  0.
        -24    2    3    3    0    0 -0.18838475957E+01 -0.59219948698E+02  0.11628743562E+03  0.15398346973E+03  0.81716522578E+02 0.  0.
          6    2    1    2  501    0  0.80050168064E+02  0.25604401157E+02  0.17205446712E+03  0.25710956415E+03  0.17157789355E+03 0.  0.
         24    2    5    5    0    0  0.80345421538E+02  0.74887598613E+02  0.92749781279E+02  0.16362029245E+03  0.78137948445E+02 0.  0.
          5    1    5    5  501    0 -0.29525347451E+00 -0.49283197456E+02  0.79304685843E+02  0.93489271699E+02  0.47000000000E+01 0. -1.
        -11    1    6    6    0    0  0.80176032446E+02  0.72713073079E+02  0.10522495681E+03  0.15095588333E+03  0.00000000000E+00 0.  1.
         12    1    6    6    0    0  0.16938909183E+00  0.21745255337E+01 -0.12475175532E+02  0.12664409126E+02  0.00000000000E+00 0. -1.
         -5    1    3    3    0  503 -0.78166320468E+02  0.33615547542E+02  0.42911823985E+02  0.95412228408E+02  0.47000000000E+01 0.  1.
         13    1    4    4    0    0 -0.38350151926E+02 -0.37352244703E+02  0.87693816220E+02  0.10274302770E+03  0.00000000000E+00 0. -1.
        -14    1    4    4    0    0  0.36466304331E+02 -0.21867703995E+02  0.28593619396E+02  0.51240442032E+02  0.00000000000E+00 0.  1.
</event>
<event>
12    1  0.8406581E-002  0.1755768E+03  0.7818608E-02  0.1172577E+00
         21   -1    0    0  501  502  0.00000000000E+00  0.00000000000E+00  0.53608014304E+02  0.53608014304E+02  0.00000000000E+00 0.  1.
         21   -1    0    0  502  503 -0.00000000000E+00 -0.00000000000E+00 -0.10482729360E+04  0.10482729360E+04  0.00000000000E+00 0.  1.
         -6    2    1    2    0  503 -0.22975026758E+02  0.26311605173E+02 -0.87095007379E+03  0.88847128632E+03  0.17206697291E+03 0.  0.
        -24    2    3    3    0    0  0.23872109858E+02 -0.14083830629E+02 -0.72757688118E+03  0.73225218441E+03  0.77826162919E+02 0.  0.
          6    2    1    2  501    0  0.22975026758E+02 -0.26311605173E+02 -0.12371484788E+03  0.21340966395E+03  0.17034720033E+03 0.  0.
         24    2    5    5    0    0  0.74845008791E+02 -0.39126226815E+02 -0.10525611874E+03  0.15668643903E+03  0.79618796009E+02 0.  0.
          5    1    5    5  501    0 -0.51869982034E+02  0.12814621641E+02 -0.18458729132E+02  0.56723224918E+02  0.47000000000E+01 0. -1.
        -11    1    6    6    0    0  0.72741476027E+01 -0.14636069317E+02  0.11217107417E+02  0.19822997937E+02  0.00000000000E+00 0.  1.
         12    1    6    6    0    0  0.67570861188E+02 -0.24490157498E+02 -0.11647322616E+03  0.13686344110E+03  0.00000000000E+00 0. -1.
         -5    1    3    3    0  503 -0.46847136616E+02  0.40395435803E+02 -0.14337319261E+03  0.15621910191E+03  0.47000000000E+01 0.  1.
         13    1    4    4    0    0  0.20296856166E+02  0.24606250757E+02 -0.14919363435E+03  0.15256529906E+03  0.00000000000E+00 0. -1.
        -14    1    4    4    0    0  0.35752536928E+01 -0.38690081387E+02 -0.57838324682E+03  0.57968688534E+03  0.00000000000E+00 0.  1.
</event>
<event>
12    1  0.8406581E-002  0.1912088E+03  0.7818608E-02  0.1157660E+00
         21   -1    0    0  503  502  0.00000000000E+00  0.00000000000E+00  0.63486997346E+02  0.63486997346E+02  0.00000000000E+00 0. -1.
         21   -1    0    0  501  503 -0.00000000000E+00 -0.00000000000E+00 -0.59549412067E+03  0.59549412067E+03  0.00000000000E+00 0. -1.
          6    2    1    2  501    0  0.74203511841E+02 -0.29696583094E+02 -0.33220908023E+03  0.38330623388E+03  0.17370304468E+03 0.  0.
         24    2    3    3    0    0  0.96314552290E+02 -0.57524783803E+02 -0.31470976376E+03  0.34341108454E+03  0.79393600769E+02 0.  0.
         -6    2    1    2    0  502 -0.74203511841E+02  0.29696583094E+02 -0.19979804309E+03  0.27567488413E+03  0.17230593576E+03 0.  0.
        -24    2    5    5    0    0 -0.43102555139E+02  0.11397298926E+02 -0.30009419603E+02  0.10203041985E+03  0.86728960719E+02 0.  0.
          5    1    3    3  501    0 -0.22111040448E+02  0.27828200709E+02 -0.17499316469E+02  0.39895149345E+02  0.47000000000E+01 0. -1.
        -11    1    4    4    0    0  0.22490138989E+02 -0.31986007038E+02 -0.33297913819E+02  0.51358174254E+02  0.00000000000E+00 0.  1.
         12    1    4    4    0    0  0.73824413300E+02 -0.25538776765E+02 -0.28141184994E+03  0.29205291029E+03  0.00000000000E+00 0. -1.
         -5    1    5    5    0  502 -0.31100956702E+02  0.18299284168E+02 -0.16978862349E+03  0.17364446428E+03  0.47000000000E+01 0.  1.
         13    1    6    6    0    0  0.76862017725E+01 -0.24782186129E+02  0.10148610540E+02  0.27860881948E+02  0.00000000000E+00 0. -1.
        -14    1    6    6    0    0 -0.50788756912E+02  0.36179485055E+02 -0.40158030142E+02  0.74169537901E+02  0.00000000000E+00 0.  1.
</event>
<event>
12    1  0.8406581E-002  0.1934071E+03  0.7818608E-02  0.1155710E+00
         21   -1    0    0  501  502  0.00000000000E+00  0.00000000000E+00  0.23613399224E+03  0.23613399224E+03  0.00000000000E+00 0. -1.
         21   -1    0    0  502  503 -0.00000000000E+00 -0.00000000000E+00 -0.15775384457E+03  0.15775384457E+03  0.00000000000E+00 0. -1.
         -6    2    1    2    0  503 -0.74065967507E+02 -0.44149812310E+02  0.48977152358E+02  0.19825851859E+03  0.17167616395E+03 0.  0.
        -24    2    3    3    0    0 -0.60110145607E+02 -0.92678263380E+02  0.33286615899E+02  0.14517313018E+03  0.88117812161E+02 0.  0.
          6    2    1    2  501    0  0.74065967507E+02  0.44149812310E+02  0.29402995315E+02  0.19562931822E+03  0.17312227050E+03 0.  0.
         24    2    5    5    0    0  0.54471706351E+02 -0.15713092293E+02  0.70417192955E+02  0.12031825113E+03  0.79396677699E+02 0.  0.
          5    1    5    5  501    0  0.19594261156E+02  0.59862904603E+02 -0.41014197639E+02  0.75311067087E+02  0.47000000000E+01 0. -1.
        -11    1    6    6    0    0 -0.66232867076E+01 -0.33316752606E+02  0.25362101963E+02  0.42392335946E+02  0.00000000000E+00 0.  1.
         12    1    6    6    0    0  0.61094993059E+02  0.17603660313E+02  0.45055090992E+02  0.77925915186E+02  0.00000000000E+00 0. -1.
         -5    1    3    3    0  503 -0.13955821900E+02  0.48528451070E+02  0.15690536460E+02  0.53085388409E+02  0.47000000000E+01 0.  1.
         11    1    4    4    0    0 -0.27618329581E+02 -0.85694314207E+02 -0.10012674637E+02  0.90589962301E+02  0.00000000000E+00 0. -1.
        -12    1    4    4    0    0 -0.32491816027E+02 -0.69839491727E+01  0.43299290535E+02  0.54583167878E+02  0.00000000000E+00 0.  1.
</event>
<event>
12    1  0.8406581E-002  0.2748901E+03  0.7818608E-02  0.1098518E+00
         21   -1    0    0  503  502  0.00000000000E+00  0.00000000000E+00  0.45541438999E+02  0.45541438999E+02  0.00000000000E+00 0.  1.
         21   -1    0    0  501  503 -0.00000000000E+00 -0.00000000000E+00 -0.16590549248E+04  0.16590549248E+04  0.00000000000E+00 0. -1.
          6    2    1    2  501    0 -0.19061157816E+03  0.98468467514E+02 -0.80512816775E+03  0.85076198114E+03  0.17185973707E+03 0.  0.
         24    2    3    3    0    0 -0.16392842768E+03  0.55206199872E+02 -0.41461354920E+03  0.45692524895E+03  0.83402841912E+02 0.  0.
         -6    2    1    2    0  502  0.19061157816E+03 -0.98468467514E+02 -0.80838531807E+03  0.85383438268E+03  0.17180662895E+03 0.  0.
        -24    2    5    5    0    0  0.31899773243E+02 -0.33209136524E+02 -0.40609324561E+03  0.41644528947E+03  0.79965697046E+02 0.  0.
          5    1    3    3  501    0 -0.26683150473E+02  0.43262267642E+02 -0.39051461856E+03  0.39383673220E+03  0.47000000000E+01 0. -1.
        -11    1    4    4    0    0 -0.13787061838E+03  0.76470435993E+02 -0.32537183630E+03  0.36155617385E+03  0.00000000000E+00 0.  1.
         12    1    4    4    0    0 -0.26057809309E+02 -0.21264236121E+02 -0.89241712894E+02  0.95369075093E+02  0.00000000000E+00 0. -1.
         -5    1    5    5    0  502  0.15871180491E+03 -0.65259330990E+02 -0.40229207246E+03  0.43738909321E+03  0.47000000000E+01 0.  1.
         11    1    6    6    0    0  0.20672208849E+02  0.14503771539E+02 -0.28036891073E+03  0.28150386447E+03  0.00000000000E+00 0. -1.
        -12    1    6    6    0    0  0.11227564394E+02 -0.47712908063E+02 -0.12572433488E+03  0.13494142499E+03  0.00000000000E+00 0.  1.
</event>
<event>
12    1  0.8406581E-002  0.3125381E+03  0.7818608E-02  0.1079244E+00
         21   -1    0    0  501  502  0.00000000000E+00  0.00000000000E+00  0.10155472428E+03  0.10155472428E+03  0.00000000000E+00 0.  1.
         21   -1    0    0  502  503 -0.00000000000E+00 -0.00000000000E+00 -0.15829859033E+04  0.15829859033E+04  0.00000000000E+00 0.  1.
         -6    2    1    2    0  503  0.26057820000E+03 -0.11670580647E+02 -0.12701644811E+04  0.13080511653E+04  0.17217096522E+03 0.  0.
        -24    2    3    3    0    0  0.19145596377E+03 -0.20805402989E+02 -0.62127615859E+03  0.65541077918E+03  0.80566577313E+02 0.  0.
          6    2    1    2  501    0 -0.26057820000E+03  0.11670580647E+02 -0.21126669791E+03  0.37648946225E+03  0.17050952108E+03 0.  0.
         24    2    5    5    0    0 -0.12486925232E+03 -0.65161983313E+02 -0.92087192359E+02  0.18015809465E+03  0.64330970968E+02 0.  0.
          5    1    5    5  501    0 -0.13570894768E+03  0.76832563959E+02 -0.11917950555E+03  0.19633136761E+03  0.47000000000E+01 0. -1.
        -11    1    6    6    0    0 -0.11793756966E+03 -0.46252716824E+02 -0.55317010169E+02  0.13823369981E+03  0.00000000000E+00 0.  1.
         12    1    6    6    0    0 -0.69316826623E+01 -0.18909266489E+02 -0.36770182191E+02  0.41924394832E+02  0.00000000000E+00 0. -1.
         -5    1    3    3    0  503  0.69122236226E+02  0.91348223422E+01 -0.64888832250E+03  0.65264038612E+03  0.47000000000E+01 0.  1.
         11    1    4    4    0    0  0.29782373858E+02 -0.34676091767E+02 -0.11438301448E+03  0.12317830627E+03  0.00000000000E+00 0. -1.
        -12    1    4    4    0    0  0.16167358991E+03  0.13870688778E+02 -0.50689314411E+03  0.53223247292E+03  0.00000000000E+00 0.  1.
</event>
<event>
12    1  0.8406581E-002  0.3765492E+03  0.7818608E-02  0.1052261E+00
         21   -1    0    0  503  502  0.00000000000E+00  0.00000000000E+00  0.11697210997E+04  0.11697210997E+04  0.00000000000E+00 0.  1.
         21   -1    0    0  501  503 -0.00000000000E+00 -0.00000000000E+00 -0.21933032539E+03  0.21933032539E+03  0.00000000000E+00 0. -1.
          6    2    1    2  501    0 -0.91477905975E+02 -0.32240545799E+03  0.10480529427E+02  0.37669506837E+03  0.17168531217E+03 0.  0.
         24    2    3    3    0    0 -0.11829970430E+03 -0.20422496641E+03 -0.24442844642E+02  0.25048980101E+03  0.80280949234E+02 0.  0.
         -6    2    1    2    0  502  0.91477905975E+02  0.32240545799E+03  0.93991024484E+03  0.10123563567E+04  0.17064770118E+03 0.  0.
        -24    2    5    5    0    0 -0.17701116409E+02  0.14330657082E+03  0.46096969631E+03  0.48947720301E+03  0.79023848195E+02 0.  0.
          5    1    3    3  501    0  0.26821798323E+02 -0.11818049158E+03  0.34923374069E+02  0.12620526737E+03  0.47000000000E+01 0. -1.
        -11    1    4    4    0    0 -0.47134766306E+02 -0.77284511802E+02  0.29616648561E+02  0.95245618436E+02  0.00000000000E+00 0.  1.
         12    1    4    4    0    0 -0.71164937993E+02 -0.12694045461E+03 -0.54059493203E+02  0.15524418257E+03  0.00000000000E+00 0. -1.
         -5    1    5    5    0  502  0.10917902238E+03  0.17909888717E+03  0.47894054853E+03  0.52287915367E+03  0.47000000000E+01 0.  1.
         13    1    6    6    0    0 -0.20601685821E+02 -0.43316385331E+00  0.49690102760E+02  0.53793339754E+02  0.00000000000E+00 0. -1.
        -14    1    6    6    0    0  0.29005694123E+01  0.14373973467E+03  0.41127959355E+03  0.43568386325E+03  0.00000000000E+00 0.  1.
</event>
<event>
12    1  0.8406581E-002  0.1796669E+03  0.7818608E-02  0.1168779E+00
         21   -1    0    0  501  502  0.00000000000E+00  0.00000000000E+00  0.10907622400E+03  0.10907622400E+03  0.00000000000E+00 0. -1.
         21   -1    0    0  502  503 -0.00000000000E+00 -0.00000000000E+00 -0.36925446235E+03  0.36925446235E+03  0.00000000000E+00 0. -1.
         -6    2    1    2    0  503  0.42495058110E+02 -0.92015271732E+01 -0.19616312837E+02  0.17808040953E+03  0.17157311696E+03 0.  0.
        -24    2    3    3    0    0  0.37397167454E+02  0.48371438583E+02  0.27201558201E+02  0.10355096620E+03  0.79022361571E+02 0.  0.
          6    2    1    2  501    0 -0.42495058110E+02  0.92015271732E+01 -0.24056192552E+03  0.30025027681E+03  0.17432639115E+03 0.  0.
         24    2    5    5    0    0 -0.74349455542E+02  0.37121156564E+00 -0.24274561100E+03  0.26679081489E+03  0.81999560443E+02 0.  0.
          5    1    5    5  501    0  0.31854397432E+02  0.88303156076E+01  0.21836854872E+01  0.33459461917E+02  0.47000000000E+01 0. -1.
        -13    1    6    6    0    0 -0.71919866044E+02  0.31454615863E+02 -0.15651063765E+03  0.17509266030E+03  0.00000000000E+00 0.  1.
         14    1    6    6    0    0 -0.24295894971E+01 -0.31083404298E+02 -0.86234973350E+02  0.91698154597E+02  0.00000000000E+00 0. -1.
         -5    1    3    3    0  503  0.50978906553E+01 -0.57572965757E+02 -0.46817871038E+02  0.74529443334E+02  0.47000000000E+01 0.  1.
         13    1    4    4    0    0 -0.90152254993E+01 -0.15748755436E+02 -0.38023827696E+01  0.18540650024E+02  0.00000000000E+00 0. -1.
        -14    1    4    4    0    0  0.46412392954E+02  0.64120194020E+02  0.31003940970E+02  0.85010316177E+02  0.00000000000E+00 0.  1.
</event>
<event>
12    1  0.8406581E-002  0.2686064E+03  0.7818608E-02  0.1102639E+00
         21   -1    0    0  501  502  0.00000000000E+00  0.00000000000E+00  0.27941306315E+03  0.27941306315E+03  0.00000000000E+00 0. -1.
         21   -1    0    0  502  503 -0.00000000000E+00 -0.00000000000E+00 -0.29756122942E+03  0.29756122942E+03  0.00000000000E+00 0.  1.
         -6    2    1    2    0  503 -0.13863353151E+03  0.14517210794E+03 -0.11883769723E+03  0.29372063743E+03  0.17848030028E+03 0.  0.
        -24    2    3    3    0    0 -0.26359102193E+02  0.81881064881E+02  0.27210116284E+00  0.11816284728E+03  0.81012797656E+02 0.  0.
          6    2    1    2  501    0  0.13863353151E+03 -0.14517210794E+03  0.10068953096E+03  0.28325365513E+03  0.17262692292E+03 0.  0.
         24    2    5    5    0    0  0.85052038953E+02 -0.83564915129E+02  0.13167040508E+03  0.19579894050E+03  0.82360094451E+02 0.  0.
          5    1    5    5  501    0  0.53581492555E+02 -0.61607192813E+02 -0.30980874111E+02  0.87454714633E+02  0.47000000000E+01 0. -1.
        -13    1    6    6    0    0 -0.69897042200E+01 -0.23382437231E+02  0.20926937907E+00  0.24405698712E+02  0.00000000000E+00 0.  1.
         14    1    6    6    0    0  0.92041743173E+02 -0.60182477898E+02  0.13146113570E+03  0.17139324179E+03  0.00000000000E+00 0. -1.
         -5    1    3    3    0  503 -0.11227442932E+03  0.63291043061E+02 -0.11910979839E+03  0.17555779015E+03  0.47000000000E+01 0.  1.
         11    1    4    4    0    0 -0.48478372592E+02  0.22438537676E+02 -0.86450755998E+01  0.54114488950E+02  0.00000000000E+00 0. -1.
        -12    1    4    4    0    0  0.22119270398E+02  0.59442527206E+02  0.89171767626E+01  0.64048358332E+02  0.00000000000E+00 0.  1.
</event>
<event>
12    1  0.8406581E-002  0.1840675E+03  0.7818608E-02  0.1164305E+00
         21   -1    0    0  501  502  0.00000000000E+00  0.00000000000E+00  0.80218444535E+02  0.80218444535E+02  0.00000000000E+00 0. -1.
         21   -1    0    0  502  503 -0.00000000000E+00 -0.00000000000E+00 -0.43399715037E+03  0.43399715037E+03  0.00000000000E+00 0. -1.
         -6    2    1    2    0  503 -0.25476992039E+02  0.58982342868E+02 -0.22447140198E+03  0.28926844313E+03  0.17076541801E+03 0.  0.
        -24    2    3    3    0    0  0.17411387749E+02  0.24004297867E+02 -0.21519340314E+03  0.23295638389E+03  0.84149351171E+02 0.  0.
          6    2    1    2  501    0  0.25476992039E+02 -0.58982342868E+02 -0.12930730385E+03  0.22494715177E+03  0.17249013992E+03 0.  0.
         24    2    5    5    0    0 -0.98340179368E+01 -0.36222041539E+01 -0.13646848416E+03  0.15872793336E+03  0.80380852127E+02 0.  0.
          5    1    5    5  501    0  0.35311009976E+02 -0.55360138714E+02  0.71611803065E+01  0.66219218414E+02  0.47000000000E+01 0. -1.
        -13    1    6    6    0    0 -0.43512503494E+02 -0.12441804219E+02 -0.64649989321E+02  0.78916142657E+02  0.00000000000E+00 0.  1.
         14    1    6    6    0    0  0.33678485557E+02  0.88196000648E+01 -0.71818494837E+02  0.79811790704E+02  0.00000000000E+00 0. -1.
         -5    1    3    3    0  503 -0.42888379788E+02  0.34978045001E+02 -0.92779988432E+01  0.56312059236E+02  0.47000000000E+01 0.  1.
         11    1    4    4    0    0  0.29014015732E+02  0.44309584720E+02 -0.19497897101E+03  0.20204442962E+03  0.00000000000E+00 0. -1.
        -12    1    4    4    0    0 -0.11602627983E+02 -0.20305286853E+02 -0.20214432130E+02  0.30911954268E+02  0.00000000000E+00 0.  1.
</event>
<event>
12    1  0.8406581E-002  0.2833417E+03  0.7818608E-02  0.1094121E+00
         21   -1    0    0  503  502  0.00000000000E+00  0.00000000000E+00  0.54734538355E+03  0.54734538355E+03  0.00000000000E+00 0.  1.
         21   -1    0    0  501  503 -0.00000000000E+00 -0.00000000000E+00 -0.15036133391E+03  0.15036133391E+03  0.00000000000E+00 0. -1.
          6    2    1    2  501    0  0.22381085228E+03  0.13091665137E+02  0.13797610732E+03  0.31515063287E+03  0.17326230378E+03 0.  0.
         24    2    3    3    0    0  0.17045200539E+03 -0.29933317240E+00  0.16717081977E+03  0.25269339460E+03  0.82788241617E+02 0.  0.
         -6    2    1    2    0  502 -0.22381085228E+03 -0.13091665137E+02  0.25900794233E+03  0.38255608459E+03  0.17029784019E+03 0.  0.
        -24    2    5    5    0    0 -0.66692986797E+02  0.43078482817E+02  0.87191703775E+02  0.14300646759E+03  0.80899606893E+02 0.  0.
          5    1    3    3  501    0  0.53358846896E+02  0.13390998309E+02 -0.29194712447E+02  0.62457238273E+02  0.47000000000E+01 0. -1.
        -11    1    4    4    0    0  0.60191923520E+02  0.11791759252E+01  0.11692803205E+03  0.13151662553E+03  0.00000000000E+00 0.  1.
         12    1    4    4    0    0  0.11026008187E+03 -0.14785090976E+01  0.50242787717E+02  0.12117676906E+03  0.00000000000E+00 0. -1.
         -5    1    5    5    0  502 -0.15711786549E+03 -0.56170147954E+02  0.17181623855E+03  0.23954961700E+03  0.47000000000E+01 0.  1.
         13    1    6    6    0    0 -0.29301321493E+02  0.28457477370E+02 -0.62343323943E+01  0.41319031449E+02  0.00000000000E+00 0. -1.
        -14    1    6    6    0    0 -0.37391665305E+02  0.14621005448E+02  0.93426036170E+02  0.10168743614E+03  0.00000000000E+00 0.  1.
</event>
<event>
12    1  0.8406581E-002  0.1804292E+03  0.7818608E-02  0.1167425E+00
         21   -1    0    0  501  502  0.00000000000E+00  0.00000000000E+00  0.11235343010E+04  0.11235343010E+04  0.00000000000E+00 0. -1.
         21   -1    0    0  502  503 -0.00000000000E+00 -0.00000000000E+00 -0.42268616781E+02  0.42268616781E+02  0.00000000000E+00 0. -1.
         -6    2    1    2    0  503  0.34662178469E+02 -0.40106885359E+02  0.21328833375E+03  0.27927070277E+03  0.17230839575E+03 0.  0.
        -24    2    3    3    0    0  0.41297833060E+01 -0.56104511437E+02  0.44529317630E+02  0.10696328356E+03  0.79331661955E+02 0.  0.
          6    2    1    2  501    0 -0.34662178469E+02  0.40106885359E+02  0.86797735052E+03  0.88653221505E+03  0.17246639801E+03 0.  0.
         24    2    5    5    0    0  0.16727033858E+02  0.45652635911E+02  0.26211457344E+03  0.27845047618E+03  0.80415553538E+02 0.  0.
          5    1    5    5  501    0 -0.51389212327E+02 -0.55457505521E+01  0.60586277708E+03  0.60808173887E+03  0.47000000000E+01 0. -1.
        -13    1    6    6    0    0  0.20495225465E+02 -0.15205150491E+02  0.35142596983E+02  0.43431014161E+02  0.00000000000E+00 0.  1.
         14    1    6    6    0    0 -0.37681916067E+01  0.60857786402E+02  0.22697197645E+03  0.23501946202E+03  0.00000000000E+00 0. -1.
         -5    1    3    3    0  503  0.30532395163E+02  0.15997626078E+02  0.16875901612E+03  0.17230741921E+03  0.47000000000E+01 0.  1.
         13    1    4    4    0    0  0.22784424623E+02 -0.54596145102E+01 -0.14043664472E+02  0.27315964340E+02  0.00000000000E+00 0. -1.
        -14    1    4    4    0    0 -0.18654641317E+02 -0.50644896927E+02  0.58572982102E+02  0.79647319225E+02  0.00000000000E+00 0.  1.
</event>
<event>
12    1  0.8406581E-002  0.1985587E+03  0.7818608E-02  0.1150985E+00
         21   -1    0    0  503  502  0.00000000000E+00  0.00000000000E+00  0.49268116143E+03  0.49268116143E+03  0.00000000000E+00 0.  1.
         21   -1    0    0  501  503 -0.00000000000E+00 -0.00000000000E+00 -0.12125288371E+03  0.12125288371E+03  0.00000000000E+00 0.  1.
          6    2    1    2  501    0 -0.97786503697E+02 -0.12302141027E+02  0.66483298361E+01  0.19866999677E+03  0.17237176204E+03 0.  0.
         24    2    3    3    0    0 -0.63809367183E+02 -0.51412102290E+02 -0.46772821991E+02  0.12410496249E+03  0.80619509021E+02 0.  0.
         -6    2    1    2    0  502  0.97786503697E+02  0.12302141027E+02  0.36477994788E+03  0.41526404837E+03  0.17223900984E+03 0.  0.
        -24    2    5    5    0    0  0.13663737455E+02 -0.47705656181E+02  0.20009701498E+03  0.22079005547E+03  0.79037369867E+02 0.  0.
          5    1    3    3  501    0 -0.33977136514E+02  0.39109961263E+02  0.53421151827E+02  0.74565034287E+02  0.47000000000E+01 0. -1.
        -11    1    4    4    0    0 -0.55499757007E+02  0.63134848132E+01 -0.15695410225E+02  0.58020936053E+02  0.00000000000E+00 0.  1.
         12    1    4    4    0    0 -0.83096101758E+01 -0.57725587103E+02 -0.31077411766E+02  0.66084026434E+02  0.00000000000E+00 0. -1.
         -5    1    5    5    0  502  0.84122766242E+02  0.60007797207E+02  0.16468293290E+03  0.19447399290E+03  0.47000000000E+01 0.  1.
         11    1    6    6    0    0 -0.27021146628E+02 -0.42909245614E+02  0.89757915909E+02  0.10309136333E+03  0.00000000000E+00 0. -1.
        -12    1    6    6    0    0  0.40684884084E+02 -0.47964105671E+01  0.11033909907E+03  0.11769869214E+03  0.00000000000E+00 0.  1.
</event>
<event>
12    1  0.8406581E-002  0.2210571E+03  0.7818608E-02  0.1133188E+00
         21   -1    0    0  501  502  0.00000000000E+00  0.00000000000E+00  0.11241848175E+03  0.11241848175E+03  0.00000000000E+00 0.  1.
         21   -1    0    0  502  503 -0.00000000000E+00 -0.00000000000E+00 -0.43720919589E+03  0.43720919589E+03  0.00000000000E+00 0.  1.
         -6    2    1    2    0  503  0.13125308058E+03 -0.45925842380E+02 -0.18675609731E+03  0.28901337778E+03  0.17121430575E+03 0.  0.
        -24    2    3    3    0    0  0.43742846118E+02  0.23580865636E+02 -0.14035770003E+03  0.16791785819E+03  0.77631368212E+02 0.  0.
          6    2    1    2  501    0 -0.13125308058E+03  0.45925842380E+02 -0.13803461683E+03  0.26061429986E+03  0.17184208940E+03 0.  0.
         24    2    5    5    0    0 -0.84179421134E+02 -0.38232242647E+02 -0.94254802230E+02  0.15460828656E+03  0.80447965857E+02 0.  0.
          5    1    5    5  501    0 -0.47073659446E+02  0.84158085026E+02 -0.43779814597E+02  0.10600601330E+03  0.47000000000E+01 0. -1.
        -11    1    6    6    0    0 -0.43533225530E+02 -0.96410204376E+01  0.37282355613E+01  0.44743611170E+02  0.00000000000E+00 0.  1.
         12    1    6    6    0    0 -0.40646195603E+02 -0.28591222209E+02 -0.97983037791E+02  0.10986467539E+03  0.00000000000E+00 0. -1.
         -5    1    3    3    0  503  0.87510234462E+02 -0.69506708015E+02 -0.46398397280E+02  0.12109551959E+03  0.47000000000E+01 0.  1.
         13    1    4    4    0    0 -0.66443922144E+00 -0.14279658371E+01  0.95006066115E+01  0.96302695651E+01  0.00000000000E+00 0. -1.
        -14    1    4    4    0    0  0.44407285340E+02  0.25008831473E+02 -0.14985830665E+03  0.15828758863E+03  0.00000000000E+00 0.  1.
</event>
<event>
12    1  0.8406581E-002  0.1796319E+03  0.7818608E-02  0.1168287E+00
         21   -1    0    0  503  502  0.00000000000E+00  0.00000000000E+00  0.22899755385E+03  0.22899755385E+03  0.00000000000E+00 0. -1.
         21   -1    0    0  501  503 -0.00000000000E+00 -0.00000000000E+00 -0.15981250679E+03  0.15981250679E+03  0.00000000000E+00 0. -1.
          6    2    1    2  501    0 -0.19456343422E+02  0.42777971092E+02 -0.32949505632E+02  0.18262880172E+03  0.17337561877E+03 0.  0.
         24    2    3    3    0    0 -0.59030413868E+02  0.51758593794E+02  0.21964152475E+02  0.11418642827E+03  0.79953577875E+02 0.  0.
         -6    2    1    2    0  502  0.19456343422E+02 -0.42777971092E+02  0.10213455269E+03  0.20618125892E+03  0.17283153812E+03 0.  0.
        -24    2    5    5    0    0  0.75952350174E+02 -0.19758148770E+01  0.65359547703E+02  0.12724390577E+03  0.78399475373E+02 0.  0.
          5    1    3    3  501    0  0.39574070446E+02 -0.89806227014E+01 -0.54913658107E+02  0.68442373442E+02  0.47000000000E+01 0. -1.
        -11    1    4    4    0    0 -0.11168595133E+02  0.61729537915E+02  0.73580499764E+01  0.63161810201E+02  0.00000000000E+00 0.  1.
         12    1    4    4    0    0 -0.47861818735E+02 -0.99709441210E+01  0.14606102498E+02  0.51024618073E+02  0.00000000000E+00 0. -1.
         -5    1    5    5    0  502 -0.56496006752E+02 -0.40802156215E+02  0.36775004983E+02  0.78937353150E+02  0.47000000000E+01 0.  1.
         13    1    6    6    0    0  0.66586921673E+02 -0.34543695816E+02  0.40792758683E+02  0.85388138634E+02  0.00000000000E+00 0. -1.
        -14    1    6    6    0    0  0.93654285017E+01  0.32567880939E+02  0.24566789020E+02  0.41855767138E+02  0.00000000000E+00 0.  1.
</event>
<event>
12    1  0.8406581E-002  0.2217813E+03  0.7818608E-02  0.1132715E+00
         21   -1    0    0  501  502  0.00000000000E+00  0.00000000000E+00  0.39550333436E+03  0.39550333436E+03  0.00000000000E+00 0. -1.
         21   -1    0    0  502  503 -0.00000000000E+00 -0.00000000000E+00 -0.15830321496E+03  0.15830321496E+03  0.00000000000E+00 0. -1.
         -6    2    1    2    0  503 -0.37873381549E+02 -0.13427683581E+03 -0.10655780019E+02  0.22121146136E+03  0.17133681252E+03 0.  0.
        -24    2    3    3    0    0  0.19916581007E+02 -0.22707345504E+02  0.26939799664E+02  0.89975229512E+02  0.80358542675E+02 0.  0.
          6    2    1    2  501    0  0.37873381549E+02  0.13427683581E+03  0.24785589942E+03  0.33259508796E+03  0.17240151970E+03 0.  0.
         24    2    5    5    0    0  0.28024488030E+02  0.16817128050E+03  0.21227315911E+03  0.28225568498E+03  0.74440755706E+02 0.  0.
          5    1    5    5  501    0  0.98488935196E+01 -0.33894444694E+02  0.35582740301E+02  0.50339402976E+02  0.47000000000E+01 0. -1.
        -11    1    6    6    0    0  0.60302234625E+01 -0.47142587619E+01  0.64223286848E-01  0.76545382169E+01  0.00000000000E+00 0.  1.
         12    1    6    6    0    0  0.21994264567E+02  0.17288553926E+03  0.21220893583E+03  0.27460114677E+03  0.00000000000E+00 0. -1.
         -5    1    3    3    0  503 -0.57789962556E+02 -0.11156949030E+03 -0.37595579683E+02  0.13123623185E+03  0.47000000000E+01 0.  1.
         13    1    4    4    0    0 -0.25667502149E+02 -0.62641391792E+01 -0.10811021249E+02  0.28547123965E+02  0.00000000000E+00 0. -1.
        -14    1    4    4    0    0  0.45584083156E+02 -0.16443206325E+02  0.37750820914E+02  0.61428105547E+02  0.00000000000E+00 0.  1.
</event>
<event>
12    1  0.8406581E-002  0.2117166E+03  0.7818608E-02  0.1140258E+00
         21   -1    0    0  503  502  0.00000000000E+00  0.00000000000E+00  0.32255286743E+03  0.32255286743E+03  0.00000000000E+00 0.  1.
         21   -1    0    0  501  503 -0.00000000000E+00 -0.00000000000E+00 -0.19929404838E+03  0.19929404838E+03  0.00000000000E+00 0. -1.
          6    2    1    2  501    0  0.12163889538E+03  0.20389655962E+02  0.20533929115E+03  0.29477620144E+03  0.17180519639E+03 0.  0.
         24    2    3    3    0    0  0.12924242280E+03  0.63428868810E+02  0.15200369888E+03  0.22566062523E+03  0.84206698426E+02 0.  0.
         -6    2    1    2    0  502 -0.12163889538E+03 -0.20389655962E+02 -0.82080472090E+02  0.22707071437E+03  0.17208180173E+03 0.  0.
        -24    2    5    5    0    0 -0.57750610217E+02 -0.55478412242E+02 -0.99199907930E+02  0.15205005800E+03  0.82858983815E+02 0.  0.
          5    1    3    3  501    0 -0.76035274132E+01 -0.43039212847E+02  0.53335592271E+02  0.69115576208E+02  0.47000000000E+01 0. -1.
        -11    1    4    4    0    0  0.70811868279E+02  0.47042690544E+02  0.31358516731E+02  0.90612868812E+02  0.00000000000E+00 0.  1.
         12    1    4    4    0    0  0.58430554516E+02  0.16386178266E+02  0.12064518215E+03  0.13504775642E+03  0.00000000000E+00 0. -1.
         -5    1    5    5    0  502 -0.63888285165E+02  0.35088756280E+02  0.17119435840E+02  0.75020656369E+02  0.47000000000E+01 0.  1.
         11    1    6    6    0    0 -0.64639851069E+02 -0.25226463617E+02 -0.99156522420E+02  0.12102355453E+03  0.00000000000E+00 0. -1.
        -12    1    6    6    0    0  0.68892408529E+01 -0.30251948624E+02 -0.43385509725E-01  0.31026503467E+02  0.00000000000E+00 0.  1.
</event>
<event>
12    1  0.8406581E-002  0.3452867E+03  0.7818608E-02  0.1065923E+00
         21   -1    0    0  501  502  0.00000000000E+00  0.00000000000E+00  0.72932105663E+03  0.72932105663E+03  0.00000000000E+00 0. -1.
         21   -1    0    0  502  503 -0.00000000000E+00 -0.00000000000E+00 -0.16469420116E+03  0.16469420116E+03  0.00000000000E+00 0.  1.
         -6    2    1    2    0  503  0.15441523389E+03  0.24834285647E+03  0.19395988136E+03  0.39603454551E+03  0.18358836248E+03 0.  0.
        -24    2    3    3    0    0  0.25543123022E+02  0.44300901328E+02  0.98479857511E+02  0.13645861177E+03  0.79420711404E+02 0.  0.
          6    2    1    2  501    0 -0.15441523389E+03 -0.24834285647E+03  0.37066697411E+03  0.49798071228E+03  0.15834312516E+03 0.  0.
         24    2    5    5    0    0 -0.54952671926E+02 -0.46160497611E+02  0.10642842070E+03  0.15068456981E+03  0.78919219160E+02 0.  0.
          5    1    5    5  501    0 -0.99462561966E+02 -0.20218235886E+03  0.26423855341E+03  0.34729614247E+03  0.47000000000E+01 0. -1.
        -13    1    6    6    0    0 -0.62981887125E+02 -0.35295512450E+02  0.11419332599E+03  0.13510220948E+03  0.00000000000E+00 0.  1.
         14    1    6    6    0    0  0.80292151990E+01 -0.10864985161E+02 -0.77649052883E+01  0.15582360328E+02  0.00000000000E+00 0. -1.
         -5    1    3    3    0  503  0.12887211087E+03  0.20404195514E+03  0.95480023853E+02  0.25957593373E+03  0.47000000000E+01 0.  1.
         11    1    4    4    0    0 -0.80671617970E+01 -0.19908753106E+02  0.16872572574E+02  0.27315220207E+02  0.00000000000E+00 0. -1.
        -12    1    4    4    0    0  0.33610284819E+02  0.64209654434E+02  0.81607284937E+02  0.10914339157E+03  0.00000000000E+00 0.  1.
</event>
<event>
12    1  0.8406581E-002  0.1897696E+03  0.7818608E-02  0.1158831E+00
         21   -1    0    0  501  502  0.00000000000E+00  0.00000000000E+00  0.14228011363E+03  0.14228011363E+03  0.00000000000E+00 0. -1.
         21   -1    0    0  502  503 -0.00000000000E+00 -0.00000000000E+00 -0.61303414430E+03  0.61303414430E+03  0.00000000000E+00 0. -1.
         -6    2    1    2    0  503  0.77832882355E+02 -0.76343139721E+01 -0.52495123513E+03  0.55795710924E+03  0.17212232908E+03 0.  0.
        -24    2    3    3    0    0  0.47244551695E+02  0.32227858360E+02 -0.14814860365E+03  0.17779010404E+03  0.79941414878E+02 0.  0.
          6    2    1    2  501    0 -0.77832882355E+02  0.76343139721E+01  0.54197204456E+02  0.19735714868E+03  0.17290536961E+03 0.  0.
         24    2    5    5    0    0 -0.92382060191E+02 -0.27887015908E+01  0.93345084491E+02  0.15405629026E+03  0.80484867318E+02 0.  0.
          5    1    5    5  501    0  0.14549177836E+02  0.10423015563E+02 -0.39147880035E+02  0.43300858425E+02  0.47000000000E+01 0. -1.
        -11    1    6    6    0    0 -0.11519849826E+02 -0.25450493917E+02 -0.73760596276E+00  0.27945995120E+02  0.00000000000E+00 0.  1.
         12    1    6    6    0    0 -0.80862210364E+02  0.22661792327E+02  0.94082690454E+02  0.12611029514E+03  0.00000000000E+00 0. -1.
         -5    1    3    3    0  503  0.30588330660E+02 -0.39862172332E+02 -0.37680263147E+03  0.38016700520E+03  0.47000000000E+01 0.  1.
         13    1    4    4    0    0  0.48090578148E+02 -0.15395368366E+02 -0.81398350085E+02  0.95788373356E+02  0.00000000000E+00 0. -1.
        -14    1    4    4    0    0 -0.84602645324E+00  0.47623226725E+02 -0.66750253568E+02  0.82001730688E+02  0.00000000000E+00 0.  1.
</event>
<event>
12    1  0.8406581E-002  0.1823217E+03  0.7818608E-02  0.1167204E+00
         21   -1    0    0  503  502  0.00000000000E+00  0.00000000000E+00  0.85956607521E+03  0.85956607521E+03  0.00000000000E+00 0. -1.
         21   -1    0    0  501  503 -0.00000000000E+00 -0.00000000000E+00 -0.71388096527E+02  0.71388096527E+02  0.00000000000E+00 0. -1.
          6    2    1    2  501    0  0.27854677069E+02  0.52104514716E+02  0.76142514241E+02  0.19758258320E+03  0.17248313315E+03 0.  0.
         24    2    3    3    0    0 -0.38814723877E+02  0.82333469930E+01  0.76238204717E+02  0.11763517839E+03  0.80320610954E+02 0.  0.
         -6    2    1    2    0  502 -0.27854677069E+02 -0.52104514716E+02  0.71203546444E+03  0.73337158853E+03  0.16537418407E+03 0.  0.
        -24    2    5    5    0    0  0.28991777284E+02  0.16055157736E+02  0.37260083058E+03  0.38249380214E+03  0.79823796483E+02 0.  0.
          5    1    3    3  501    0  0.66669400945E+02  0.43871167723E+02 -0.95690475913E-01  0.79947404814E+02  0.47000000000E+01 0. -1.
        -11    1    4    4    0    0 -0.16459621124E+02 -0.15062120331E+02 -0.10810151092E+02  0.24792054434E+02  0.00000000000E+00 0.  1.
         12    1    4    4    0    0 -0.22355102753E+02  0.23295467323E+02  0.87048355809E+02  0.92843123956E+02  0.00000000000E+00 0. -1.
         -5    1    5    5    0  502 -0.56846454353E+02 -0.68159672452E+02  0.33943463386E+03  0.35087778639E+03  0.47000000000E+01 0.  1.
         11    1    6    6    0    0  0.11760247478E+02 -0.22507617767E+02  0.27468593383E+03  0.27585731552E+03  0.00000000000E+00 0. -1.
        -12    1    6    6    0    0  0.17231529807E+02  0.38562775503E+02  0.97914896746E+02  0.10663648662E+03  0.00000000000E+00 0.  1.
</event>
<event>
12    1  0.8406581E-002  0.1830817E+03  0.7818608E-02  0.1165789E+00
         21   -1    0    0  501  502  0.00000000000E+00  0.00000000000E+00  0.53578939593E+02  0.53578939593E+02  0.00000000000E+00 0. -1.
         21   -1    0    0  502  503 -0.00000000000E+00 -0.00000000000E+00 -0.65656912492E+03  0.65656912492E+03  0.00000000000E+00 0.  1.
         -6    2    1    2    0  503  0.45165059160E+02  0.39995913874E+02 -0.21235547136E+03  0.28038145984E+03  0.17285647547E+03 0.  0.
        -24    2    3    3    0    0  0.79899684884E+02  0.23488517362E+02 -0.21210027104E+03  0.24163686679E+03  0.80412563225E+02 0.  0.
          6    2    1    2  501    0 -0.45165059160E+02 -0.39995913874E+02 -0.39063471397E+03  0.42976660467E+03  0.16871365990E+03 0.  0.
         24    2    5    5    0    0  0.97731851875E+00  0.76695507674E-01 -0.34571521298E+03  0.35377460108E+03  0.75076619852E+02 0.  0.
          5    1    5    5  501    0 -0.46142377678E+02 -0.40072609382E+02 -0.44919500986E+02  0.75992003588E+02  0.47000000000E+01 0. -1.
        -11    1    6    6    0    0  0.12151581466E+02 -0.35167231301E+02 -0.20073622888E+03  0.20415540325E+03  0.00000000000E+00 0.  1.
         12    1    6    6    0    0 -0.11174262947E+02  0.35243926808E+02 -0.14497898410E+03  0.14961919783E+03  0.00000000000E+00 0. -1.
         -5    1    3    3    0  503 -0.34734625724E+02  0.16507396512E+02 -0.25520031941E+00  0.38744593055E+02  0.47000000000E+01 0.  1.
         11    1    4    4    0    0  0.19985695410E+02  0.34687271579E+02 -0.31232570103E+02  0.50775075242E+02  0.00000000000E+00 0. -1.
        -12    1    4    4    0    0  0.59913989474E+02 -0.11198754217E+02 -0.18086770093E+03  0.19086179154E+03  0.00000000000E+00 0.  1.
</event>
<event>
12    1  0.8406581E-002  0.2465476E+03  0.7818608E-02  0.1115619E+00
         21   -1    0    0  501  502  0.00000000000E+00  0.00000000000E+00  0.59385377912E+03  0.59385377912E+03  0.00000000000E+00 0.  1.
         21   -1    0    0  502  503 -0.00000000000E+00 -0.00000000000E+00 -0.14099260635E+03  0.14099260635E+03  0.00000000000E+00 0.  1.
         -6    2    1    2    0  503  0.14497442822E+03  0.10114565614E+03  0.41972257212E+03  0.48677794397E+03  0.17186535602E+03 0.  0.
        -24    2    3    3    0    0  0.29264098551E+01  0.45481738068E+02  0.19100640896E+03  0.21180651894E+03  0.79381363230E+02 0.  0.
          6    2    1    2  501    0 -0.14497442822E+03 -0.10114565614E+03  0.33138600654E+02  0.24806844149E+03  0.17085595166E+03 0.  0.
         24    2    5    5    0    0 -0.17072719330E+03 -0.68025662964E+02  0.44249111122E+02  0.20441443480E+03  0.77794678254E+02 0.  0.
          5    1    5    5  501    0  0.25752765088E+02 -0.33119993172E+02 -0.11110510469E+02  0.43654006692E+02  0.47000000000E+01 0. -1.
        -11    1    6    6    0    0 -0.15762711462E+03 -0.32611004829E+02  0.43106737809E+02  0.16663725797E+03  0.00000000000E+00 0.  1.
         12    1    6    6    0    0 -0.13100078681E+02 -0.35414658135E+02  0.11423733134E+01  0.37777176827E+02  0.00000000000E+00 0. -1.
         -5    1    3    3    0  503  0.14204801836E+03  0.55663918068E+02  0.22871616316E+03  0.27497142504E+03  0.47000000000E+01 0.  1.
         13    1    4    4    0    0 -0.21459579017E+02  0.35983864544E+02  0.37951186453E+02  0.56530032658E+02  0.00000000000E+00 0. -1.
        -14    1    4    4    0    0  0.24385988872E+02  0.94978735245E+01  0.15305522251E+03  0.15527648628E+03  0.00000000000E+00 0.  1.
</event>
<event>
12    1  0.8406581E-002  0.2141991E+03  0.7818608E-02  0.1138379E+00
         21   -1    0    0  501  502  0.00000000000E+00  0.00000000000E+00  0.51105619583E+03  0.51105619583E+03  0.00000000000E+00 0. -1.
         21   -1    0    0  502  503 -0.00000000000E+00 -0.00000000000E+00 -0.14288373600E+03  0.14288373600E+03  0.00000000000E+00 0. -1.
         -6    2    1    2    0  503  0.76954324529E+02 -0.10227479747E+03 -0.15774694815E+02  0.21428475974E+03  0.17113449389E+03 0.  0.
        -24    2    3    3    0    0  0.66410520542E+02 -0.31604242186E+01  0.27578368682E+02  0.10548949834E+03  0.77117587630E+02 0.  0.
          6    2    1    2  501    0 -0.76954324529E+02  0.10227479747E+03  0.38394715464E+03  0.43965517209E+03  0.17175316744E+03 0.  0.
         24    2    5    5    0    0 -0.10651388083E+03  0.30701024804E+02  0.23928066479E+03  0.27549958861E+03  0.79730966683E+02 0.  0.
          5    1    5    5  501    0  0.29559556297E+02  0.71573772670E+02  0.14466648985E+03  0.16415558348E+03  0.47000000000E+01 0. -1.
        -11    1    6    6    0    0 -0.55068922941E+02 -0.55049815176E+01  0.18267004135E+03  0.19086968094E+03  0.00000000000E+00 0.  1.
         12    1    6    6    0    0 -0.51444957885E+02  0.36206006322E+02  0.56610623441E+02  0.84629907668E+02  0.00000000000E+00 0. -1.
         -5    1    3    3    0  503  0.10543803987E+02 -0.99114373255E+02 -0.43353063497E+02  0.10879526140E+03  0.47000000000E+01 0.  1.
         13    1    4    4    0    0  0.54114363376E+02  0.23685586460E+02 -0.76036508528E+01  0.59558264211E+02  0.00000000000E+00 0. -1.
        -14    1    4    4    0    0  0.12296157166E+02 -0.26846010679E+02  0.35182019535E+02  0.45931234133E+02  0.00000000000E+00 0.  1.
</event>
<event>
12    1  0.8406581E-002  0.1748223E+03  0.7818608E-02  0.1173145E+00
         21   -1    0    0  501  502  0.00000000000E+00  0.00000000000E+00  0.29148438776E+03  0.29148438776E+03  0.00000000000E+00 0. -1.
         21   -1    0    0  502  503 -0.00000000000E+00 -0.00000000000E+00 -0.12059348527E+03  0.12059348527E+03  0.00000000000E+00 0. -1.
         -6    2    1    2    0  503  0.29178495014E+02  0.17836087434E+02  0.98940620692E+01  0.17510203326E+03  0.17144479870E+03 0.  0.
        -24    2    3    3    0    0  0.72868762619E+02  0.50702700616E+02  0.10585368363E+01  0.11952136890E+03  0.80022601229E+02 0.  0.
          6    2    1    2  501    0 -0.29178495014E+02 -0.17836087434E+02  0.16099684042E+03  0.23697583977E+03  0.17049356417E+03 0.  0.
         24    2    5    5    0    0 -0.55742240924E+02 -0.30411825265E+02  0.17639102090E+03  0.20346684737E+03  0.79075212205E+02 0.  0.
          5    1    5    5  501    0  0.26563745909E+02  0.12575737831E+02 -0.15394180485E+02  0.33508992398E+02  0.47000000000E+01 0. -1.
        -11    1    6    6    0    0  0.13922562257E+02  0.11585774068E+02  0.18715708995E+02  0.26045069855E+02  0.00000000000E+00 0.  1.
         12    1    6    6    0    0 -0.69664803181E+02 -0.41997599334E+02  0.15767531191E+03  0.17742177752E+03  0.00000000000E+00 0. -1.
         -5    1    3    3    0  503 -0.43690267605E+02 -0.32866613182E+02  0.88355252328E+01  0.55580664368E+02  0.47000000000E+01 0.  1.
         11    1    4    4    0    0  0.10577789860E+02  0.28181398103E+02 -0.33312217989E+02  0.44897491074E+02  0.00000000000E+00 0. -1.
        -12    1    4    4    0    0  0.62290972759E+02  0.22521302513E+02  0.34370754825E+02  0.74623877823E+02  0.00000000000E+00 0.  1.
</event>
<event>
12    1  0.8406581E-002  0.1969763E+03  0.7818608E-02  0.1152399E+00
         21   -1    0    0  503  502  0.00000000000E+00  0.00000000000E+00  0.45844265242E+03  0.45844265242E+03  0.00000000000E+00 0.  1.
         21   -1    0    0  501  503 -0.00000000000E+00 -0.00000000000E+00 -0.13988074020E+03  0.13988074020E+03  0.00000000000E+00 0.  1.
          6    2    1    2  501    0 -0.92932874880E+02 -0.26024447804E+02 -0.28918831616E+02  0.19908781340E+03  0.17171449417E+03 0.  0.
         24    2    3    3    0    0 -0.12475050766E+03 -0.45663145552E+02 -0.50063902118E+01  0.15445671372E+03  0.78638415864E+02 0.  0.
         -6    2    1    2    0  502  0.92932874880E+02  0.26024447804E+02  0.34748074384E+03  0.39923557922E+03  0.17126701159E+03 0.  0.
        -24    2    5    5    0    0  0.78226741847E+02  0.59843905576E+02  0.10445101544E+03  0.15337878156E+03  0.53984440628E+02 0.  0.
          5    1    3    3  501    0  0.31817632775E+02  0.19638697748E+02 -0.23912441405E+02  0.44631099679E+02  0.47000000000E+01 0. -1.
        -11    1    4    4    0    0 -0.51512617590E+02 -0.14423091557E+02 -0.40683514694E+02  0.67206574893E+02  0.00000000000E+00 0.  1.
         12    1    4    4    0    0 -0.73237890065E+02 -0.31240053995E+02  0.35677124482E+02  0.87250138831E+02  0.00000000000E+00 0. -1.
         -5    1    5    5    0  502  0.14706133033E+02 -0.33819457772E+02  0.24302972839E+03  0.24585679766E+03  0.47000000000E+01 0.  1.
         11    1    6    6    0    0 -0.15120995314E+01 -0.65549296722E+01  0.90448710695E+00  0.67876096622E+01  0.00000000000E+00 0. -1.
        -12    1    6    6    0    0  0.79738841379E+02  0.66398835248E+02  0.10354652834E+03  0.14659117189E+03  0.00000000000E+00 0.  1.
</event>
<event>
12    1  0.8406581E-002  0.2144048E+03  0.7818608E-02  0.1138757E+00
         21   -1    0    0  501  502  0.00000000000E+00  0.00000000000E+00  0.13920240811E+03  0.13920240811E+03  0.00000000000E+00 0.  1.
         21   -1    0    0  502  503 -0.00000000000E+00 -0.00000000000E+00 -0.33767053535E+03  0.33767053535E+03  0.00000000000E+00 0.  1.
         -6    2    1    2    0  503 -0.42567208768E+02 -0.12369714053E+03 -0.14570696077E+03  0.25922948224E+03  0.16987188175E+03 0.  0.
        -24    2    3    3    0    0  0.28761674521E+02 -0.65363262482E+02 -0.12488148940E+03  0.16464385343E+03  0.80078849110E+02 0.  0.
          6    2    1    2  501    0  0.42567208768E+02  0.12369714053E+03 -0.52761166478E+02  0.21764346122E+03  0.16574675166E+03 0.  0.
         24    2    5    5    0    0  0.67229830583E+02  0.94665119099E+02  0.12983621045E+02  0.14151481832E+03  0.79853205913E+02 0.  0.
          5    1    5    5  501    0 -0.24662621815E+02  0.29032021430E+02 -0.65744787522E+02  0.76128642898E+02  0.47000000000E+01 0. -1.
        -13    1    6    6    0    0 -0.16951546116E+02  0.31146668857E+02  0.34333516039E+01  0.35626644522E+02  0.00000000000E+00 0.  1.
         14    1    6    6    0    0  0.84181376699E+02  0.63518450242E+02  0.95502694410E+01  0.10588817380E+03  0.00000000000E+00 0. -1.
         -5    1    3    3    0  503 -0.71328883289E+02 -0.58333878047E+02 -0.20825471372E+02  0.94585628809E+02  0.47000000000E+01 0.  1.
         11    1    4    4    0    0  0.63649560852E+01 -0.35336875994E+02 -0.17584649507E+01  0.35948569791E+02  0.00000000000E+00 0. -1.
        -12    1    4    4    0    0  0.22396718436E+02 -0.30026386487E+02 -0.12312302445E+03  0.12869528364E+03  0.00000000000E+00 0.  1.
</event>
<event>
12    1  0.8406581E-002  0.1973624E+03  0.7818608E-02  0.1155101E+00
         21   -1    0    0  501  502  0.00000000000E+00  0.00000000000E+00  0.66771415302E+03  0.66771415302E+03  0.00000000000E+00 0. -1.
         21   -1    0    0  502  503 -0.00000000000E+00 -0.00000000000E+00 -0.57952089184E+02  0.57952089184E+02  0.00000000000E+00 0. -1.
         -6    2    1    2    0  503  0.59746109629E+02 -0.26620276593E+02  0.20313091164E+03  0.27366978204E+03  0.17133226666E+03 0.  0.
        -24    2    3    3    0    0  0.18463394359E+02 -0.67941495674E+02  0.66067959315E+02  0.12460587418E+03  0.78769949010E+02 0.  0.
          6    2    1    2  501    0 -0.59746109629E+02  0.26620276593E+02  0.40663115220E+03  0.45199646016E+03  0.18620867144E+03 0.  0.
         24    2    5    5    0    0 -0.10901668053E+03 -0.21348148619E+02  0.24687615675E+03  0.27800707099E+03  0.63243297389E+02 0.  0.
          5    1    5    5  501    0  0.49270570903E+02  0.47968425211E+02  0.15975499545E+03  0.17398938917E+03  0.47000000000E+01 0. -1.
        -11    1    6    6    0    0 -0.47376580853E+01 -0.19742466776E+02  0.20964234408E+02  0.29184062823E+02  0.00000000000E+00 0.  1.
         12    1    6    6    0    0 -0.10427902245E+03 -0.16056818425E+01  0.22591192234E+03  0.24882300816E+03  0.00000000000E+00 0. -1.
         -5    1    3    3    0  503  0.41282715269E+02  0.41321219082E+02  0.13706295233E+03  0.14906390786E+03  0.47000000000E+01 0.  1.
         11    1    4    4    0    0 -0.82001149480E+01 -0.60712752963E+02  0.73802926661E+02  0.95917424075E+02  0.00000000000E+00 0. -1.
        -12    1    4    4    0    0  0.26663509307E+02 -0.72287427115E+01 -0.77349673452E+01  0.28688450108E+02  0.00000000000E+00 0.  1.
</event>
<event>
12    1  0.8406581E-002  0.1851108E+03  0.7818608E-02  0.1163176E+00
         21   -1    0    0  503  502  0.00000000000E+00  0.00000000000E+00  0.38880951813E+03  0.38880951813E+03  0.00000000000E+00 0.  1.
         21   -1    0    0  501  503 -0.00000000000E+00 -0.00000000000E+00 -0.13239172375E+03  0.13239172375E+03  0.00000000000E+00 0.  1.
          6    2    1    2  501    0  0.60392839069E+02  0.26971452449E+02 -0.23036332415E+02  0.18653871455E+03  0.17289090536E+03 0.  0.
         24    2    3    3    0    0  0.63006898821E+02 -0.45578176191E+02 -0.22657278477E+02  0.11378903685E+03  0.79920918380E+02 0.  0.
         -6    2    1    2    0  502 -0.60392839069E+02 -0.26971452449E+02  0.27945412679E+03  0.33466252733E+03  0.17184191561E+03 0.  0.
        -24    2    5    5    0    0 -0.25246074567E+02  0.38784130712E+02  0.83941382348E+02  0.12536270647E+03  0.80796531035E+02 0.  0.
          5    1    3    3  501    0 -0.26140597526E+01  0.72549628640E+02 -0.37905393832E+00  0.72749677704E+02  0.47000000000E+01 0. -1.
        -11    1    4    4    0    0  0.45239911322E+02 -0.27645929634E+02  0.25941956223E+02  0.59024843027E+02  0.00000000000E+00 0.  1.
         12    1    4    4    0    0  0.17766987499E+02 -0.17932246557E+02 -0.48599234700E+02  0.54764193820E+02  0.00000000000E+00 0. -1.
         -5    1    5    5    0  502 -0.35146764502E+02 -0.65755583161E+02  0.19551274444E+03  0.20929982086E+03  0.47000000000E+01 0.  1.
         11    1    6    6    0    0 -0.77098311124E+01  0.54121125094E+02  0.86075538214E+02  0.10196830859E+03  0.00000000000E+00 0. -1.
        -12    1    6    6    0    0 -0.17536243454E+02 -0.15336994382E+02 -0.21341558660E+01  0.23394397885E+02  0.00000000000E+00 0.  1.
</event>
<event>
12    1  0.8406581E-002  0.2423020E+03  0.7818608E-02  0.1118845E+00
         21   -1    0    0  501  502  0.00000000000E+00  0.00000000000E+00  0.11331281654E+03  0.11331281654E+03  0.00000000000E+00 0. -1.
         21   -1    0    0  502  503 -0.00000000000E+00 -0.00000000000E+00 -0.56446860340E+03  0.56446860340E+03  0.00000000000E+00 0.  1.
         -6    2    1    2    0  503  0.10179197490E+03 -0.13104354070E+03 -0.32867890858E+03  0.40628405008E+03  0.17176404947E+03 0.  0.
        -24    2    3    3    0    0  0.53111993739E+01 -0.51717514632E+01 -0.12935645615E+03  0.15152185231E+03  0.78554586923E+02 0.  0.
          6    2    1    2  501    0 -0.10179197490E+03  0.13104354070E+03 -0.12247687828E+03  0.27149736986E+03  0.17656789180E+03 0.  0.
         24    2    5    5    0    0 -0.97073800041E+02  0.88889719527E+02 -0.15461565483E+03  0.21807268669E+03  0.79529812468E+02 0.  0.
          5    1    5    5  501    0 -0.47181748622E+01  0.42153821170E+02  0.32138776552E+02  0.53424683167E+02  0.47000000000E+01 0. -1.
        -11    1    6    6    0    0 -0.37176146071E+02  0.76650087672E+02 -0.55679706248E+02  0.10177195814E+03  0.00000000000E+00 0.  1.
         12    1    6    6    0    0 -0.59897653970E+02  0.12239631855E+02 -0.98935948582E+02  0.11630072855E+03  0.00000000000E+00 0. -1.
         -5    1    3    3    0  503  0.96480775529E+02 -0.12587178923E+03 -0.19932245243E+03  0.25476219777E+03  0.47000000000E+01 0.  1.
         13    1    4    4    0    0 -0.60517925357E+00 -0.24291676308E+02 -0.40589094798E+01  0.24635878835E+02  0.00000000000E+00 0. -1.
        -14    1    4    4    0    0  0.59163786275E+01  0.19119924845E+02 -0.12529754667E+03  0.12688597347E+03  0.00000000000E+00 0.  1.
</event>
<event>
12    1  0.8406581E-002  0.3208450E+03  0.7818608E-02  0.1075307E+00
         21   -1    0    0  501  502  0.00000000000E+00  0.00000000000E+00  0.28987456900E+03  0.28987456900E+03  0.00000000000E+00 0.  1.
         21   -1    0    0  502  503 -0.00000000000E+00 -0.00000000000E+00 -0.41341500627E+03  0.41341500627E+03  0.00000000000E+00 0. -1.
         -6    2    1    2    0  503 -0.33377034553E+02 -0.26875418836E+03  0.70734102690E+02  0.32854958718E+03  0.17204266260E+03 0.  0.
        -24    2    3    3    0    0 -0.34388367379E+02 -0.80981067034E+02  0.25446713298E+02  0.13533259640E+03  0.99633746303E+02 0.  0.
          6    2    1    2  501    0  0.33377034553E+02  0.26875418836E+03 -0.19427453996E+03  0.37473998809E+03  0.17130271919E+03 0.  0.
         24    2    5    5    0    0 -0.18571889331E+02  0.23094636465E+03 -0.10853145354E+03  0.26749219514E+03  0.78050365984E+02 0.  0.
          5    1    5    5  501    0  0.51948923884E+02  0.37807823706E+02 -0.85743086413E+02  0.10724779295E+03  0.47000000000E+01 0. -1.
        -13    1    6    6    0    0 -0.13374366288E+02  0.58538558047E+01  0.48748531723E+01  0.15391734627E+02  0.00000000000E+00 0.  1.
         14    1    6    6    0    0 -0.51975230428E+01  0.22509250885E+03 -0.11340630672E+03  0.25210046051E+03  0.00000000000E+00 0. -1.
         -5    1    3    3    0  503  0.10113328259E+01 -0.18777312133E+03  0.45287389391E+02  0.19321699078E+03  0.47000000000E+01 0.  1.
         13    1    4    4    0    0 -0.48465623404E+02 -0.54270688735E+02 -0.24664682962E+02  0.76828190746E+02  0.00000000000E+00 0. -1.
        -14    1    4    4    0    0  0.14077256025E+02 -0.26710378299E+02  0.50111396260E+02  0.58504405656E+02  0.00000000000E+00 0.  1.
</event>
<event>
12    1  0.8406581E-002  0.1834233E+03  0.7818608E-02  0.1166523E+00
         21   -1    0    0  503  502  0.00000000000E+00  0.00000000000E+00  0.10617390172E+03  0.10617390172E+03  0.00000000000E+00 0. -1.
         21   -1    0    0  501  503 -0.00000000000E+00 -0.00000000000E+00 -0.21390760201E+04  0.21390760201E+04  0.00000000000E+00 0. -1.
          6    2    1    2  501    0 -0.14980578374E+02  0.60728526181E+02 -0.20598510357E+04  0.20680015423E+04  0.17242887829E+03 0.  0.
         24    2    3    3    0    0  0.75796489010E+01  0.52903221481E+02 -0.56281747696E+03  0.57077017567E+03  0.78478526594E+02 0.  0.
         -6    2    1    2    0  502  0.14980578374E+02 -0.60728526181E+02  0.26948917308E+02  0.17724837952E+03  0.16364098594E+03 0.  0.
        -24    2    5    5    0    0 -0.45286030237E+01  0.20302976067E+02 -0.12823811940E+02  0.84778533044E+02  0.81180234231E+02 0.  0.
          5    1    3    3  501    0 -0.22560227275E+02  0.78253047008E+01 -0.14970335587E+04  0.14972313666E+04  0.47000000000E+01 0. -1.
        -11    1    4    4    0    0 -0.27198896537E+02 -0.29579180722E+00 -0.10096269912E+03  0.10456258451E+03  0.00000000000E+00 0.  1.
         12    1    4    4    0    0  0.34778545438E+02  0.53199013288E+02 -0.46185477785E+03  0.46620759116E+03  0.00000000000E+00 0. -1.
         -5    1    5    5    0  502  0.19509181398E+02 -0.81031502249E+02  0.39772729249E+02  0.92469846477E+02  0.47000000000E+01 0.  1.
         11    1    6    6    0    0  0.81752786629E+01  0.29278445368E+02  0.27852915869E+02  0.41229206478E+02  0.00000000000E+00 0. -1.
        -12    1    6    6    0    0 -0.12703881687E+02 -0.89754693011E+01 -0.40676727809E+02  0.43549326566E+02  0.00000000000E+00 0.  1.
</event>
<event>
12    1  0.8406581E-002  0.1985019E+03  0.7818608E-02  0.1151392E+00
         21   -1    0    0  501  502  0.00000000000E+00  0.00000000000E+00  0.14176691276E+04  0.14176691276E+04  0.00000000000E+00 0.  1.
         21   -1    0    0  502  503 -0.00000000000E+00 -0.00000000000E+00 -0.27580408610E+02  0.27580408610E+02  0.00000000000E+00 0.  1.
         -6    2    1    2    0  503 -0.45950955261E+02 -0.84276483441E+02  0.67204237359E+03  0.70074528012E+03  0.17374976191E+03 0.  0.
        -24    2    3    3    0    0  0.46912927335E+01 -0.64092133763E+02  0.60756221627E+03  0.61617681116E+03  0.80076252039E+02 0.  0.
          6    2    1    2  501    0  0.45950955261E+02  0.84276483441E+02  0.71804634543E+03  0.74450425611E+03  0.17170328255E+03 0.  0.
         24    2    5    5    0    0  0.46474059431E+02  0.28638000538E+02  0.18868706603E+03  0.21220804994E+03  0.80308619085E+02 0.  0.
          5    1    5    5  501    0 -0.52310417039E+00  0.55638482903E+02  0.52935927940E+03  0.53229620617E+03  0.47000000000E+01 0. -1.
        -11    1    6    6    0    0  0.50271117766E+02 -0.36478431960E+00  0.17051759748E+03  0.17777392779E+03  0.00000000000E+00 0.  1.
         12    1    6    6    0    0 -0.37970583348E+01  0.29002784857E+02  0.18169468544E+02  0.34434122156E+02  0.00000000000E+00 0. -1.
         -5    1    3    3    0  503 -0.50642247994E+02 -0.20184349678E+02  0.64480157318E+02  0.84568468956E+02  0.47000000000E+01 0.  1.
         11    1    4    4    0    0  0.37265876752E+02 -0.10696072356E+02  0.18581292600E+03  0.18981463327E+03  0.00000000000E+00 0. -1.
        -12    1    4    4    0    0 -0.32574584019E+02 -0.53396061407E+02  0.42174929027E+03  0.42636217790E+03  0.00000000000E+00 0.  1.
</event>
<event>
12    1  0.8406581E-002  0.2447251E+03  0.7818608E-02  0.1117195E+00
         21   -1    0    0  503  502  0.00000000000E+00  0.00000000000E+00  0.39154071859E+03  0.39154071859E+03  0.00000000000E+00 0.  1.
         21   -1    0    0  501  503 -0.00000000000E+00 -0.00000000000E+00 -0.33390127894E+03  0.33390127894E+03  0.00000000000E+00 0.  1.
          6    2    1    2  501    0  0.11744774880E+03 -0.12873612670E+03 -0.23970650301E+03  0.34033810695E+03  0.16734352524E+03 0.  0.
         24    2    3    3    0    0  0.69763892179E+02 -0.10948735456E+03 -0.24512060905E+03  0.28841828457E+03  0.79034881130E+02 0.  0.
         -6    2    1    2    0  502 -0.11744774880E+03  0.12873612670E+03  0.29734594265E+03  0.38510389058E+03  0.17182384267E+03 0.  0.
        -24    2    5    5    0    0 -0.11515768933E+03  0.15782813267E+03  0.22847763651E+03  0.31016042672E+03  0.76331166939E+02 0.  0.
          5    1    3    3  501    0  0.47683856625E+02 -0.19248772143E+02  0.54141060390E+01  0.51919822379E+02  0.47000000000E+01 0. -1.
        -11    1    4    4    0    0 -0.15427993484E+02 -0.37021785059E+02 -0.67611449373E+02  0.78612617551E+02  0.00000000000E+00 0.  1.
         12    1    4    4    0    0  0.85191885663E+02 -0.72465569502E+02 -0.17750915968E+03  0.20980566702E+03  0.00000000000E+00 0. -1.
         -5    1    5    5    0  502 -0.22900594759E+01 -0.29092005970E+02  0.68868306145E+02  0.74943463858E+02  0.47000000000E+01 0.  1.
         11    1    6    6    0    0 -0.93853345220E+02  0.13953243521E+03  0.14485200794E+03  0.22194561291E+03  0.00000000000E+00 0. -1.
        -12    1    6    6    0    0 -0.21304344108E+02  0.18295697468E+02  0.83625628567E+02  0.88214813818E+02  0.00000000000E+00 0.  1.
</event>
<event>
12    1  0.8406581E-002  0.5487572E+03  0.7818608E-02  0.1001826E+00
         21   -1    0    0  501  502  0.00000000000E+00  0.00000000000E+00  0.12708999852E+04  0.12708999852E+04  0.00000000000E+00 0. -1.
         21   -1    0    0  502  503 -0.00000000000E+00 -0.00000000000E+00 -0.12146561869E+04  0.12146561869E+04  0.00000000000E+00 0.  1.
         -6    2    1    2    0  503  0.52068457976E+03  0.87588206160E+01 -0.10870611872E+04  0.12173760914E+04  0.17062641889E+03 0.  0.
        -24    2    3    3    0    0  0.46294604621E+03  0.54862851267E+02 -0.97245914533E+03  0.10809391540E+04  0.73645714113E+02 0.  0.
          6    2    1    2  501    0 -0.52068457976E+03 -0.87588206160E+01  0.11433049855E+04  0.12681800806E+04  0.17304704135E+03 0.  0.
         24    2    5    5    0    0 -0.26241683054E+03 -0.68188416412E+02  0.62119112252E+03  0.68263838010E+03  0.81268039320E+02 0.  0.
          5    1    5    5  501    0 -0.25826774922E+03  0.59429595796E+02  0.52211386295E+03  0.58554170050E+03  0.47000000000E+01 0. -1.
        -13    1    6    6    0    0  0.57217413695E+01 -0.21942134877E+00  0.71033764920E+01  0.91238384255E+01  0.00000000000E+00 0.  1.
         14    1    6    6    0    0 -0.26813857190E+03 -0.67968995063E+02  0.61408774603E+03  0.67351454168E+03  0.00000000000E+00 0. -1.
         -5    1    3    3    0  503  0.57738533547E+02 -0.46104030651E+02 -0.11460204183E+03  0.13643693741E+03  0.47000000000E+01 0.  1.
         13    1    4    4    0    0  0.19860651306E+03  0.22064538239E+02 -0.33509360157E+03  0.39015267870E+03  0.00000000000E+00 0. -1.
        -14    1    4    4    0    0  0.26433953315E+03  0.32798313027E+02 -0.63736554375E+03  0.69078647532E+03  0.00000000000E+00 0.  1.
</event>
<event>
12    1  0.8406581E-002  0.2069629E+03  0.7818608E-02  0.1143999E+00
         21   -1    0    0  503  502  0.00000000000E+00  0.00000000000E+00  0.25732466602E+03  0.25732466602E+03  0.00000000000E+00 0.  1.
         21   -1    0    0  501  503 -0.00000000000E+00 -0.00000000000E+00 -0.24014015687E+03  0.24014015687E+03  0.00000000000E+00 0.  1.
          6    2    1    2  501    0  0.10657912330E+03  0.45388084452E+02 -0.12920557834E+03  0.24398303322E+03  0.17150641764E+03 0.  0.
         24    2    3    3    0    0  0.10379443881E+02  0.47230851701E+02 -0.16775136627E+02  0.95927407403E+02  0.81130611205E+02 0.  0.
         -6    2    1    2    0  502 -0.10657912330E+03 -0.45388084452E+02  0.14639008749E+03  0.25348178967E+03  0.17147528174E+03 0.  0.
        -24    2    5    5    0    0 -0.45789055053E+02  0.11956401078E+02  0.10019066901E+02  0.93472515956E+02  0.79982100799E+02 0.  0.
          5    1    3    3  501    0  0.96199679419E+02 -0.18427672486E+01 -0.11243044172E+03  0.14805562582E+03  0.47000000000E+01 0. -1.
        -11    1    4    4    0    0 -0.16955305746E+02  0.85685194459E+01 -0.39181481548E+02  0.43544120323E+02  0.00000000000E+00 0.  1.
         12    1    4    4    0    0  0.27334749626E+02  0.38662332255E+02  0.22406344921E+02  0.52383287079E+02  0.00000000000E+00 0. -1.
         -5    1    5    5    0  502 -0.60790068248E+02 -0.57344485530E+02  0.13637102059E+03  0.16000927372E+03  0.47000000000E+01 0.  1.
         13    1    6    6    0    0 -0.60249978972E+01  0.41717074941E+02  0.11807989260E+02  0.43772634735E+02  0.00000000000E+00 0. -1.
        -14    1    6    6    0    0 -0.39764057155E+02 -0.29760673862E+02 -0.17889223593E+01  0.49699881221E+02  0.00000000000E+00 0.  1.
</event>
<event>
12    1  0.8406581E-002  0.1757234E+03  0.7818608E-02  0.1172207E+00
         21   -1    0    0  503  502  0.00000000000E+00  0.00000000000E+00  0.35201991327E+03  0.35201991327E+03  0.00000000000E+00 0.  1.
         21   -1    0    0  501  503 -0.00000000000E+00 -0.00000000000E+00 -0.62395508735E+03  0.62395508735E+03  0.00000000000E+00 0.  1.
          6    2    1    2  501    0 -0.21064963746E+02 -0.28974323711E+02 -0.58856523074E+03  0.61423752915E+03  0.17203333180E+03 0.  0.
         24    2    3    3    0    0 -0.20819689025E+02 -0.50530055921E+02 -0.58340464435E+03  0.59157850440E+03  0.81347414340E+02 0.  0.
         -6    2    1    2    0  502  0.21064963746E+02  0.28974323711E+02  0.31663005666E+03  0.36173747147E+03  0.17121962899E+03 0.  0.
        -24    2    5    5    0    0 -0.37494575339E+02 -0.25163075965E+02  0.14595738517E+03  0.17329297445E+03  0.81779417568E+02 0.  0.
          5    1    3    3  501    0 -0.24527472116E+00  0.21555732210E+02 -0.51605863959E+01  0.22659024753E+02  0.47000000000E+01 0. -1.
        -11    1    4    4    0    0 -0.37413186551E+02 -0.52881610465E+02 -0.55366589482E+03  0.55744249420E+03  0.00000000000E+00 0.  1.
         12    1    4    4    0    0  0.16593497526E+02  0.23515545439E+01 -0.29738749525E+02  0.34136010198E+02  0.00000000000E+00 0. -1.
         -5    1    5    5    0  502  0.58559539086E+02  0.54137399676E+02  0.17067267150E+03  0.18844449702E+03  0.47000000000E+01 0.  1.
         13    1    6    6    0    0  0.94342156031E+01 -0.58188852237E+01 -0.63330845108E+01  0.12766041231E+02  0.00000000000E+00 0. -1.
        -14    1    6    6    0    0 -0.46928790942E+02 -0.19344190741E+02  0.15229046968E+03  0.16052693322E+03  0.00000000000E+00 0.  1.
</event>
<event>
12    1  0.8406581E-002  0.3749805E+03  0.7818608E-02  0.1052912E+00
         21   -1    0    0  503  502  0.00000000000E+00  0.00000000000E+00  0.46592976222E+03  0.46592976222E+03  0.00000000000E+00 0.  1.
         21   -1    0    0  501  503 -0.00000000000E+00 -0.00000000000E+00 -0.93613396453E+03  0.93613396453E+03  0.00000000000E+00 0. -1.
          6    2    1    2  501    0  0.18098164477E+03  0.27800967558E+03 -0.81271131221E+03  0.89504751612E+03  0.17483318809E+03 0.  0.
         24    2    3    3    0    0  0.15609074195E+03  0.15173846728E+03 -0.39660783903E+03  0.45946954895E+03  0.80159879371E+02 0.  0.
         -6    2    1    2    0  502 -0.18098164477E+03 -0.27800967558E+03  0.34250710991E+03  0.50701621063E+03  0.17236757829E+03 0.  0.
        -24    2    5    5    0    0 -0.19303517716E+03 -0.28479588207E+03  0.34306956931E+03  0.49239613532E+03  0.79912143222E+02 0.  0.
          5    1    3    3  501    0  0.24890902825E+02  0.12627120829E+03 -0.41610347318E+03  0.43557796717E+03  0.47000000000E+01 0. -1.
        -13    1    4    4    0    0  0.73212294408E+02  0.10067283033E+03 -0.15372204318E+03  0.19780173250E+03  0.00000000000E+00 0.  1.
         14    1    4    4    0    0  0.82878447541E+02  0.51065636952E+02 -0.24288579584E+03  0.26166781645E+03  0.00000000000E+00 0. -1.
         -5    1    5    5    0  502  0.12053532381E+02  0.67862064907E+01 -0.56245940261E+00  0.14620075306E+02  0.47000000000E+01 0.  1.
         13    1    6    6    0    0 -0.22561860428E+02 -0.56706945638E+02  0.26312518942E+02  0.66460995198E+02  0.00000000000E+00 0. -1.
        -14    1    6    6    0    0 -0.17047331673E+03 -0.22808893643E+03  0.31675705037E+03  0.42593514013E+03  0.00000000000E+00 0.  1.
</event>
<event>
12    1  0.8406581E-002  0.2129032E+03  0.7818608E-02  0.1139666E+00
         21   -1    0    0  501  502  0.00000000000E+00  0.00000000000E+00  0.57842240314E+03  0.57842240314E+03  0.00000000000E+00 0. -1.
         21   -1    0    0  502  503 -0.00000000000E+00 -0.00000000000E+00 -0.10249923766E+03  0.10249923766E+03  0.00000000000E+00 0. -1.
         -6    2    1    2    0  503  0.11991141596E+03  0.37172365722E+02  0.69517512227E+02  0.22212611986E+03  0.16954880173E+03 0.  0.
        -24    2    3    3    0    0  0.84264896330E+02  0.38375061872E+02 -0.23058779538E+02  0.12280552463E+03  0.77306347982E+02 0.  0.
          6    2    1    2  501    0 -0.11991141596E+03 -0.37172365722E+02  0.40640565325E+03  0.45879552095E+03  0.17195127972E+03 0.  0.
         24    2    5    5    0    0 -0.77848287141E+02  0.28717949418E+02  0.33018502399E+03  0.34951370745E+03  0.79073416537E+02 0.  0.
          5    1    5    5  501    0 -0.42063128817E+02 -0.65890315140E+02  0.76220629267E+02  0.10928181350E+03  0.47000000000E+01 0. -1.
        -11    1    6    6    0    0 -0.29639041593E+02  0.51414246469E+02  0.14129722815E+03  0.15325405120E+03  0.00000000000E+00 0.  1.
         12    1    6    6    0    0 -0.48209245548E+02 -0.22696297051E+02  0.18888779584E+03  0.19625965625E+03  0.00000000000E+00 0. -1.
         -5    1    3    3    0  503  0.35646519628E+02 -0.12026961509E+01  0.92576291765E+02  0.99320595229E+02  0.47000000000E+01 0.  1.
         11    1    4    4    0    0  0.64069409536E+02  0.60603901566E+02 -0.27648635738E+02  0.92423856128E+02  0.00000000000E+00 0. -1.
        -12    1    4    4    0    0  0.20195486794E+02 -0.22228839694E+02  0.45898561997E+01  0.30381668501E+02  0.00000000000E+00 0.  1.
</event>
<event>
12    1  0.8406581E-002  0.1826248E+03  0.7818608E-02  0.1165490E+00
         21   -1    0    0  501  502  0.00000000000E+00  0.00000000000E+00  0.45959430807E+03  0.45959430807E+03  0.00000000000E+00 0. -1.
         21   -1    0    0  502  503 -0.00000000000E+00 -0.00000000000E+00 -0.12180464646E+03  0.12180464646E+03  0.00000000000E+00 0. -1.
         -6    2    1    2    0  503  0.11116945501E+02 -0.58366967220E+02 -0.16328617259E+02  0.18335329456E+03  0.17268907766E+03 0.  0.
        -24    2    3    3    0    0  0.36311932649E+02 -0.85461876335E+02  0.27010389167E+02  0.12617566821E+03  0.81045970688E+02 0.  0.
          6    2    1    2  501    0 -0.11116945501E+02  0.58366967220E+02  0.35411827887E+03  0.39804565997E+03  0.17178562993E+03 0.  0.
         24    2    5    5    0    0 -0.16453469611E+02  0.82275125097E+02  0.13622798979E+03  0.17873230748E+03  0.79669691004E+02 0.  0.
          5    1    5    5  501    0  0.53365241097E+01 -0.23908157878E+02  0.21789028908E+03  0.21931335249E+03  0.47000000000E+01 0. -1.
        -13    1    6    6    0    0 -0.35387821294E+02  0.41733680230E+02  0.27672865372E+02  0.61317089293E+02  0.00000000000E+00 0.  1.
         14    1    6    6    0    0  0.18934351684E+02  0.40541444867E+02  0.10855512442E+03  0.11741521819E+03  0.00000000000E+00 0. -1.
         -5    1    3    3    0  503 -0.25194987148E+02  0.27094909116E+02 -0.43339006426E+02  0.57177626353E+02  0.47000000000E+01 0.  1.
         13    1    4    4    0    0 -0.14265484525E+02 -0.68291282428E+02  0.17444584656E+02  0.71913259127E+02  0.00000000000E+00 0. -1.
        -14    1    4    4    0    0  0.50577417174E+02 -0.17170593907E+02  0.95658045115E+01  0.54262409079E+02  0.00000000000E+00 0.  1.
</event>
<event>
12    1  0.8406581E-002  0.1996123E+03  0.7818608E-02  0.1150245E+00
         21   -1    0    0  503  502  0.00000000000E+00  0.00000000000E+00  0.87853516878E+03  0.87853516878E+03  0.00000000000E+00 0. -1.
         21   -1    0    0  501  503 -0.00000000000E+00 -0.00000000000E+00 -0.71033230133E+02  0.71033230133E+02  0.00000000000E+00 0. -1.
          6    2    1    2  501    0  0.34076316706E+02 -0.91521037034E+02  0.11776639794E+03  0.23176275583E+03  0.17409122588E+03 0.  0.
         24    2    3    3    0    0 -0.20884555812E+02 -0.97954101496E+02  0.12212528834E+03  0.17605663632E+03  0.77782918870E+02 0.  0.
         -6    2    1    2    0  502 -0.34076316706E+02  0.91521037034E+02  0.68973554071E+03  0.71780564308E+03  0.17312576221E+03 0.  0.
        -24    2    5    5    0    0 -0.57260999826E+02  0.11973556621E+03  0.47638004856E+03  0.50129641645E+03  0.82126235496E+02 0.  0.
          5    1    3    3  501    0  0.54960872518E+02  0.64330644622E+01 -0.43588903996E+01  0.55706119518E+02  0.47000000000E+01 0. -1.
        -11    1    4    4    0    0 -0.49508049018E+02 -0.46450693985E+02  0.65858608833E+02  0.94583667970E+02  0.00000000000E+00 0.  1.
         12    1    4    4    0    0  0.28623493206E+02 -0.51503407511E+02  0.56266679506E+02  0.81472968346E+02  0.00000000000E+00 0. -1.
         -5    1    5    5    0  502  0.23184683120E+02 -0.28214529179E+02  0.21335549215E+03  0.21650922663E+03  0.47000000000E+01 0.  1.
         13    1    6    6    0    0 -0.89299830270E+01  0.52820865730E+02  0.32014935818E+03  0.32460036968E+03  0.00000000000E+00 0. -1.
        -14    1    6    6    0    0 -0.48331016799E+02  0.66914700482E+02  0.15623069038E+03  0.17669604676E+03  0.00000000000E+00 0.  1.
</event>
<event>
12    1  0.8406581E-002  0.1905569E+03  0.7818608E-02  0.1158171E+00
         21   -1    0    0  503  502  0.00000000000E+00  0.00000000000E+00  0.57695744468E+03  0.57695744468E+03  0.00000000000E+00 0. -1.
         21   -1    0    0  501  503 -0.00000000000E+00 -0.00000000000E+00 -0.76674273839E+02  0.76674273839E+02  0.00000000000E+00 0. -1.
          6    2    1    2  501    0  0.48618787935E+02  0.64150701101E+02  0.38951828379E+03  0.43322125095E+03  0.17168884610E+03 0.  0.
         24    2    3    3    0    0  0.88671726748E+02  0.82363122814E+02  0.28301094264E+03  0.31788767418E+03  0.79441932352E+02 0.  0.
         -6    2    1    2    0  502 -0.48618787935E+02 -0.64150701101E+02  0.11076488705E+03  0.22041046757E+03  0.17272178502E+03 0.  0.
        -24    2    5    5    0    0  0.39817241725E+02 -0.25116335116E+02  0.45296390925E+02  0.10356515506E+03  0.80360035366E+02 0.  0.
          5    1    3    3  501    0 -0.40052938813E+02 -0.18212421713E+02  0.10650734115E+03  0.11533357677E+03  0.47000000000E+01 0. -1.
        -11    1    4    4    0    0  0.42146636287E+02  0.78881523556E+02  0.23259343474E+03  0.24919538437E+03  0.00000000000E+00 0.  1.
         12    1    4    4    0    0  0.46525090460E+02  0.34815992577E+01  0.50417507903E+02  0.68692289806E+02  0.00000000000E+00 0. -1.
         -5    1    5    5    0  502 -0.88436029660E+02 -0.39034365985E+02  0.65468496130E+02  0.11684531251E+03  0.47000000000E+01 0.  1.
         11    1    6    6    0    0  0.10716668343E+02  0.11242076586E+02 -0.18768957387E+02  0.24361958619E+02  0.00000000000E+00 0. -1.
        -12    1    6    6    0    0  0.29100573382E+02 -0.36358411701E+02  0.64065348312E+02  0.79203196444E+02  0.00000000000E+00 0.  1.
</event>
<event>
12    1  0.8406581E-002  0.1792638E+03  0.7818608E-02  0.1168692E+00
         21   -1    0    0  501  502  0.00000000000E+00  0.00000000000E+00  0.68441208193E+02  0.68441208193E+02  0.00000000000E+00 0.  1.
         21   -1    0    0  502  503 -0.00000000000E+00 -0.00000000000E+00 -0.67331474120E+03  0.67331474120E+03  0.00000000000E+00 0.  1.
         -6    2    1    2    0  503 -0.77077074602E+01  0.47336648725E+02 -0.50782596908E+03  0.53853757286E+03  0.17272908105E+03 0.  0.
        -24    2    3    3    0    0  0.21259629563E+02  0.88621942483E+02 -0.42019907727E+03  0.43732421276E+03  0.79871033451E+02 0.  0.
          6    2    1    2  501    0  0.77077074602E+01 -0.47336648725E+02 -0.97047563927E+02  0.20321837654E+03  0.17198637106E+03 0.  0.
         24    2    5    5    0    0 -0.49865761520E+02 -0.24387843510E+02 -0.14153769600E+02  0.99609384991E+02  0.81488277079E+02 0.  0.
          5    1    5    5  501    0  0.57573468980E+02 -0.22948805215E+02 -0.82893794327E+02  0.10360899155E+03  0.47000000000E+01 0. -1.
        -11    1    6    6    0    0 -0.39912678471E+02 -0.45897312863E+02  0.14395347727E+02  0.62504489974E+02  0.00000000000E+00 0.  1.
         12    1    6    6    0    0 -0.99530830489E+01  0.21509469353E+02 -0.28549117327E+02  0.37104895016E+02  0.00000000000E+00 0. -1.
         -5    1    3    3    0  503 -0.28967337023E+02 -0.41285293758E+02 -0.87626891807E+02  0.10121336010E+03  0.47000000000E+01 0.  1.
         11    1    4    4    0    0 -0.67634100862E+01 -0.47309689513E+01 -0.28302932715E+01  0.87256142028E+01  0.00000000000E+00 0. -1.
        -12    1    4    4    0    0  0.28023039649E+02  0.93352911434E+02 -0.41736878400E+03  0.42859859855E+03  0.00000000000E+00 0.  1.
</event>
<event>
12    1  0.8406581E-002  0.2271048E+03  0.7818608E-02  0.1128808E+00
         21   -1    0    0  503  502  0.00000000000E+00  0.00000000000E+00  0.12137263340E+04  0.12137263340E+04  0.00000000000E+00 0. -1.
         21   -1    0    0  501  503 -0.00000000000E+00 -0.00000000000E+00 -0.87201966468E+02  0.87201966468E+02  0.00000000000E+00 0.  1.
          6    2    1    2  501    0  0.42278852423E+02  0.14277896469E+03  0.96515381572E+02  0.24617945847E+03  0.17063344564E+03 0.  0.
         24    2    3    3    0    0  0.39278260823E+02  0.14695652833E+03  0.24342810833E+02  0.17367135164E+03  0.80188296847E+02 0.  0.
         -6    2    1    2    0  502 -0.42278852423E+02 -0.14277896469E+03  0.10300089859E+04  0.10547488420E+04  0.17147383014E+03 0.  0.
        -24    2    5    5    0    0  0.32692157250E+02 -0.11776241499E+03  0.62051042547E+03  0.63766654666E+03  0.81539395832E+02 0.  0.
          5    1    3    3  501    0  0.30005915998E+01 -0.41775636381E+01  0.72172570739E+02  0.72508106822E+02  0.47000000000E+01 0. -1.
        -13    1    4    4    0    0  0.26666158911E+02  0.23155206218E+01  0.36312314318E+01  0.27011692071E+02  0.00000000000E+00 0.  1.
         14    1    4    4    0    0  0.12612101912E+02  0.14464100771E+03  0.20711579402E+02  0.14665965957E+03  0.00000000000E+00 0. -1.
         -5    1    5    5    0  502 -0.74971009673E+02 -0.25016549701E+02  0.40949856045E+03  0.41708229531E+03  0.47000000000E+01 0.  1.
         11    1    6    6    0    0  0.29542507902E+01 -0.11589275209E+03  0.52351643829E+03  0.53619895444E+03  0.00000000000E+00 0. -1.
        -12    1    6    6    0    0  0.29737906460E+02 -0.18696629008E+01  0.96993987186E+02  0.10146759222E+03  0.00000000000E+00 0.  1.
</event>
<event>
12    1  0.8406581E-002  0.2721656E+03  0.7818608E-02  0.1100316E+00
         21   -1    0    0  503  502  0.00000000000E+00  0.00000000000E+00  0.79103989265E+03  0.79103989265E+03  0.00000000000E+00 0. -1.
         21   -1    0    0  501  503 -0.00000000000E+00 -0.00000000000E+00 -0.13906976085E+03  0.13906976085E+03  0.00000000000E+00 0.  1.
          6    2    1    2  501    0 -0.66459631552E+02  0.20079673067E+03  0.59052626051E+02  0.27849837963E+03  0.17128317237E+03 0.  0.
         24    2    3    3    0    0  0.15507131368E+02  0.96418045077E+02  0.69967439993E+02  0.14525167838E+03  0.81643719128E+02 0.  0.
         -6    2    1    2    0  502  0.66459631552E+02 -0.20079673067E+03  0.59291750575E+03  0.65161127386E+03  0.16825538306E+03 0.  0.
        -24    2    5    5    0    0  0.25150374484E+02 -0.11474748267E+03  0.49375271580E+03  0.51389172780E+03  0.80581867875E+02 0.  0.
          5    1    3    3  501    0 -0.81966762920E+02  0.10437868560E+03 -0.10914813942E+02  0.13324670125E+03  0.47000000000E+01 0. -1.
        -13    1    4    4    0    0  0.25626305192E+01  0.86594323674E+02  0.14985680641E+02  0.87918795442E+02  0.00000000000E+00 0.  1.
         14    1    4    4    0    0  0.12944500849E+02  0.98237214038E+01  0.54981759352E+02  0.57332882938E+02  0.00000000000E+00 0. -1.
         -5    1    5    5    0  502  0.41309257068E+02 -0.86049248005E+02  0.99164789948E+02  0.13771954606E+03  0.47000000000E+01 0.  1.
         13    1    6    6    0    0  0.38030726659E+02 -0.40002298996E+02  0.11425285136E+03  0.12688669804E+03  0.00000000000E+00 0. -1.
        -14    1    6    6    0    0 -0.12880352175E+02 -0.74745183674E+02  0.37949986444E+03  0.38700502976E+03  0.00000000000E+00 0.  1.
</event>
<event>
12    1  0.8406581E-002  0.2076029E+03  0.7818608E-02  0.1144018E+00
         21   -1    0    0  503  502  0.00000000000E+00  0.00000000000E+00  0.44074144906E+03  0.44074144906E+03  0.00000000000E+00 0.  1.
         21   -1    0    0  501  503 -0.00000000000E+00 -0.00000000000E+00 -0.12428513741E+03  0.12428513741E+03  0.00000000000E+00 0.  1.
          6    2    1    2  501    0  0.99607415248E+02  0.60233553776E+02  0.23944783448E+02  0.20633180262E+03  0.16867051297E+03 0.  0.
         24    2    3    3    0    0  0.78795523818E+02  0.13320292620E+02 -0.37535496055E+02  0.12610771855E+03  0.90044869062E+02 0.  0.
         -6    2    1    2    0  502 -0.99607415248E+02 -0.60233553776E+02  0.29251152820E+03  0.35869478385E+03  0.17189891116E+03 0.  0.
        -24    2    5    5    0    0 -0.91158571380E+02 -0.32700472514E+02  0.30277607973E+03  0.32776091011E+03  0.79841428454E+02 0.  0.
          5    1    3    3  501    0  0.20811891431E+02  0.46913261156E+02  0.61480279503E+02  0.80224084071E+02  0.47000000000E+01 0. -1.
        -11    1    4    4    0    0  0.20242077819E+02  0.35951155255E+02  0.15354227441E+02  0.44022489468E+02  0.00000000000E+00 0.  1.
         12    1    4    4    0    0  0.58553445999E+02 -0.22630862635E+02 -0.52889723496E+02  0.82085229082E+02  0.00000000000E+00 0. -1.
         -5    1    5    5    0  502 -0.84488438689E+01 -0.27533081262E+02 -0.10264551533E+02  0.30933873742E+02  0.47000000000E+01 0.  1.
         13    1    6    6    0    0 -0.32879425644E+02  0.26310035522E+02  0.11567113203E+03  0.12309786913E+03  0.00000000000E+00 0. -1.
        -14    1    6    6    0    0 -0.58279145736E+02 -0.59010508036E+02  0.18710494771E+03  0.20466304098E+03  0.00000000000E+00 0.  1.
</event>
<event>
12    1  0.8406581E-002  0.4353557E+03  0.7818608E-02  0.1032262E+00
         21   -1    0    0  501  502  0.00000000000E+00  0.00000000000E+00  0.28026227933E+03  0.28026227933E+03  0.00000000000E+00 0. -1.
         21   -1    0    0  502  503 -0.00000000000E+00 -0.00000000000E+00 -0.78827130026E+03  0.78827130026E+03  0.00000000000E+00 0.  1.
         -6    2    1    2    0  503 -0.71115148038E+02 -0.39249188197E+03 -0.45657496987E+03  0.63015008374E+03  0.17181729609E+03 0.  0.
        -24    2    3    3    0    0 -0.10798597800E+03 -0.36264112633E+03 -0.40917218628E+03  0.56292181880E+03  0.79306608234E+02 0.  0.
          6    2    1    2  501    0  0.71115148038E+02  0.39249188197E+03 -0.51434051059E+02  0.43838349586E+03  0.17443447521E+03 0.  0.
         24    2    5    5    0    0 -0.21455166948E+02  0.25866353993E+03 -0.48132558878E+02  0.27555758207E+03  0.79044840043E+02 0.  0.
          5    1    5    5  501    0  0.92570314986E+02  0.13382834204E+03 -0.33014921809E+01  0.16282591378E+03  0.47000000000E+01 0. -1.
        -13    1    6    6    0    0  0.24678021565E+02  0.10489030160E+03 -0.39552800721E+02  0.11478416338E+03  0.00000000000E+00 0.  1.
         14    1    6    6    0    0 -0.46133188513E+02  0.15377323833E+03 -0.85797581566E+01  0.16077341870E+03  0.00000000000E+00 0. -1.
         -5    1    3    3    0  503  0.36870829966E+02 -0.29850755639E+02 -0.47402783587E+02  0.67228264937E+02  0.47000000000E+01 0.  1.
         13    1    4    4    0    0 -0.33718839354E+02 -0.42404729493E+02 -0.33375026761E+02  0.63631860118E+02  0.00000000000E+00 0. -1.
        -14    1    4    4    0    0 -0.74267138650E+02 -0.32023639683E+03 -0.37579715952E+03  0.49928995869E+03  0.00000000000E+00 0.  1.
</event>
<event>
12    1  0.8406581E-002  0.1805987E+03  0.7818608E-02  0.1167398E+00
         21   -1    0    0  501  502  0.00000000000E+00  0.00000000000E+00  0.33374716851E+03  0.33374716851E+03  0.00000000000E+00 0. -1.
         21   -1    0    0  502  503 -0.00000000000E+00 -0.00000000000E+00 -0.13821773363E+03  0.13821773363E+03  0.00000000000E+00 0. -1.
         -6    2    1    2    0  503  0.32191778306E-01 -0.54392910409E+02  0.22596307400E+03  0.28881985718E+03  0.17146139317E+03 0.  0.
        -24    2    3    3    0    0  0.37272652943E+02  0.11606395789E+02  0.61819155018E+02  0.10796611377E+03  0.79442524598E+02 0.  0.
          6    2    1    2  501    0 -0.32191778306E-01  0.54392910409E+02 -0.30433639120E+02  0.18314504496E+03  0.17221298257E+03 0.  0.
         24    2    5    5    0    0 -0.48466360578E+02  0.16978837496E+02 -0.62140446556E+02  0.11405746868E+03  0.80687062363E+02 0.  0.
          5    1    5    5  501    0  0.48434168800E+02  0.37414072914E+02  0.31706807435E+02  0.69087576286E+02  0.47000000000E+01 0. -1.
        -11    1    6    6    0    0  0.60880557799E+01  0.13434272341E+02 -0.57307164993E+02  0.59174785645E+02  0.00000000000E+00 0.  1.
         12    1    6    6    0    0 -0.54554416358E+02  0.35445651542E+01 -0.48332815624E+01  0.54882683033E+02  0.00000000000E+00 0. -1.
         -5    1    3    3    0  503 -0.37240461164E+02 -0.65999306198E+02  0.16414391898E+03  0.18085374341E+03  0.47000000000E+01 0.  1.
         13    1    4    4    0    0  0.22442091804E+02 -0.33627794688E+02  0.22799113489E+02  0.46414174947E+02  0.00000000000E+00 0. -1.
        -14    1    4    4    0    0  0.14830561139E+02  0.45234190477E+02  0.39020041529E+02  0.61551938822E+02  0.00000000000E+00 0.  1.
</event>
<event>
12    1  0.8406581E-002  0.1941877E+03  0.7818608E-02  0.1156051E+00
         21   -1    0    0  503  502  0.00000000000E+00  0.00000000000E+00  0.59334777093E+02  0.59334777093E+02  0.00000000000E+00 0. -1.
         21   -1    0    0  501  503 -0.00000000000E+00 -0.00000000000E+00 -0.61831176709E+03  0.61831176709E+03  0.00000000000E+00 0.  1.
          6    2    1    2  501    0  0.33615959684E+02 -0.84020292717E+02 -0.29408733406E+03  0.34920266962E+03  0.16512329359E+03 0.  0.
         24    2    3    3    0    0  0.13299470266E+02 -0.12085656454E+03 -0.23421877765E+03  0.27588142638E+03  0.80429724095E+02 0.  0.
         -6    2    1    2    0  502 -0.33615959684E+02  0.84020292717E+02 -0.26488965594E+03  0.32844387456E+03  0.17181212582E+03 0.  0.
        -24    2    5    5    0    0 -0.57050731082E+02  0.11671809892E+03 -0.19213212584E+03  0.24517273174E+03  0.79479645655E+02 0.  0.
          5    1    3    3  501    0  0.20316489418E+02  0.36836271823E+02 -0.59868556411E+02  0.73321243243E+02  0.47000000000E+01 0. -1.
        -13    1    4    4    0    0  0.16340843286E+02 -0.63777802946E+02 -0.19690538970E+03  0.20762072103E+03  0.00000000000E+00 0.  1.
         14    1    4    4    0    0 -0.30413730205E+01 -0.57078761594E+02 -0.37313387945E+02  0.68260705350E+02  0.00000000000E+00 0. -1.
         -5    1    5    5    0  502  0.23434771398E+02 -0.32697806205E+02 -0.72757530095E+02  0.83271142820E+02  0.47000000000E+01 0.  1.
         11    1    6    6    0    0 -0.88640018644E+00  0.27212128350E+02 -0.15667822338E+01  0.27271605035E+02  0.00000000000E+00 0. -1.
        -12    1    6    6    0    0 -0.56164330895E+02  0.89505970572E+02 -0.19056534361E+03  0.21790112670E+03  0.00000000000E+00 0.  1.
</event>
<event>
12    1  0.8406581E-002  0.2208502E+03  0.7818608E-02  0.1133462E+00
         21   -1    0    0  501  502  0.00000000000E+00  0.00000000000E+00  0.74399882674E+02  0.74399882674E+02  0.00000000000E+00 0.  1.
         21   -1    0    0  502  503 -0.00000000000E+00 -0.00000000000E+00 -0.65962492011E+03  0.65962492011E+03  0.00000000000E+00 0. -1.
         -6    2    1    2    0  503 -0.63940808572E+02 -0.12193678959E+03 -0.25443968851E+03  0.33691892875E+03  0.17267831887E+03 0.  0.
        -24    2    3    3    0    0 -0.55838869732E+02 -0.11829279882E+03 -0.10213361582E+03  0.18428161399E+03  0.80107878184E+02 0.  0.
          6    2    1    2  501    0  0.63940808572E+02  0.12193678959E+03 -0.33078534893E+03  0.39710587404E+03  0.17122242980E+03 0.  0.
         24    2    5    5    0    0  0.18427254071E+02  0.58191489108E+02 -0.63497218741E+02  0.11853814166E+03  0.79332094034E+02 0.  0.
          5    1    5    5  501    0  0.45513554501E+02  0.63745300484E+02 -0.26728813019E+03  0.27856773237E+03  0.47000000000E+01 0. -1.
        -11    1    6    6    0    0 -0.26163370979E+00  0.37453602736E+02  0.10955370010E+02  0.39023850939E+02  0.00000000000E+00 0.  1.
         12    1    6    6    0    0  0.18688887781E+02  0.20737886373E+02 -0.74452588750E+02  0.79514290724E+02  0.00000000000E+00 0. -1.
         -5    1    3    3    0  503 -0.81019388405E+01 -0.36439907675E+01 -0.15230607268E+03  0.15263731476E+03  0.47000000000E+01 0.  1.
         11    1    4    4    0    0 -0.42473698481E+01  0.42944545522E+01 -0.34588108454E+02  0.35111532820E+02  0.00000000000E+00 0. -1.
        -12    1    4    4    0    0 -0.51591499884E+02 -0.12258725338E+03 -0.67545507368E+02  0.14917008117E+03  0.00000000000E+00 0.  1.
</event>
<event>
12    1  0.8406581E-002  0.1873921E+03  0.7818608E-02  0.1163724E+00
         21   -1    0    0  503  502  0.00000000000E+00  0.00000000000E+00  0.93416953382E+03  0.93416953382E+03  0.00000000000E+00 0. -1.
         21   -1    0    0  501  503 -0.00000000000E+00 -0.00000000000E+00 -0.43789819341E+02  0.43789819341E+02  0.00000000000E+00 0.  1.
          6    2    1    2  501    0  0.56888765790E+02 -0.26088671837E+02  0.24062553377E+03  0.30498596491E+03  0.17663193601E+03 0.  0.
         24    2    3    3    0    0  0.30713311243E+02  0.48450872302E+02  0.18368132493E+03  0.20748708808E+03  0.77596830355E+02 0.  0.
         -6    2    1    2    0  502 -0.56888765790E+02  0.26088671837E+02  0.64975418071E+03  0.67297338825E+03  0.16369403005E+03 0.  0.
        -24    2    5    5    0    0 -0.73358356680E+02  0.60889355236E+01  0.63167599398E+03  0.64103363697E+03  0.80566982843E+02 0.  0.
          5    1    3    3  501    0  0.26175454547E+02 -0.74539544139E+02  0.56944208844E+02  0.97498876825E+02  0.47000000000E+01 0. -1.
        -13    1    4    4    0    0 -0.10869968634E+02 -0.47307707947E+01  0.66344394558E-01  0.11854991017E+02  0.00000000000E+00 0.  1.
         14    1    4    4    0    0  0.41583279878E+02  0.53181643097E+02  0.18361498053E+03  0.19563209707E+03  0.00000000000E+00 0. -1.
         -5    1    5    5    0  502  0.16469590890E+02  0.19999736314E+02  0.18078186733E+02  0.31939751287E+02  0.47000000000E+01 0.  1.
         13    1    6    6    0    0  0.18345927706E+01 -0.21310191795E+02  0.58304799435E+02  0.62104264283E+02  0.00000000000E+00 0. -1.
        -14    1    6    6    0    0 -0.75192949450E+02  0.27399127318E+02  0.57337119454E+03  0.57892937268E+03  0.00000000000E+00 0.  1.
</event>
<event>
12    1  0.8406581E-002  0.3241943E+03  0.7818608E-02  0.1074348E+00
         21   -1    0    0  501  502  0.00000000000E+00  0.00000000000E+00  0.19529450520E+03  0.19529450520E+03  0.00000000000E+00 0. -1.
         21   -1    0    0  502  503 -0.00000000000E+00 -0.00000000000E+00 -0.77299345834E+03  0.77299345834E+03  0.00000000000E+00 0. -1.
         -6    2    1    2    0  503  0.10151477949E+03 -0.25511616312E+03 -0.56233725708E+03  0.64909562988E+03  0.17237296450E+03 0.  0.
        -24    2    3    3    0    0  0.43869343030E+02 -0.76818990320E+02 -0.32856416162E+03  0.34945446392E+03  0.79613676746E+02 0.  0.
          6    2    1    2  501    0 -0.10151477949E+03  0.25511616312E+03 -0.15361696055E+02  0.31919233366E+03  0.16204399718E+03 0.  0.
         24    2    5    5    0    0 -0.47224960151E+02  0.37390453543E+02  0.63896950466E+01  0.93699357916E+02  0.71487751355E+02 0.  0.
          5    1    5    5  501    0 -0.54289819335E+02  0.21772570958E+03 -0.21751391102E+02  0.22549297575E+03  0.47000000000E+01 0. -1.
        -13    1    6    6    0    0 -0.62609153061E+02  0.31434984974E+02  0.19395006065E+02  0.72692713443E+02  0.00000000000E+00 0.  1.
         14    1    6    6    0    0  0.15384192910E+02  0.59554685688E+01 -0.13005311018E+02  0.21006644474E+02  0.00000000000E+00 0. -1.
         -5    1    3    3    0  503  0.57645436456E+02 -0.17829717280E+03 -0.23377309546E+03  0.29964116596E+03  0.47000000000E+01 0.  1.
         13    1    4    4    0    0  0.11998466723E+02 -0.70015453640E+02 -0.12916775378E+03  0.14741246748E+03  0.00000000000E+00 0. -1.
        -14    1    4    4    0    0  0.31870876307E+02 -0.68035366796E+01 -0.19939640784E+03  0.20204199645E+03  0.00000000000E+00 0.  1.
</event>
<event>
12    1  0.8406581E-002  0.1803888E+03  0.7818608E-02  0.1167515E+00
         21   -1    0    0  503  502  0.00000000000E+00  0.00000000000E+00  0.26400897223E+03  0.26400897223E+03  0.00000000000E+00 0. -1.
         21   -1    0    0  501  503 -0.00000000000E+00 -0.00000000000E+00 -0.15341491232E+03  0.15341491232E+03  0.00000000000E+00 0. -1.
          6    2    1    2  501    0  0.48852736414E+02 -0.21713406780E+02 -0.37671115313E+02  0.18392297334E+03  0.17190254595E+03 0.  0.
         24    2    3    3    0    0  0.95113868731E+02 -0.34082117192E+02 -0.38762232039E+02  0.13579441741E+03  0.82032764363E+02 0.  0.
         -6    2    1    2    0  502 -0.48852736414E+02  0.21713406780E+02  0.14826517521E+03  0.23350091121E+03  0.17228479755E+03 0.  0.
        -24    2    5    5    0    0  0.24888230267E+02 -0.28323856509E+02  0.48216642410E+02  0.99436535626E+02  0.78365267553E+02 0.  0.
          5    1    3    3  501    0 -0.46261132316E+02  0.12368710412E+02  0.10911167256E+01  0.48128555933E+02  0.47000000000E+01 0. -1.
        -13    1    4    4    0    0  0.71187275930E+02 -0.39499565721E+02  0.91925570666E+01  0.81928914627E+02  0.00000000000E+00 0.  1.
         14    1    4    4    0    0  0.23926592801E+02  0.54174485288E+01 -0.47954789106E+02  0.53865502780E+02  0.00000000000E+00 0. -1.
         -5    1    5    5    0  502 -0.73740966682E+02  0.50037263288E+02  0.10004853280E+03  0.13406437558E+03  0.47000000000E+01 0.  1.
         11    1    6    6    0    0 -0.22080603126E+02  0.11581356113E+02  0.96698136785E+01  0.26742964315E+02  0.00000000000E+00 0. -1.
        -12    1    6    6    0    0  0.46968833393E+02 -0.39905212621E+02  0.38546828731E+02  0.72693571311E+02  0.00000000000E+00 0.  1.
</event>
<event>
12    1  0.8406581E-002  0.2323448E+03  0.7818608E-02  0.1125351E+00
         21   -1    0    0  501  502  0.00000000000E+00  0.00000000000E+00  0.14583590889E+03  0.14583590889E+03  0.00000000000E+00 0.  1.
         21   -1    0    0  502  503 -0.00000000000E+00 -0.00000000000E+00 -0.36704556168E+03  0.36704556168E+03  0.00000000000E+00 0. -1.
         -6    2    1    2    0  503  0.15604080953E+03 -0.50856906528E+01 -0.10649702311E+03  0.25376158631E+03  0.16934795029E+03 0.  0.
        -24    2    3    3    0    0  0.19286132439E+02  0.35116033855E+02 -0.51601712243E+02  0.10094272126E+03  0.76951968985E+02 0.  0.
          6    2    1    2  501    0 -0.15604080953E+03  0.50856906528E+01 -0.11471262968E+03  0.25911988426E+03  0.17207419482E+03 0.  0.
         24    2    5    5    0    0 -0.14997456736E+03  0.83767845244E+01 -0.27753175505E+02  0.17176046998E+03  0.78542211089E+02 0.  0.
          5    1    5    5  501    0 -0.60662421726E+01 -0.32910938716E+01 -0.86959454175E+02  0.87359414280E+02  0.47000000000E+01 0. -1.
        -13    1    6    6    0    0 -0.74476053260E+02 -0.34945080508E+02 -0.17567418809E+02  0.84121670005E+02  0.00000000000E+00 0.  1.
         14    1    6    6    0    0 -0.75498514102E+02  0.43321865032E+02 -0.10185756696E+02  0.87638799975E+02  0.00000000000E+00 0. -1.
         -5    1    3    3    0  503  0.13675467710E+03 -0.40201724508E+02 -0.54895310871E+02  0.15281886505E+03  0.47000000000E+01 0.  1.
         13    1    4    4    0    0  0.15570656819E+01  0.82823812058E+01  0.20406717905E+02  0.22078415424E+02  0.00000000000E+00 0. -1.
        -14    1    4    4    0    0  0.17729066757E+02  0.26833652649E+02 -0.72008430148E+02  0.78864305835E+02  0.00000000000E+00 0.  1.
</event>
<event>
12    1  0.8406581E-002  0.1953568E+03  0.7818608E-02  0.1154628E+00
         21   -1    0    0  503  502  0.00000000000E+00  0.00000000000E+00  0.17829016291E+03  0.17829016291E+03  0.00000000000E+00 0.  1.
         21   -1    0    0  501  503 -0.00000000000E+00 -0.00000000000E+00 -0.36443134516E+03  0.36443134516E+03  0.00000000000E+00 0. -1.
          6    2    1    2  501    0  0.87408343615E+02  0.37183539009E+02 -0.26940112095E+03  0.33036218441E+03  0.16594991657E+03 0.  0.
         24    2    3    3    0    0  0.72279698266E+02  0.79864737881E+02 -0.14703645957E+03  0.19980276880E+03  0.81845554802E+02 0.  0.
         -6    2    1    2    0  502 -0.87408343615E+02 -0.37183539009E+02  0.83259938701E+02  0.21235932366E+03  0.17070861386E+03 0.  0.
        -24    2    5    5    0    0 -0.12533735185E+03 -0.16564565162E+02  0.52168484188E+02  0.15895033292E+03  0.80992721933E+02 0.  0.
          5    1    3    3  501    0  0.15128645349E+02 -0.42681198872E+02 -0.12236466139E+03  0.13055941561E+03  0.47000000000E+01 0.  1.
        -13    1    4    4    0    0 -0.35602502953E+01  0.11692654447E+02  0.77289189183E+01  0.14461318675E+02  0.00000000000E+00 0.  1.
         14    1    4    4    0    0  0.75839948562E+02  0.68172083434E+02 -0.15476537849E+03  0.18534145013E+03  0.00000000000E+00 0. -1.
         -5    1    5    5    0  502  0.37929008232E+02 -0.20618973847E+02  0.31091454512E+02  0.53408990738E+02  0.47000000000E+01 0.  1.
         11    1    6    6    0    0 -0.72799738555E+02 -0.21519988949E+02 -0.10926604573E+02  0.76696170345E+02  0.00000000000E+00 0. -1.
        -12    1    6    6    0    0 -0.52537613292E+02  0.49554237873E+01  0.63095088761E+02  0.82254162576E+02  0.00000000000E+00 0.  1.
</event>
<event>
12    1  0.8406581E-002  0.1802380E+03  0.7818608E-02  0.1167629E+00
         21   -1    0    0  503  502  0.00000000000E+00  0.00000000000E+00  0.10523827656E+04  0.10523827656E+04  0.00000000000E+00 0. -1.
         21   -1    0    0  501  503 -0.00000000000E+00 -0.00000000000E+00 -0.46234990050E+02  0.46234990050E+02  0.00000000000E+00 0. -1.
          6    2    1    2  501    0  0.48407299273E+02 -0.11315838114E+02  0.18577617160E+03  0.25868006633E+03  0.17300657782E+03 0.  0.
         24    2    3    3    0    0  0.29316304445E+02 -0.90863383647E+01  0.20910175624E+03  0.22809232939E+03  0.85793700300E+02 0.  0.
         -6    2    1    2    0  502 -0.48407299273E+02  0.11315838114E+02  0.82037160393E+03  0.83993768930E+03  0.17324675624E+03 0.  0.
        -24    2    5    5    0    0 -0.62978042730E+02  0.60210626037E+02  0.68769920722E+03  0.69771581439E+03  0.79281805564E+02 0.  0.
          5    1    3    3  501    0  0.19090994829E+02 -0.22294997493E+01 -0.23325584642E+02  0.30587736948E+02  0.47000000000E+01 0. -1.
        -13    1    4    4    0    0 -0.60366328625E+01  0.33912268290E+02  0.96914468379E+02  0.10285376541E+03  0.00000000000E+00 0.  1.
         14    1    4    4    0    0  0.35352937307E+02 -0.42998606654E+02  0.11218728786E+03  0.12523856398E+03  0.00000000000E+00 0. -1.
         -5    1    5    5    0  502  0.14570743457E+02 -0.48894787923E+02  0.13267239671E+03  0.14222187490E+03  0.47000000000E+01 0.  1.
         13    1    6    6    0    0 -0.70761316223E+02  0.54213470828E+02  0.67825311739E+03  0.68408592702E+03  0.00000000000E+00 0. -1.
        -14    1    6    6    0    0  0.77832734930E+01  0.59971552093E+01  0.94460898262E+01  0.13629887376E+02  0.00000000000E+00 0.  1.
</event>
<event>
12    1  0.8406581E-002  0.1995466E+03  0.7818608E-02  0.1153289E+00
         21   -1    0    0  503  502  0.00000000000E+00  0.00000000000E+00  0.68911315127E+02  0.68911315127E+02  0.00000000000E+00 0.  1.
         21   -1    0    0  501  503 -0.00000000000E+00 -0.00000000000E+00 -0.70035255995E+03  0.70035255995E+03  0.00000000000E+00 0.  1.
          6    2    1    2  501    0  0.81592958174E+02 -0.60730152944E+02 -0.51047461855E+03  0.54809048148E+03  0.17167783027E+03 0.  0.
         24    2    3    3    0    0  0.49084936702E+02  0.11959883404E+02 -0.40428751314E+03  0.41528082747E+03  0.80357965120E+02 0.  0.
         -6    2    1    2    0  502 -0.81592958174E+02  0.60730152944E+02 -0.12096662628E+03  0.22117339360E+03  0.15472292352E+03 0.  0.
        -24    2    5    5    0    0 -0.10232298854E+02  0.76331553240E+02 -0.57812619463E+02  0.12449730573E+03  0.78905476388E+02 0.  0.
          5    1    3    3  501    0  0.32508021472E+02 -0.72690036348E+02 -0.10618710541E+03  0.13280965401E+03  0.47000000000E+01 0. -1.
        -13    1    4    4    0    0  0.52939789137E+02 -0.23390019845E+02 -0.28447181194E+03  0.29029971769E+03  0.00000000000E+00 0.  1.
         14    1    4    4    0    0 -0.38548524347E+01  0.35349903249E+02 -0.11981570120E+03  0.12498110978E+03  0.00000000000E+00 0. -1.
         -5    1    5    5    0  502 -0.71360659320E+02 -0.15601400297E+02 -0.63154006816E+02  0.96676087874E+02  0.47000000000E+01 0.  1.
         13    1    6    6    0    0 -0.46409257048E+01 -0.16371603477E+02 -0.53802507340E+01  0.17846979850E+02  0.00000000000E+00 0. -1.
        -14    1    6    6    0    0 -0.55913731493E+01  0.92703156717E+02 -0.52432368729E+02  0.10665032588E+03  0.00000000000E+00 0.  1.
</event>
<event>
12    1  0.8406581E-002  0.2041101E+03  0.7818608E-02  0.1146335E+00
         21   -1    0    0  503  502  0.00000000000E+00  0.00000000000E+00  0.77935284688E+02  0.77935284688E+02  0.00000000000E+00 0.  1.
         21   -1    0    0  501  503 -0.00000000000E+00 -0.00000000000E+00 -0.54417530595E+03  0.54417530595E+03  0.00000000000E+00 0.  1.
          6    2    1    2  501    0  0.95120438837E+02 -0.55207800137E+02 -0.19132062424E+03  0.27975798542E+03  0.17194519495E+03 0.  0.
         24    2    3    3    0    0  0.19937615356E+02  0.30718857501E+02 -0.10488931434E+03  0.13648095038E+03  0.79272472155E+02 0.  0.
         -6    2    1    2    0  502 -0.95120438837E+02  0.55207800137E+02 -0.27491939702E+03  0.34235260522E+03  0.17183955412E+03 0.  0.
        -24    2    5    5    0    0  0.14910740229E+02  0.76814402053E+01 -0.87457027464E+02  0.11979958849E+03  0.80136602445E+02 0.  0.
          5    1    3    3  501    0  0.75182823482E+02 -0.85926657637E+02 -0.86431309903E+02  0.14327703504E+03  0.47000000000E+01 0. -1.
        -11    1    4    4    0    0  0.93767566616E+01 -0.26748504573E+02 -0.41660092837E+02  0.50388187084E+02  0.00000000000E+00 0.  1.
         12    1    4    4    0    0  0.10560858694E+02  0.57467362073E+02 -0.63229221500E+02  0.86092763293E+02  0.00000000000E+00 0. -1.
         -5    1    5    5    0  502 -0.11003117907E+03  0.47526359932E+02 -0.18746236956E+03  0.22255301673E+03  0.47000000000E+01 0.  1.
         13    1    6    6    0    0  0.36930633108E+02  0.20063755251E+02 -0.17690730959E+02  0.45600305902E+02  0.00000000000E+00 0. -1.
        -14    1    6    6    0    0 -0.22019892879E+02 -0.12382315045E+02 -0.69766296505E+02  0.74199282586E+02  0.00000000000E+00 0.  1.
</event>
<event>
12    1  0.8406581E-002  0.2185664E+03  0.7818608E-02  0.1135140E+00
         21   -1    0    0  503  502  0.00000000000E+00  0.00000000000E+00  0.11694213815E+03  0.11694213815E+03  0.00000000000E+00 0.  1.
         21   -1    0    0  501  503 -0.00000000000E+00 -0.00000000000E+00 -0.47078850560E+03  0.47078850560E+03  0.00000000000E+00 0.  1.
          6    2    1    2  501    0 -0.40908505020E+02  0.12828483022E+03 -0.28570484332E+03  0.35972009823E+03  0.17216500261E+03 0.  0.
         24    2    3    3    0    0 -0.12391977257E+01  0.17997130416E+02 -0.19065795036E+03  0.20874648288E+03  0.83061469809E+02 0.  0.
         -6    2    1    2    0  502  0.40908505020E+02 -0.12828483022E+03 -0.68141524131E+02  0.22801054552E+03  0.17092407118E+03 0.  0.
        -24    2    5    5    0    0 -0.41366786207E+02 -0.86409618756E+02 -0.43636361280E+02  0.13237922278E+03  0.80263898388E+02 0.  0.
          5    1    3    3  501    0 -0.39669307294E+02  0.11028769980E+03 -0.95046892964E+02  0.15097361535E+03  0.47000000000E+01 0. -1.
        -13    1    4    4    0    0 -0.30056416240E+02 -0.20756926700E+02 -0.88820717590E+02  0.96038315460E+02  0.00000000000E+00 0.  1.
         14    1    4    4    0    0  0.28817218514E+02  0.38754057116E+02 -0.10183723277E+03  0.11270816742E+03  0.00000000000E+00 0. -1.
         -5    1    5    5    0  502  0.82275291227E+02 -0.41875211463E+02 -0.24505162851E+02  0.95631322734E+02  0.47000000000E+01 0.  1.
         11    1    6    6    0    0  0.57953933617E+01  0.11971338323E+02 -0.14029723549E+02  0.19332166674E+02  0.00000000000E+00 0. -1.
        -12    1    6    6    0    0 -0.47162179569E+02 -0.98380957078E+02 -0.29606637731E+02  0.11304705611E+03  0.00000000000E+00 0.  1.
</event>
<event>
12    1  0.8406581E-002  0.2652695E+03  0.7818608E-02  0.1104265E+00
         21   -1    0    0  503  502  0.00000000000E+00  0.00000000000E+00  0.13302394564E+03  0.13302394564E+03  0.00000000000E+00 0. -1.
         21   -1    0    0  501  503 -0.00000000000E+00 -0.00000000000E+00 -0.53907712244E+03  0.53907712244E+03  0.00000000000E+00 0.  1.
          6    2    1    2  501    0 -0.19035747478E+03 -0.63977873117E+02 -0.25546337852E+03  0.36706794580E+03  0.17072844701E+03 0.  0.
         24    2    3    3    0    0 -0.14388252899E+03 -0.10814482323E+03 -0.17439074073E+03  0.26360054675E+03  0.81704546112E+02 0.  0.
         -6    2    1    2    0  502  0.19035747478E+03  0.63977873117E+02 -0.15058979828E+03  0.30503312228E+03  0.17331699826E+03 0.  0.
        -24    2    5    5    0    0  0.53419856757E+02 -0.25924296791E+02 -0.76469432260E+02  0.12517142529E+03  0.79338271845E+02 0.  0.
          5    1    3    3  501    0 -0.46474945791E+02  0.44166950112E+02 -0.81072637786E+02  0.10346739905E+03  0.47000000000E+01 0. -1.
        -13    1    4    4    0    0 -0.93894825530E+02 -0.20670467694E+02 -0.96836777967E+02  0.13645830155E+03  0.00000000000E+00 0.  1.
         14    1    4    4    0    0 -0.49987703457E+02 -0.87474355534E+02 -0.77553962764E+02  0.12714224520E+03  0.00000000000E+00 0. -1.
         -5    1    5    5    0  502  0.13693761802E+03  0.89902169908E+02 -0.74120366022E+02  0.17986169699E+03  0.47000000000E+01 0.  1.
         13    1    6    6    0    0 -0.12778149618E+02 -0.23842287716E+02 -0.46007994693E+01  0.27439080651E+02  0.00000000000E+00 0. -1.
        -14    1    6    6    0    0  0.66198006375E+02 -0.20820090746E+01 -0.71868632791E+02  0.97732344641E+02  0.00000000000E+00 0.  1.
</event>
<event>
12    1  0.8406581E-002  0.2279843E+03  0.7818608E-02  0.1129579E+00
         21   -1    0    0  503  502  0.00000000000E+00  0.00000000000E+00  0.18182004305E+03  0.18182004305E+03  0.00000000000E+00 0. -1.
         21   -1    0    0  501  503 -0.00000000000E+00 -0.00000000000E+00 -0.30555324955E+03  0.30555324955E+03  0.00000000000E+00 0.  1.
          6    2    1    2  501    0  0.23720069428E+02  0.14693375963E+03 -0.13721481611E+03  0.25899068683E+03  0.16154286952E+03 0.  0.
         24    2    3    3    0    0  0.43632951751E+02  0.97921098282E+02 -0.26756888712E+02  0.13642720296E+03  0.80025462485E+02 0.  0.
         -6    2    1    2    0  502 -0.23720069428E+02 -0.14693375963E+03  0.13481609605E+02  0.22838260578E+03  0.17269826117E+03 0.  0.
        -24    2    5    5    0    0 -0.58920735412E+01 -0.13602087055E+03  0.73156540353E+02  0.16497822150E+03  0.57702169952E+02 0.  0.
          5    1    3    3  501    0 -0.19912882322E+02  0.49012661345E+02 -0.11045792740E+03  0.12256348387E+03  0.47000000000E+01 0. -1.
        -13    1    4    4    0    0  0.38899495120E+02  0.21723195921E+02 -0.38871134929E+02  0.59127261837E+02  0.00000000000E+00 0.  1.
         14    1    4    4    0    0  0.47334566308E+01  0.76197902361E+02  0.12114246217E+02  0.77299941121E+02  0.00000000000E+00 0. -1.
         -5    1    5    5    0  502 -0.17827995887E+02 -0.10912889074E+02 -0.59674930748E+02  0.63404384274E+02  0.47000000000E+01 0.  1.
         13    1    6    6    0    0  0.59304166167E+01 -0.20223486331E+02  0.37884634987E+02  0.43352102702E+02  0.00000000000E+00 0. -1.
        -14    1    6    6    0    0 -0.11822490158E+02 -0.11579738422E+03  0.35271905366E+02  0.12162611880E+03  0.00000000000E+00 0.  1.
</event>
<event>
12    1  0.8406581E-002  0.1859648E+03  0.7818608E-02  0.1162759E+00
         21   -1    0    0  501  502  0.00000000000E+00  0.00000000000E+00  0.18769567958E+03  0.18769567958E+03  0.00000000000E+00 0.  1.
         21   -1    0    0  502  503 -0.00000000000E+00 -0.00000000000E+00 -0.27580019611E+03  0.27580019611E+03  0.00000000000E+00 0.  1.
         -6    2    1    2    0  503 -0.55691049324E+02  0.35911567874E+02 -0.17963333605E+03  0.25855565420E+03  0.17375775441E+03 0.  0.
        -24    2    3    3    0    0 -0.14014001168E+02  0.48020845431E+02 -0.19078210585E+03  0.21350017713E+03  0.81744234644E+02 0.  0.
          6    2    1    2  501    0  0.55691049324E+02 -0.35911567874E+02  0.91528819530E+02  0.20494022149E+03  0.17097320227E+03 0.  0.
         24    2    5    5    0    0 -0.20275700778E+02  0.11786757405E+02  0.75431721752E+02  0.11368626863E+03  0.81759350141E+02 0.  0.
          5    1    5    5  501    0  0.75966750102E+02 -0.47698325279E+02  0.16097097778E+02  0.91253952859E+02  0.47000000000E+01 0. -1.
        -11    1    6    6    0    0  0.31641440341E+02  0.89299379180E+01  0.25620482883E+02  0.41681334926E+02  0.00000000000E+00 0.  1.
         12    1    6    6    0    0 -0.51917141119E+02  0.28568194871E+01  0.49811238869E+02  0.72004933700E+02  0.00000000000E+00 0. -1.
         -5    1    3    3    0  503 -0.41677048155E+02 -0.12109277557E+02  0.11148769798E+02  0.45055477069E+02  0.47000000000E+01 0.  1.
         13    1    4    4    0    0 -0.41324032883E+01  0.15004166465E+02  0.36929609023E+01  0.15994990730E+02  0.00000000000E+00 0. -1.
        -14    1    4    4    0    0 -0.98815978802E+01  0.33016678967E+02 -0.19447506676E+03  0.19750518640E+03  0.00000000000E+00 0.  1.
</event>
<event>
12    1  0.8406581E-002  0.2089710E+03  0.7818608E-02  0.1143195E+00
         21   -1    0    0  501  502  0.00000000000E+00  0.00000000000E+00  0.77913428764E+03  0.77913428764E+03  0.00000000000E+00 0.  1.
         21   -1    0    0  502  503 -0.00000000000E+00 -0.00000000000E+00 -0.58130020879E+02  0.58130020879E+02  0.00000000000E+00 0. -1.
         -6    2    1    2    0  503  0.45715677008E+02 -0.11122025051E+03  0.46138875348E+03  0.50650612278E+03  0.17090641686E+03 0.  0.
        -24    2    3    3    0    0  0.24745607629E+02 -0.13025887868E+03  0.27098964327E+03  0.31395450803E+03  0.86904118316E+02 0.  0.
          6    2    1    2  501    0 -0.45715677008E+02  0.11122025051E+03  0.25961551328E+03  0.33075818574E+03  0.16595449814E+03 0.  0.
         24    2    5    5    0    0  0.45843370540E+02  0.30926009119E+02  0.64060845466E+02  0.10033695735E+03  0.53904363708E+02 0.  0.
          5    1    5    5  501    0 -0.91559047548E+02  0.80294241389E+02  0.19555466782E+03  0.23042122839E+03  0.47000000000E+01 0. -1.
        -11    1    6    6    0    0  0.27849189816E+02 -0.11749451953E+02  0.18896773881E+02  0.35647090452E+02  0.00000000000E+00 0.  1.
         12    1    6    6    0    0  0.17994180724E+02  0.42675461072E+02  0.45164071585E+02  0.64689866902E+02  0.00000000000E+00 0. -1.
         -5    1    3    3    0  503  0.20970069379E+02  0.19038628174E+02  0.19039911021E+03  0.19255161475E+03  0.47000000000E+01 0.  1.
         11    1    4    4    0    0  0.18858441179E+02 -0.40686660208E+02  0.23375122601E+02  0.50571152638E+02  0.00000000000E+00 0. -1.
        -12    1    4    4    0    0  0.58871664500E+01 -0.89572218474E+02  0.24761452067E+03  0.26338335539E+03  0.00000000000E+00 0.  1.
</event>
<event>
12    1  0.8406581E-002  0.1734690E+03  0.7818608E-02  0.1175539E+00
         21   -1    0    0  501  502  0.00000000000E+00  0.00000000000E+00  0.15195864961E+03  0.15195864961E+03  0.00000000000E+00 0.  1.
         21   -1    0    0  502  503 -0.00000000000E+00 -0.00000000000E+00 -0.19779603130E+03  0.19779603130E+03  0.00000000000E+00 0.  1.
         -6    2    1    2    0  503 -0.10325659865E+02  0.70144782768E+01 -0.51267717199E+02  0.17620069095E+03  0.16811449226E+03 0.  0.
        -24    2    3    3    0    0 -0.53062528864E+02  0.83358639317E+01  0.14861836009E+02  0.97312201047E+02  0.79772625043E+02 0.  0.
          6    2    1    2  501    0  0.10325659865E+02 -0.70144782768E+01  0.54303355000E+01  0.17355398996E+03  0.17301929583E+03 0.  0.
         24    2    5    5    0    0  0.60670426459E+02  0.22573461730E+01 -0.36372712017E+02  0.10729580530E+03  0.80643780900E+02 0.  0.
          5    1    5    5  501    0 -0.50344766594E+02 -0.92718244498E+01  0.41803047517E+02  0.66258184655E+02  0.47000000000E+01 0. -1.
        -11    1    6    6    0    0 -0.16627872694E+02  0.26783467015E+01  0.74745626195E+01  0.18426306676E+02  0.00000000000E+00 0.  1.
         12    1    6    6    0    0  0.77298299152E+02 -0.42100052850E+00 -0.43847274636E+02  0.88869498628E+02  0.00000000000E+00 0. -1.
         -5    1    3    3    0  503  0.42736868999E+02 -0.13213856548E+01 -0.66129553208E+02  0.78888489905E+02  0.47000000000E+01 0.  1.
         13    1    4    4    0    0 -0.79447581884E+01 -0.20709044580E+02 -0.22758693271E+02  0.31779581959E+02  0.00000000000E+00 0. -1.
        -14    1    4    4    0    0 -0.45117770676E+02  0.29044908512E+02  0.37620529281E+02  0.65532619088E+02  0.00000000000E+00 0.  1.
</event>
<event>
12    1  0.8406581E-002  0.1960355E+03  0.7818608E-02  0.1153285E+00
         21   -1    0    0  503  502  0.00000000000E+00  0.00000000000E+00  0.10108430074E+03  0.10108430074E+03  0.00000000000E+00 0. -1.
         21   -1    0    0  501  503 -0.00000000000E+00 -0.00000000000E+00 -0.38436400260E+03  0.38436400260E+03  0.00000000000E+00 0. -1.
          6    2    1    2  501    0 -0.71829136381E+02  0.58600716427E+02 -0.17066635294E+03  0.25936940382E+03  0.17190699465E+03 0.  0.
         24    2    3    3    0    0 -0.88115464189E+02 -0.11488637750E+02 -0.12815497089E+03  0.17566116261E+03  0.80850625592E+02 0.  0.
         -6    2    1    2    0  502  0.71829136381E+02 -0.58600716427E+02 -0.11261334891E+03  0.22607889952E+03  0.17273226003E+03 0.  0.
        -24    2    5    5    0    0  0.51034922509E+02  0.61245337359E+01 -0.60914933370E+01  0.99624350153E+02  0.85122450760E+02 0.  0.
          5    1    3    3  501    0  0.16286327808E+02  0.70089354177E+02 -0.42511382057E+02  0.83708241212E+02  0.47000000000E+01 0. -1.
        -13    1    4    4    0    0  0.32435016411E+01 -0.77874768722E-01 -0.62491204347E+02  0.62575370459E+02  0.00000000000E+00 0.  1.
         14    1    4    4    0    0 -0.91358965830E+02 -0.11410762981E+02 -0.65663766540E+02  0.11308579215E+03  0.00000000000E+00 0. -1.
         -5    1    5    5    0  502  0.20794213872E+02 -0.64725250163E+02 -0.10652185558E+03  0.12645454936E+03  0.47000000000E+01 0.  1.
         11    1    6    6    0    0  0.44331287711E+02 -0.26838097711E+02 -0.28561870737E+02  0.59172012125E+02  0.00000000000E+00 0. -1.
        -12    1    6    6    0    0  0.67036347976E+01  0.32962631447E+02  0.22470377400E+02  0.40452338028E+02  0.00000000000E+00 0.  1.
</event>
<event>
12    1  0.8406581E-002  0.2275631E+03  0.7818608E-02  0.1128381E+00
         21   -1    0    0  503  502  0.00000000000E+00  0.00000000000E+00  0.68635952463E+02  0.68635952463E+02  0.00000000000E+00 0. -1.
         21   -1    0    0  501  503 -0.00000000000E+00 -0.00000000000E+00 -0.11088686670E+04  0.11088686670E+04  0.00000000000E+00 0.  1.
          6    2    1    2  501    0 -0.10026476288E+03 -0.11039276788E+03 -0.85301367539E+03  0.88282528022E+03  0.17178055512E+03 0.  0.
         24    2    3    3    0    0 -0.11131113966E+03 -0.78729547810E+02 -0.42974447206E+03  0.45820369524E+03  0.81742299645E+02 0.  0.
         -6    2    1    2    0  502  0.10026476288E+03  0.11039276788E+03 -0.18721903919E+03  0.29467933929E+03  0.17188763333E+03 0.  0.
        -24    2    5    5    0    0  0.13295191115E+03  0.59187807219E+02 -0.15185028951E+03  0.22422768130E+03  0.77718308244E+02 0.  0.
          5    1    3    3  501    0  0.11046376787E+02 -0.31663220075E+02 -0.42326920333E+03  0.42462158498E+03  0.47000000000E+01 0. -1.
        -11    1    4    4    0    0 -0.71682240090E+02 -0.24430093485E+02 -0.32527893484E+03  0.33397838023E+03  0.00000000000E+00 0.  1.
         12    1    4    4    0    0 -0.39628899575E+02 -0.54299454324E+02 -0.10446553722E+03  0.12422531501E+03  0.00000000000E+00 0. -1.
         -5    1    5    5    0  502 -0.32687148271E+02  0.51204960665E+02 -0.35368749683E+02  0.70451657986E+02  0.47000000000E+01 0.  1.
         11    1    6    6    0    0  0.48779350678E+02  0.60651242943E+01 -0.10129218038E+03  0.11258914953E+03  0.00000000000E+00 0. -1.
        -12    1    6    6    0    0  0.84172560471E+02  0.53122682925E+02 -0.50558109123E+02  0.11163853177E+03  0.00000000000E+00 0.  1.
</event>
<event>
12    1  0.8406581E-002  0.3567905E+03  0.7818608E-02  0.1060065E+00
         21   -1    0    0  503  502  0.00000000000E+00  0.00000000000E+00  0.43767180326E+03  0.43767180326E+03  0.00000000000E+00 0.  1.
         21   -1    0    0  501  503 -0.00000000000E+00 -0.00000000000E+00 -0.44556724456E+03  0.44556724456E+03  0.00000000000E+00 0. -1.
          6    2    1    2  501    0 -0.16562112995E+03 -0.26313416650E+03 -0.26556111118E+03  0.44477202105E+03  0.17501285288E+03 0.  0.
         24    2    3    3    0    0 -0.69189793548E+02 -0.11218958958E+03 -0.20399403676E+03  0.25530998634E+03  0.78713979404E+02 0.  0.
         -6    2    1    2    0  502  0.16562112995E+03  0.26313416650E+03  0.25766566988E+03  0.43846702678E+03  0.17085604429E+03 0.  0.
        -24    2    5    5    0    0  0.10148256939E+03  0.12437661233E+03  0.60735191829E+02  0.18912566042E+03  0.79444938908E+02 0.  0.
          5    1    3    3  501    0 -0.96431336399E+02 -0.15094457692E+03 -0.61567074423E+02  0.18946203471E+03  0.47000000000E+01 0. -1.
        -11    1    4    4    0    0 -0.48223327277E+02 -0.22766445298E+02 -0.37602304958E+02  0.65251311583E+02  0.00000000000E+00 0.  1.
         12    1    4    4    0    0 -0.20966466271E+02 -0.89423144278E+02 -0.16639173180E+03  0.19005867476E+03  0.00000000000E+00 0. -1.
         -5    1    5    5    0  502  0.64138560554E+02  0.13875755417E+03  0.19693047806E+03  0.24934136635E+03  0.47000000000E+01 0.  1.
         11    1    6    6    0    0  0.19553222159E+01 -0.85970613495E+01 -0.54099418983E+01  0.10344091075E+02  0.00000000000E+00 0. -1.
        -12    1    6    6    0    0  0.99527247177E+02  0.13297367368E+03  0.66145133727E+02  0.17878156935E+03  0.00000000000E+00 0.  1.
</event>
<event>
12    1  0.8406581E-002  0.2153621E+03  0.7818608E-02  0.1137444E+00
         21   -1    0    0  501  502  0.00000000000E+00  0.00000000000E+00  0.35310711676E+03  0.35310711676E+03  0.00000000000E+00 0.  1.
         21   -1    0    0  502  503 -0.00000000000E+00 -0.00000000000E+00 -0.14343077593E+03  0.14343077593E+03  0.00000000000E+00 0. -1.
         -6    2    1    2    0  503 -0.49981109020E+02  0.12013761827E+03  0.32330014967E+02  0.21777523082E+03  0.17160904029E+03 0.  0.
        -24    2    3    3    0    0 -0.27737767680E+02  0.14929901283E+03  0.54930153228E+01  0.17208641691E+03  0.80771174813E+02 0.  0.
          6    2    1    2  501    0  0.49981109020E+02 -0.12013761827E+03  0.17734632586E+03  0.27876266187E+03  0.17124760955E+03 0.  0.
         24    2    5    5    0    0 -0.21125537809E+02 -0.11486942892E+03  0.99355009032E+02  0.17298627253E+03  0.80072208749E+02 0.  0.
          5    1    5    5  501    0  0.71106646829E+02 -0.52681893466E+01  0.77991316829E+02  0.10577638935E+03  0.47000000000E+01 0. -1.
        -13    1    6    6    0    0  0.11858133591E+02 -0.23901717604E+02  0.65071929603E+02  0.70329676943E+02  0.00000000000E+00 0.  1.
         14    1    6    6    0    0 -0.32983671400E+02 -0.90967711319E+02  0.34283079430E+02  0.10265659558E+03  0.00000000000E+00 0. -1.
         -5    1    3    3    0  503 -0.22243341340E+02 -0.29161394560E+02  0.26836999644E+02  0.45688813911E+02  0.47000000000E+01 0.  1.
         13    1    4    4    0    0 -0.41610898340E+02  0.12076058553E+03 -0.22591844214E+02  0.12971113022E+03  0.00000000000E+00 0. -1.
        -14    1    4    4    0    0  0.13873130659E+02  0.28538427303E+02  0.28084859537E+02  0.42375286694E+02  0.00000000000E+00 0.  1.
</event>
<event>
12    1  0.8406581E-002  0.2903636E+03  0.7818608E-02  0.1090203E+00
         21   -1    0    0  503  502  0.00000000000E+00  0.00000000000E+00  0.25134426470E+03  0.25134426470E+03  0.00000000000E+00 0. -1.
         21   -1    0    0  501  503 -0.00000000000E+00 -0.00000000000E+00 -0.35890007046E+03  0.35890007046E+03  0.00000000000E+00 0. -1.
          6    2    1    2  501    0  0.46703201814E+02  0.22923230216E+03  0.24902561385E+02  0.29109506218E+03  0.17142800311E+03 0.  0.
         24    2    3    3    0    0  0.56664616649E+02  0.61185030977E+02  0.44966244805E+02  0.12149625166E+03  0.76058459094E+02 0.  0.
         -6    2    1    2    0  502 -0.46703201814E+02 -0.22923230216E+03 -0.13245836714E+03  0.31914927297E+03  0.17199535458E+03 0.  0.
        -24    2    5    5    0    0 -0.34238468665E+02 -0.23496236985E+03 -0.15314306314E+03  0.29388764403E+03  0.80855188727E+02 0.  0.
          5    1    3    3  501    0 -0.99614148348E+01  0.16804727119E+03 -0.20063683420E+02  0.16959881052E+03  0.47000000000E+01 0. -1.
        -11    1    4    4    0    0  0.18273292396E+02 -0.74990034829E+01  0.37592895617E+02  0.42466152040E+02  0.00000000000E+00 0.  1.
         12    1    4    4    0    0  0.38391324253E+02  0.68684034460E+02  0.73733491882E+01  0.79030099619E+02  0.00000000000E+00 0. -1.
         -5    1    5    5    0  502 -0.12464733149E+02  0.57300676830E+01  0.20684696000E+02  0.25261628941E+02  0.47000000000E+01 0.  1.
         13    1    6    6    0    0 -0.49909458925E+02 -0.14060742283E+03 -0.61363426801E+02  0.16132845872E+03  0.00000000000E+00 0. -1.
        -14    1    6    6    0    0  0.15670990260E+02 -0.94354947018E+02 -0.91779636343E+02  0.13255918531E+03  0.00000000000E+00 0.  1.
</event>
<event>
12    1  0.8406581E-002  0.1788102E+03  0.7818608E-02  0.1169284E+00
         21   -1    0    0  501  502  0.00000000000E+00  0.00000000000E+00  0.90385699408E+03  0.90385699408E+03  0.00000000000E+00 0.  1.
         21   -1    0    0  502  503 -0.00000000000E+00 -0.00000000000E+00 -0.35626811877E+02  0.35626811877E+02  0.00000000000E+00 0.  1.
         -6    2    1    2    0  503  0.47748484073E+02  0.15435595356E+02  0.37610565750E+03  0.41588124128E+03  0.17024560467E+03 0.  0.
        -24    2    3    3    0    0  0.89260476895E+02 -0.18158072317E+02  0.23407192783E+03  0.26406737360E+03  0.81515410051E+02 0.  0.
          6    2    1    2  501    0 -0.47748484073E+02 -0.15435595356E+02  0.49212452470E+03  0.52360256468E+03  0.17162436478E+03 0.  0.
         24    2    5    5    0    0  0.75171348017E+01 -0.39194748108E+02  0.42111436221E+03  0.43041823581E+03  0.79560141175E+02 0.  0.
          5    1    5    5  501    0 -0.55265618875E+02  0.23759152752E+02  0.71010162492E+02  0.93184328867E+02  0.47000000000E+01 0. -1.
        -11    1    6    6    0    0 -0.27777654836E+02 -0.12493453195E+02  0.67605080096E+02  0.74149385269E+02  0.00000000000E+00 0.  1.
         12    1    6    6    0    0  0.35294789638E+02 -0.26701294913E+02  0.35350928211E+03  0.35626885054E+03  0.00000000000E+00 0. -1.
         -5    1    3    3    0  503 -0.41511992821E+02  0.33593667673E+02  0.14203372968E+03  0.15181386768E+03  0.47000000000E+01 0.  1.
         11    1    4    4    0    0 -0.15667912118E+02 -0.22833817121E+01  0.36821727162E+02  0.40081627878E+02  0.00000000000E+00 0. -1.
        -12    1    4    4    0    0  0.10492838901E+03 -0.15874690605E+02  0.19725020066E+03  0.22398574572E+03  0.00000000000E+00 0.  1.
</event>
<event>
12    1  0.8406581E-002  0.2231325E+03  0.7818608E-02  0.1133169E+00
         21   -1    0    0  503  502  0.00000000000E+00  0.00000000000E+00  0.44511822134E+02  0.44511822134E+02  0.00000000000E+00 0. -1.
         21   -1    0    0  501  503 -0.00000000000E+00 -0.00000000000E+00 -0.10806512555E+04  0.10806512555E+04  0.00000000000E+00 0. -1.
          6    2    1    2  501    0 -0.96541404870E+02 -0.10449817519E+03 -0.56494648409E+03  0.60741471582E+03  0.17189530426E+03 0.  0.
         24    2    3    3    0    0 -0.72304034429E+02 -0.80891764356E+02 -0.20050225208E+03  0.24137318674E+03  0.79300134009E+02 0.  0.
         -6    2    1    2    0  502  0.96541404870E+02  0.10449817519E+03 -0.47119294924E+03  0.51774836179E+03  0.16062521361E+03 0.  0.
        -24    2    5    5    0    0  0.64605614545E+02  0.17719347512E+02 -0.14456000242E+03  0.17824632706E+03  0.79914317257E+02 0.  0.
          5    1    3    3  501    0 -0.24237370441E+02 -0.23606410834E+02 -0.36444423201E+03  0.36604152907E+03  0.47000000000E+01 0. -1.
        -11    1    4    4    0    0 -0.18645340407E+01 -0.49071185686E+02 -0.40399420983E+02  0.63589078996E+02  0.00000000000E+00 0.  1.
         12    1    4    4    0    0 -0.70439500388E+02 -0.31820578670E+02 -0.16010283110E+03  0.17778410775E+03  0.00000000000E+00 0. -1.
         -5    1    5    5    0  502  0.31935790325E+02  0.86778827677E+02 -0.32663294682E+03  0.33950203473E+03  0.47000000000E+01 0.  1.
         13    1    6    6    0    0  0.46482785238E+02  0.26557883102E+02 -0.14836422658E+03  0.15772734134E+03  0.00000000000E+00 0. -1.
        -14    1    6    6    0    0  0.18122829306E+02 -0.88385355898E+01  0.38042241563E+01  0.20518985717E+02  0.00000000000E+00 0.  1.
</event>
<event>
12    1  0.8406581E-002  0.2714920E+03  0.7818608E-02  0.1100846E+00
         21   -1    0    0  501  502  0.00000000000E+00  0.00000000000E+00  0.12041891486E+03  0.12041891486E+03  0.00000000000E+00 0.  1.
         21   -1    0    0  502  503 -0.00000000000E+00 -0.00000000000E+00 -0.77334281084E+03  0.77334281084E+03  0.00000000000E+00 0.  1.
         -6    2    1    2    0  503 -0.16097972979E+03 -0.12805882260E+03 -0.53600820603E+03  0.60084334063E+03  0.17718461446E+03 0.  0.
        -24    2    3    3    0    0 -0.33823038209E+02 -0.63332985879E+02 -0.11154113668E+03  0.15301229982E+03  0.76264498360E+02 0.  0.
          6    2    1    2  501    0  0.16097972979E+03  0.12805882260E+03 -0.11691568995E+03  0.29291838507E+03  0.17267995341E+03 0.  0.
         24    2    5    5    0    0  0.21781790324E+02  0.94576735316E+02 -0.55637755486E+02  0.13711661431E+03  0.79285565097E+02 0.  0.
          5    1    5    5  501    0  0.13919793946E+03  0.33482087286E+02 -0.61277934461E+02  0.15580177076E+03  0.47000000000E+01 0. -1.
        -11    1    6    6    0    0  0.26004876815E+02  0.10720068357E+03 -0.56184222364E+02  0.12379380849E+03  0.00000000000E+00 0.  1.
         12    1    6    6    0    0 -0.42230864911E+01 -0.12623948257E+02  0.54646687753E+00  0.13322805829E+02  0.00000000000E+00 0. -1.
         -5    1    3    3    0  503 -0.12715669158E+03 -0.64725836724E+02 -0.42446706935E+03  0.44783104081E+03  0.47000000000E+01 0.  1.
         11    1    4    4    0    0 -0.29906464616E+02  0.69690125272E+01 -0.16897232355E+02  0.35049682205E+02  0.00000000000E+00 0. -1.
        -12    1    4    4    0    0 -0.39165735930E+01 -0.70301998406E+02 -0.94643904322E+02  0.11796261761E+03  0.00000000000E+00 0.  1.
</event>
<event>
12    1  0.8406581E-002  0.2355969E+03  0.7818608E-02  0.1122832E+00
         21   -1    0    0  503  502  0.00000000000E+00  0.00000000000E+00  0.13574672857E+03  0.13574672857E+03  0.00000000000E+00 0. -1.
         21   -1    0    0  501  503 -0.00000000000E+00 -0.00000000000E+00 -0.44022252885E+03  0.44022252885E+03  0.00000000000E+00 0. -1.
          6    2    1    2  501    0  0.12244622848E+03  0.10328564842E+03 -0.23006286673E+03  0.32929444511E+03  0.17275677959E+03 0.  0.
         24    2    3    3    0    0  0.87897139147E+02  0.39595355297E+02 -0.22404099536E+03  0.25643536231E+03  0.79189823913E+02 0.  0.
         -6    2    1    2    0  502 -0.12244622848E+03 -0.10328564842E+03 -0.74412933546E+02  0.24667481230E+03  0.17219225972E+03 0.  0.
        -24    2    5    5    0    0 -0.16579843188E+02 -0.29534451581E+02 -0.78840686275E+02  0.11749034898E+03  0.80255549717E+02 0.  0.
          5    1    3    3  501    0  0.34549089332E+02  0.63690293122E+02 -0.60218713744E+01  0.72859082800E+02  0.47000000000E+01 0. -1.
        -13    1    4    4    0    0  0.36072675763E+02 -0.15317311305E+02 -0.33779201344E+02  0.51738693506E+02  0.00000000000E+00 0.  1.
         14    1    4    4    0    0  0.51824463384E+02  0.54912666602E+02 -0.19026179402E+03  0.20469666881E+03  0.00000000000E+00 0. -1.
         -5    1    5    5    0  502 -0.10586638529E+03 -0.73751196838E+02  0.44277527291E+01  0.12918446332E+03  0.47000000000E+01 0.  1.
         13    1    6    6    0    0 -0.37840234520E+01 -0.59447858064E+01  0.16766961582E+02  0.18187641751E+02  0.00000000000E+00 0. -1.
        -14    1    6    6    0    0 -0.12795819736E+02 -0.23589665774E+02 -0.95607647857E+02  0.99302707228E+02  0.00000000000E+00 0.  1.
</event>
<event>
12    1  0.8406581E-002  0.2272242E+03  0.7818608E-02  0.1128648E+00
         21   -1    0    0  501  502  0.00000000000E+00  0.00000000000E+00  0.29745958097E+03  0.29745958097E+03  0.00000000000E+00 0.  1.
         21   -1    0    0  502  503 -0.00000000000E+00 -0.00000000000E+00 -0.24943156043E+03  0.24943156043E+03  0.00000000000E+00 0.  1.
         -6    2    1    2    0  503 -0.10699984353E+03  0.10300198204E+03 -0.12694139851E+03  0.26027860635E+03  0.17196644861E+03 0.  0.
        -24    2    3    3    0    0 -0.12214469831E+03  0.11513020864E+03 -0.14339224033E+03  0.23441007908E+03  0.78819149443E+02 0.  0.
          6    2    1    2  501    0  0.10699984353E+03 -0.10300198204E+03  0.17496941905E+03  0.28661253505E+03  0.17168014685E+03 0.  0.
         24    2    5    5    0    0  0.11241642670E+03 -0.26540380782E+02  0.70651618605E+02  0.15707485971E+03  0.79617934771E+02 0.  0.
          5    1    5    5  501    0 -0.54165831733E+01 -0.76461601260E+02  0.10431780045E+03  0.12953767533E+03  0.47000000000E+01 0. -1.
        -11    1    6    6    0    0  0.82674578164E+02 -0.54205996707E+02  0.57565909853E+02  0.11439934410E+03  0.00000000000E+00 0.  1.
         12    1    6    6    0    0  0.29741848540E+02  0.27665615925E+02  0.13085708752E+02  0.42675515611E+02  0.00000000000E+00 0. -1.
         -5    1    3    3    0  503  0.15144854777E+02 -0.12128226602E+02  0.16450841820E+02  0.25868527274E+02  0.47000000000E+01 0.  1.
         13    1    4    4    0    0 -0.91111799457E+01  0.51718408381E+01 -0.50106063293E+02  0.51189638760E+02  0.00000000000E+00 0. -1.
        -14    1    4    4    0    0 -0.11303351836E+03  0.10995836781E+03 -0.93286177036E+02  0.18322044032E+03  0.00000000000E+00 0.  1.
</event>
<event>
12    1  0.8406581E-002  0.2015119E+03  0.7818608E-02  0.1148896E+00
         21   -1    0    0  501  502  0.00000000000E+00  0.00000000000E+00  0.23935578757E+04  0.23935578757E+04  0.00000000000E+00 0.  1.
         21   -1    0    0  502  503 -0.00000000000E+00 -0.00000000000E+00 -0.17144654957E+02  0.17144654957E+02  0.00000000000E+00 0.  1.
         -6    2    1    2    0  503 -0.55799383560E+02  0.89319027877E+02  0.10218645535E+04  0.10415441398E+04  0.17180095898E+03 0.  0.
        -24    2    3    3    0    0 -0.72388205405E+02  0.62365715409E+02  0.98459327989E+03  0.99242278090E+03  0.79683840951E+02 0.  0.
          6    2    1    2  501    0  0.55799383560E+02 -0.89319027877E+02  0.13545486673E+04  0.13691583909E+04  0.16941412980E+03 0.  0.
         24    2    5    5    0    0  0.85363224392E+02 -0.49342182557E+02  0.12010483333E+04  0.12077377870E+04  0.79949559323E+02 0.  0.
          5    1    5    5  501    0 -0.29563840831E+02 -0.39976845319E+02  0.15350033397E+03  0.16142060394E+03  0.47000000000E+01 0. -1.
        -13    1    6    6    0    0 -0.60953138053E+01 -0.33388418663E+02  0.29546495566E+03  0.29740793428E+03  0.00000000000E+00 0.  1.
         14    1    6    6    0    0  0.91458538197E+02 -0.15953763894E+02  0.90558337767E+03  0.91032985269E+03  0.00000000000E+00 0. -1.
         -5    1    3    3    0  503  0.16588821844E+02  0.26953312467E+02  0.37271273590E+02  0.49121358879E+02  0.47000000000E+01 0.  1.
         13    1    4    4    0    0  0.16106453527E+02  0.93005698144E+01  0.90240819404E+02  0.92137527267E+02  0.00000000000E+00 0. -1.
        -14    1    4    4    0    0 -0.88494658931E+02  0.53065145595E+02  0.89435246049E+03  0.90028525364E+03  0.00000000000E+00 0.  1.
</event>
<event>
12    1  0.8406581E-002  0.1848054E+03  0.7818608E-02  0.1164589E+00
         21   -1    0    0  501  502  0.00000000000E+00  0.00000000000E+00  0.17114749992E+03  0.17114749992E+03  0.00000000000E+00 0.  1.
         21   -1    0    0  502  503 -0.00000000000E+00 -0.00000000000E+00 -0.19363395733E+03  0.19363395733E+03  0.00000000000E+00 0.  1.
         -6    2    1    2    0  503 -0.44156391284E+02  0.42882720535E+01 -0.52411484010E+01  0.17917313614E+03  0.17351474551E+03 0.  0.
        -24    2    3    3    0    0 -0.56214932052E+02  0.63144591975E+02 -0.16455150733E+02  0.11787616518E+03  0.80477700338E+02 0.  0.
          6    2    1    2  501    0  0.44156391284E+02 -0.42882720535E+01 -0.17245309001E+02  0.18560832111E+03  0.17940142701E+03 0.  0.
         24    2    5    5    0    0  0.42471927505E+02 -0.69155082064E+02  0.12326385492E+02  0.11414423520E+03  0.79313786001E+02 0.  0.
          5    1    5    5  501    0  0.16844637790E+01  0.64866810011E+02 -0.29571694492E+02  0.71464085906E+02  0.47000000000E+01 0. -1.
        -13    1    6    6    0    0 -0.46559935464E+01 -0.34455702577E+02 -0.26668410055E+02  0.43818692482E+02  0.00000000000E+00 0.  1.
         14    1    6    6    0    0  0.47127921051E+02 -0.34699379488E+02  0.38994795547E+02  0.70325542722E+02  0.00000000000E+00 0. -1.
         -5    1    3    3    0  503  0.12058540769E+02 -0.58856319921E+02  0.11214002332E+02  0.61296970956E+02  0.47000000000E+01 0.  1.
         13    1    4    4    0    0 -0.10260646626E+02  0.46691241330E+02 -0.41237880196E+02  0.63134108445E+02  0.00000000000E+00 0. -1.
        -14    1    4    4    0    0 -0.45954285427E+02  0.16453350645E+02  0.24782729462E+02  0.54742056740E+02  0.00000000000E+00 0.  1.
</event>
<event>
12    1  0.8406581E-002  0.1860081E+03  0.7818608E-02  0.1162967E+00
         21   -1    0    0  503  502  0.00000000000E+00  0.00000000000E+00  0.70253009700E+03  0.70253009700E+03  0.00000000000E+00 0. -1.
         21   -1    0    0  501  503 -0.00000000000E+00 -0.00000000000E+00 -0.46403253590E+03  0.46403253590E+03  0.00000000000E+00 0. -1.
          6    2    1    2  501    0  0.25436986668E+02 -0.47009696367E+02 -0.43272502873E+03  0.47100952797E+03  0.17816305201E+03 0.  0.
         24    2    3    3    0    0  0.58427529514E+02 -0.87978217780E+02 -0.32764332182E+03  0.35340404004E+03  0.79939515712E+02 0.  0.
         -6    2    1    2    0  502 -0.25436986668E+02  0.47009696367E+02  0.67122258984E+03  0.69555310493E+03  0.17434851541E+03 0.  0.
        -24    2    5    5    0    0 -0.36722698723E+02  0.31789312970E+02  0.67059820478E+03  0.67602089502E+03  0.70307760830E+02 0.  0.
          5    1    3    3  501    0 -0.32990542846E+02  0.40968521414E+02 -0.10508170691E+03  0.11760548793E+03  0.47000000000E+01 0. -1.
        -13    1    4    4    0    0  0.49537863327E+02 -0.16212501493E+02 -0.80525832537E+02  0.95923171411E+02  0.00000000000E+00 0.  1.
         14    1    4    4    0    0  0.88896661871E+01 -0.71765716287E+02 -0.24711748928E+03  0.25748086862E+03  0.00000000000E+00 0. -1.
         -5    1    5    5    0  502  0.11285712055E+02  0.15220383397E+02  0.62438506278E+00  0.19532209912E+02  0.47000000000E+01 0.  1.
         11    1    6    6    0    0 -0.52932575227E+02  0.38542416547E+01  0.43120799057E+03  0.43446178638E+03  0.00000000000E+00 0. -1.
        -12    1    6    6    0    0  0.16209876504E+02  0.27935071315E+02  0.23939021421E+03  0.24155910864E+03  0.00000000000E+00 0.  1.
</event>
<event>
12    1  0.8406581E-002  0.1873891E+03  0.7818608E-02  0.1160886E+00
         21   -1    0    0  501  502  0.00000000000E+00  0.00000000000E+00  0.13415422052E+03  0.13415422052E+03  0.00000000000E+00 0.  1.
         21   -1    0    0  502  503 -0.00000000000E+00 -0.00000000000E+00 -0.27790596524E+03  0.27790596524E+03  0.00000000000E+00 0.  1.
         -6    2    1    2    0  503 -0.50593357310E+02  0.51894284066E+02 -0.12204131700E+03  0.22362641223E+03  0.17280620553E+03 0.  0.
        -24    2    3    3    0    0 -0.20336999568E+00  0.79391258092E+01  0.24223289824E+01  0.82259881790E+02  0.81839778815E+02 0.  0.
          6    2    1    2  501    0  0.50593357310E+02 -0.51894284066E+02 -0.21710427722E+02  0.18843377353E+03  0.17257821361E+03 0.  0.
         24    2    5    5    0    0  0.38350565038E+02  0.34759761408E+02 -0.11186630004E-01  0.98146694590E+02  0.83389248000E+02 0.  0.
          5    1    5    5  501    0  0.12242792273E+02 -0.86654045474E+02 -0.21699241092E+02  0.90287078940E+02  0.47000000000E+01 0. -1.
        -13    1    6    6    0    0 -0.25581688736E+02  0.18888305819E+02  0.45166294443E+01  0.32118387831E+02  0.00000000000E+00 0.  1.
         14    1    6    6    0    0  0.63932253774E+02  0.15871455589E+02 -0.45278160743E+01  0.66028306759E+02  0.00000000000E+00 0. -1.
         -5    1    3    3    0  503 -0.50389987315E+02  0.43955158257E+02 -0.12446364598E+03  0.14136653044E+03  0.47000000000E+01 0.  1.
         11    1    4    4    0    0 -0.34800173201E+02  0.42236603689E+01 -0.20483698061E+02  0.40601394655E+02  0.00000000000E+00 0. -1.
        -12    1    4    4    0    0  0.34596803205E+02  0.37154654403E+01  0.22906027043E+02  0.41658487135E+02  0.00000000000E+00 0.  1.
</event>
<event>
12    1  0.8406581E-002  0.1750175E+03  0.7818608E-02  0.1173288E+00
         21   -1    0    0  501  502  0.00000000000E+00  0.00000000000E+00  0.21665591187E+03  0.21665591187E+03  0.00000000000E+00 0. -1.
         21   -1    0    0  502  503 -0.00000000000E+00 -0.00000000000E+00 -0.17296520629E+03  0.17296520629E+03  0.00000000000E+00 0. -1.
         -6    2    1    2    0  503 -0.37466517039E+02  0.24809654030E+01 -0.63659576017E+02  0.18623550491E+03  0.17094217322E+03 0.  0.
        -24    2    3    3    0    0 -0.91101826099E+02  0.29749462388E+00 -0.60240526808E+02  0.13224204401E+03  0.74561423761E+02 0.  0.
          6    2    1    2  501    0  0.37466517039E+02 -0.24809654030E+01  0.10735028160E+03  0.20338561324E+03  0.16861710953E+03 0.  0.
         24    2    5    5    0    0 -0.17622240909E+02  0.34771841221E+02  0.15873839114E+02  0.90192979283E+02  0.79769483057E+02 0.  0.
          5    1    5    5  501    0  0.55088757948E+02 -0.37252806624E+02  0.91476442482E+02  0.11319263396E+03  0.47000000000E+01 0. -1.
        -13    1    6    6    0    0  0.24372325268E+02  0.14979338998E+02 -0.17027411448E+02  0.33291494055E+02  0.00000000000E+00 0.  1.
         14    1    6    6    0    0 -0.41994566177E+02  0.19792502223E+02  0.32901250562E+02  0.56901485228E+02  0.00000000000E+00 0. -1.
         -5    1    3    3    0  503  0.53635309060E+02  0.21834707791E+01 -0.34190492093E+01  0.53993460901E+02  0.47000000000E+01 0.  1.
         11    1    4    4    0    0 -0.72863935454E+01  0.26019425983E+02 -0.27776896698E+02  0.38751232878E+02  0.00000000000E+00 0. -1.
        -12    1    4    4    0    0 -0.83815432553E+02 -0.25721931359E+02 -0.32463630111E+02  0.93490811136E+02  0.00000000000E+00 0.  1.
</event>
<event>
12    1  0.8406581E-002  0.2406260E+03  0.7818608E-02  0.1120195E+00
         21   -1    0    0  501  502  0.00000000000E+00  0.00000000000E+00  0.38722986544E+03  0.38722986544E+03  0.00000000000E+00 0.  1.
         21   -1    0    0  502  503 -0.00000000000E+00 -0.00000000000E+00 -0.14954086076E+03  0.14954086076E+03  0.00000000000E+00 0. -1.
         -6    2    1    2    0  503  0.14921520092E+03 -0.59001416381E+02  0.79435723071E+02  0.24876904027E+03  0.17271264568E+03 0.  0.
        -24    2    3    3    0    0  0.83921115749E+02 -0.89791122098E+02  0.11370648547E+02  0.14943995135E+03  0.84248490394E+02 0.  0.
          6    2    1    2  501    0 -0.14921520092E+03  0.59001416381E+02  0.15825328161E+03  0.28800168594E+03  0.17931683313E+03 0.  0.
         24    2    5    5    0    0 -0.60438312572E+02  0.35870633692E+02  0.16492161577E+03  0.19589888635E+03  0.78979379181E+02 0.  0.
          5    1    5    5  501    0 -0.88776888346E+02  0.23130782688E+02 -0.66683341578E+01  0.92102799592E+02  0.47000000000E+01 0. -1.
        -13    1    6    6    0    0 -0.73572090557E+02  0.10681053206E+02  0.13805014389E+03  0.15679534316E+03  0.00000000000E+00 0.  1.
         14    1    6    6    0    0  0.13133777985E+02  0.25189580487E+02  0.26871471877E+02  0.39103543191E+02  0.00000000000E+00 0. -1.
         -5    1    3    3    0  503  0.65294085169E+02  0.30789705718E+02  0.68065074524E+02  0.99329088922E+02  0.47000000000E+01 0.  1.
         13    1    4    4    0    0  0.31124116750E+02 -0.90998854446E+02  0.85565742649E+01  0.96554218536E+02  0.00000000000E+00 0. -1.
        -14    1    4    4    0    0  0.52796998999E+02  0.12077323480E+01  0.28140742823E+01  0.52885732810E+02  0.00000000000E+00 0.  1.
</event>
<event>
12    1  0.8406581E-002  0.1730340E+03  0.7818608E-02  0.1175578E+00
         21   -1    0    0  501  502  0.00000000000E+00  0.00000000000E+00  0.25593887591E+02  0.25593887591E+02  0.00000000000E+00 0. -1.
         21   -1    0    0  502  503 -0.00000000000E+00 -0.00000000000E+00 -0.11741507111E+04  0.11741507111E+04  0.00000000000E+00 0. -1.
         -6    2    1    2    0  503 -0.13482653558E+02  0.47429361941E+01 -0.67024764112E+03  0.69222300026E+03  0.17244275652E+03 0.  0.
        -24    2    3    3    0    0 -0.38644626751E+02 -0.63662287031E+02 -0.35499450050E+03  0.36861979859E+03  0.65674702620E+02 0.  0.
          6    2    1    2  501    0  0.13482653558E+02 -0.47429361941E+01 -0.47830918237E+03  0.50752159841E+03  0.16909825996E+03 0.  0.
         24    2    5    5    0    0  0.65027377861E+02 -0.20669851043E+02 -0.39061892677E+03  0.40445755935E+03  0.79667865230E+02 0.  0.
          5    1    5    5  501    0 -0.51544724303E+02  0.15926914849E+02 -0.87690255601E+02  0.10306403906E+03  0.47000000000E+01 0. -1.
        -11    1    6    6    0    0  0.20298913469E+02 -0.48218955905E+02 -0.18899559694E+03  0.19610315973E+03  0.00000000000E+00 0.  1.
         12    1    6    6    0    0  0.44728464392E+02  0.27549104862E+02 -0.20162332983E+03  0.20835439961E+03  0.00000000000E+00 0. -1.
         -5    1    3    3    0  503  0.25161973193E+02  0.68405223225E+02 -0.31525314062E+03  0.32360320167E+03  0.47000000000E+01 0.  1.
         11    1    4    4    0    0 -0.32917287359E+02 -0.64122914006E+02 -0.35560986186E+03  0.36284110814E+03  0.00000000000E+00 0. -1.
        -12    1    4    4    0    0 -0.57273393921E+01  0.46062697535E+00  0.61536135928E+00  0.57786904507E+01  0.00000000000E+00 0.  1.
</event>
<event>
12    1  0.8406581E-002  0.1934375E+03  0.7818608E-02  0.1155449E+00
         21   -1    0    0  503  502  0.00000000000E+00  0.00000000000E+00  0.39453485454E+03  0.39453485454E+03  0.00000000000E+00 0.  1.
         21   -1    0    0  501  503 -0.00000000000E+00 -0.00000000000E+00 -0.10366433318E+03  0.10366433318E+03  0.00000000000E+00 0.  1.
          6    2    1    2  501    0  0.53983696607E+02 -0.70268575773E+02  0.72204748328E+02  0.20625266005E+03  0.17168203709E+03 0.  0.
         24    2    3    3    0    0  0.23609859989E+02  0.28601979212E+02  0.34947531935E+02  0.96215635524E+02  0.81612620516E+02 0.  0.
         -6    2    1    2    0  502 -0.53983696607E+02  0.70268575773E+02  0.21866577303E+03  0.29194652767E+03  0.17194808077E+03 0.  0.
        -24    2    5    5    0    0 -0.12040552565E+02  0.67080905899E+02  0.22543271207E+03  0.24908313961E+03  0.81102897152E+02 0.  0.
          5    1    3    3  501    0  0.30373836618E+02 -0.98870554985E+02  0.37257216393E+02  0.11003702453E+03  0.47000000000E+01 0. -1.
        -13    1    4    4    0    0  0.19383180381E+02 -0.16097737338E+02 -0.14785020011E+02  0.29213723587E+02  0.00000000000E+00 0.  1.
         14    1    4    4    0    0  0.42266796085E+01  0.44699716550E+02  0.49732551947E+02  0.67001911938E+02  0.00000000000E+00 0. -1.
         -5    1    5    5    0  502 -0.41943144041E+02  0.31876698740E+01 -0.67669390404E+01  0.42863388052E+02  0.47000000000E+01 0.  1.
         13    1    6    6    0    0  0.99768584398E+01 -0.15525375312E+02  0.24120445139E+02  0.30370559044E+02  0.00000000000E+00 0. -1.
        -14    1    6    6    0    0 -0.22017411005E+02  0.82606281211E+02  0.20131226693E+03  0.21871258057E+03  0.00000000000E+00 0.  1.
</event>
<event>
12    1  0.8406581E-002  0.1996897E+03  0.7818608E-02  0.1150104E+00
         21   -1    0    0  501  502  0.00000000000E+00  0.00000000000E+00  0.14989160942E+04  0.14989160942E+04  0.00000000000E+00 0. -1.
         21   -1    0    0  502  503 -0.00000000000E+00 -0.00000000000E+00 -0.28216526975E+02  0.28216526975E+02  0.00000000000E+00 0. -1.
         -6    2    1    2    0  503 -0.88544482712E+02  0.47987596443E+02  0.92071634679E+03  0.94201937506E+03  0.17186906907E+03 0.  0.
        -24    2    3    3    0    0 -0.11621124337E+03  0.57176605497E+02  0.87104190725E+03  0.88423073018E+03  0.79848373241E+02 0.  0.
          6    2    1    2  501    0  0.88544482712E+02 -0.47987596443E+02  0.54998322043E+03  0.58511324612E+03  0.17243269177E+03 0.  0.
         24    2    5    5    0    0 -0.70535441922E+01  0.21224388619E+02  0.19777760520E+03  0.21362950888E+03  0.77597414846E+02 0.  0.
          5    1    5    5  501    0  0.95598026904E+02 -0.69211985062E+02  0.35220561524E+03  0.37148373723E+03  0.47000000000E+01 0. -1.
        -11    1    6    6    0    0 -0.24249464813E+02 -0.81115040203E+01  0.19551272543E+02  0.32188278911E+02  0.00000000000E+00 0.  1.
         12    1    6    6    0    0  0.17195920621E+02  0.29335892639E+02  0.17822633265E+03  0.18144122997E+03  0.00000000000E+00 0. -1.
         -5    1    3    3    0  503  0.27666760662E+02 -0.91890090538E+01  0.49674439542E+02  0.57788644877E+02  0.47000000000E+01 0.  1.
         11    1    4    4    0    0 -0.98526876299E+02  0.27867686685E+02  0.43675208334E+03  0.44859395406E+03  0.00000000000E+00 0. -1.
        -12    1    4    4    0    0 -0.17684367074E+02  0.29308918812E+02  0.43428982391E+03  0.43563677612E+03  0.00000000000E+00 0.  1.
</event>
<event>
12    1  0.8406581E-002  0.1844870E+03  0.7818608E-02  0.1163744E+00
         21   -1    0    0  501  502  0.00000000000E+00  0.00000000000E+00  0.48826548344E+03  0.48826548344E+03  0.00000000000E+00 0. -1.
         21   -1    0    0  502  503 -0.00000000000E+00 -0.00000000000E+00 -0.81535320887E+02  0.81535320887E+02  0.00000000000E+00 0. -1.
         -6    2    1    2    0  503 -0.29868464301E+02  0.60077723342E+02  0.31301769384E+03  0.36287698637E+03  0.17087472775E+03 0.  0.
        -24    2    3    3    0    0  0.38871616551E+02  0.31338712292E+02  0.10834775168E+03  0.14501692879E+03  0.82447297582E+02 0.  0.
          6    2    1    2  501    0  0.29868464301E+02 -0.60077723342E+02  0.93712468721E+02  0.20692381796E+03  0.17185453628E+03 0.  0.
         24    2    5    5    0    0  0.84929846225E+02 -0.24648089250E+02  0.61136643631E+02  0.13364156136E+03  0.79383692564E+02 0.  0.
          5    1    5    5  501    0 -0.55061381924E+02 -0.35429634092E+02  0.32575825091E+02  0.73282256595E+02  0.47000000000E+01 0. -1.
        -11    1    6    6    0    0  0.31676312558E+02 -0.31181762183E+02  0.66213453761E+02  0.79749059738E+02  0.00000000000E+00 0.  1.
         12    1    6    6    0    0  0.53253533667E+02  0.65336729330E+01 -0.50768101307E+01  0.53892501623E+02  0.00000000000E+00 0. -1.
         -5    1    3    3    0  503 -0.68740080852E+02  0.28739011050E+02  0.20466994215E+03  0.21786005759E+03  0.47000000000E+01 0.  1.
         13    1    4    4    0    0  0.31596631172E+02  0.54547359707E+02  0.45836441698E+02  0.77940624452E+02  0.00000000000E+00 0. -1.
        -14    1    4    4    0    0  0.72749853784E+01 -0.23208647415E+02  0.62511309986E+02  0.67076304335E+02  0.00000000000E+00 0.  1.
</event>
<event>
12    1  0.8406581E-002  0.1804491E+03  0.7818608E-02  0.1167574E+00
         21   -1    0    0  503  502  0.00000000000E+00  0.00000000000E+00  0.16305445847E+04  0.16305445847E+04  0.00000000000E+00 0. -1.
         21   -1    0    0  501  503 -0.00000000000E+00 -0.00000000000E+00 -0.31364899638E+02  0.31364899638E+02  0.00000000000E+00 0. -1.
          6    2    1    2  501    0 -0.13309236183E+02  0.49798702521E+02  0.29548465860E+03  0.34578539576E+03  0.17204449979E+03 0.  0.
         24    2    3    3    0    0 -0.93571005193E+01 -0.40705350921E+02  0.11802773451E+03  0.14648749568E+03  0.76049716331E+02 0.  0.
         -6    2    1    2    0  502  0.13309236183E+02 -0.49798702521E+02  0.13036950265E+04  0.13161240886E+04  0.17293018241E+03 0.  0.
        -24    2    5    5    0    0  0.39060809868E+02 -0.34559347256E+02  0.12555388160E+04  0.12592339128E+04  0.81069311744E+02 0.  0.
          5    1    3    3  501    0 -0.39521356638E+01  0.90504053442E+02  0.17745692410E+03  0.19929790008E+03  0.47000000000E+01 0. -1.
        -11    1    4    4    0    0  0.31609154230E+02 -0.80981677482E+01  0.31515080137E+02  0.45364294639E+02  0.00000000000E+00 0.  1.
         12    1    4    4    0    0 -0.40966254750E+02 -0.32607183173E+02  0.86512654371E+02  0.10112320104E+03  0.00000000000E+00 0. -1.
         -5    1    5    5    0  502 -0.25751573685E+02 -0.15239355264E+02  0.48156210527E+02  0.56890175852E+02  0.47000000000E+01 0.  1.
         11    1    6    6    0    0 -0.23048405991E+02  0.35498275436E+01  0.27034867147E+03  0.27135260172E+03  0.00000000000E+00 0. -1.
        -12    1    6    6    0    0  0.62109215859E+02 -0.38109174800E+02  0.98519014449E+03  0.98788131104E+03  0.00000000000E+00 0.  1.
</event>
<event>
12    1  0.8406581E-002  0.1762882E+03  0.7818608E-02  0.1171669E+00
         21   -1    0    0  501  502  0.00000000000E+00  0.00000000000E+00  0.53975181216E+03  0.53975181216E+03  0.00000000000E+00 0. -1.
         21   -1    0    0  502  503 -0.00000000000E+00 -0.00000000000E+00 -0.11576928284E+03  0.11576928284E+03  0.00000000000E+00 0. -1.
         -6    2    1    2    0  503  0.28387413930E+02  0.22746214825E+02 -0.20701973166E+02  0.17749960448E+03  0.17249435451E+03 0.  0.
        -24    2    3    3    0    0  0.23248222182E+02  0.39888120965E+02 -0.76177351281E+02  0.11902000278E+03  0.78938141505E+02 0.  0.
          6    2    1    2  501    0 -0.28387413930E+02 -0.22746214825E+02  0.44468450248E+03  0.47802149052E+03  0.17157215129E+03 0.  0.
         24    2    5    5    0    0  0.45891662316E+01 -0.77192296066E+02  0.26959928337E+03  0.29166496514E+03  0.80031039466E+02 0.  0.
          5    1    5    5  501    0 -0.32976580162E+02  0.54446081241E+02  0.17508521912E+03  0.18635652539E+03  0.47000000000E+01 0. -1.
        -13    1    6    6    0    0  0.35263730491E+02 -0.37906146604E+02  0.19638590220E+03  0.20309561596E+03  0.00000000000E+00 0.  1.
         14    1    6    6    0    0 -0.30674564259E+02 -0.39286149461E+02  0.73213381161E+02  0.88569349174E+02  0.00000000000E+00 0. -1.
         -5    1    3    3    0  503  0.51391917480E+01 -0.17141906140E+02  0.55475378115E+02  0.58479601700E+02  0.47000000000E+01 0.  1.
         13    1    4    4    0    0  0.28091402883E+02  0.35457721702E+02 -0.27719841565E+01  0.45321747985E+02  0.00000000000E+00 0. -1.
        -14    1    4    4    0    0 -0.48431807006E+01  0.44303992638E+01 -0.73405367125E+02  0.73698254794E+02  0.00000000000E+00 0.  1.
</event>
<event>
12    1  0.8406581E-002  0.1947841E+03  0.7818608E-02  0.1154846E+00
         21   -1    0    0  501  502  0.00000000000E+00  0.00000000000E+00  0.14492844195E+03  0.14492844195E+03  0.00000000000E+00 0.  1.
         21   -1    0    0  502  503 -0.00000000000E+00 -0.00000000000E+00 -0.26627666597E+03  0.26627666597E+03  0.00000000000E+00 0.  1.
         -6    2    1    2    0  503 -0.55842915342E+02 -0.63483320213E+02 -0.96585778057E+02  0.21485333028E+03  0.17229212945E+03 0.  0.
        -24    2    3    3    0    0 -0.61674305704E+02 -0.50737093940E+02 -0.13377917006E+03  0.17482946482E+03  0.79312689663E+02 0.  0.
          6    2    1    2  501    0  0.55842915342E+02  0.63483320213E+02 -0.24762445972E+02  0.19635177764E+03  0.17547728831E+03 0.  0.
         24    2    5    5    0    0  0.81818001482E+02  0.51411919288E+01  0.22027026895E+02  0.11704317909E+03  0.80581006672E+02 0.  0.
          5    1    5    5  501    0 -0.25975086140E+02  0.58342128284E+02 -0.46789472868E+02  0.79308598550E+02  0.47000000000E+01 0. -1.
        -13    1    6    6    0    0  0.68437632466E+02  0.37048655414E+02  0.26378040500E+02  0.82171244521E+02  0.00000000000E+00 0.  1.
         14    1    6    6    0    0  0.13380369016E+02 -0.31907463485E+02 -0.43510136050E+01  0.34871934567E+02  0.00000000000E+00 0. -1.
         -5    1    3    3    0  503  0.58313903615E+01 -0.12746226274E+02  0.37193392004E+02  0.40023865462E+02  0.47000000000E+01 0.  1.
         13    1    4    4    0    0  0.16105719112E+02 -0.21874486553E+02 -0.18762025411E+02  0.33013647899E+02  0.00000000000E+00 0. -1.
        -14    1    4    4    0    0 -0.77780024816E+02 -0.28862607386E+02 -0.11501714465E+03  0.14181581692E+03  0.00000000000E+00 0.  1.
</event>
<event>
12    1  0.8406581E-002  0.2490152E+03  0.7818608E-02  0.1114173E+00
         21   -1    0    0  503  502  0.00000000000E+00  0.00000000000E+00  0.26295349763E+03  0.26295349763E+03  0.00000000000E+00 0.  1.
         21   -1    0    0  501  503 -0.00000000000E+00 -0.00000000000E+00 -0.42076020730E+03  0.42076020730E+03  0.00000000000E+00 0.  1.
          6    2    1    2  501    0 -0.47068175361E+02 -0.17417209550E+03 -0.30657159638E+03  0.39496167808E+03  0.17163114946E+03 0.  0.
         24    2    3    3    0    0 -0.26074886142E+02 -0.37148497952E+02 -0.53188279709E+02  0.10609946241E+03  0.79800953865E+02 0.  0.
         -6    2    1    2    0  502  0.47068175361E+02  0.17417209550E+03  0.14876488670E+03  0.28875202684E+03  0.16939719450E+03 0.  0.
        -24    2    5    5    0    0 -0.16499235517E+02  0.12099871859E+03  0.14441511587E+03  0.20563022318E+03  0.80716468691E+02 0.  0.
          5    1    3    3  501    0 -0.20993289219E+02 -0.13702359755E+03 -0.25338331667E+03  0.28886221567E+03  0.47000000000E+01 0. -1.
        -11    1    4    4    0    0 -0.26013394474E+02 -0.32700441303E+02 -0.73910834020E+02  0.84904811047E+02  0.00000000000E+00 0.  1.
         12    1    4    4    0    0 -0.61491668680E-01 -0.44480566488E+01  0.20722554311E+02  0.21194651362E+02  0.00000000000E+00 0. -1.
         -5    1    5    5    0  502  0.63567410878E+02  0.53173376913E+02  0.43497708303E+01  0.83121803664E+02  0.47000000000E+01 0.  1.
         11    1    6    6    0    0  0.98104261937E+01  0.18329769036E+02 -0.59879178739E+01  0.21635157857E+02  0.00000000000E+00 0. -1.
        -12    1    6    6    0    0 -0.26309661710E+02  0.10266894955E+03  0.15040303375E+03  0.18399506532E+03  0.00000000000E+00 0.  1.
</event>
<event>
12    1  0.8406581E-002  0.2102032E+03  0.7818608E-02  0.1141486E+00
         21   -1    0    0  503  502  0.00000000000E+00  0.00000000000E+00  0.71584298870E+03  0.71584298870E+03  0.00000000000E+00 0. -1.
         21   -1    0    0  501  503 -0.00000000000E+00 -0.00000000000E+00 -0.37717111538E+03  0.37717111538E+03  0.00000000000E+00 0. -1.
          6    2    1    2  501    0  0.35025230349E+02 -0.11503554236E+03 -0.33057841985E+03  0.39152901058E+03  0.17190966141E+03 0.  0.
         24    2    3    3    0    0  0.84461428532E+02 -0.72181239145E+02 -0.16509593629E+03  0.21352066426E+03  0.77398589727E+02 0.  0.
         -6    2    1    2    0  502 -0.35025230349E+02  0.11503554236E+03  0.66925029317E+03  0.70148509350E+03  0.17241066884E+03 0.  0.
        -24    2    5    5    0    0 -0.20844132862E+02  0.12447697220E+03  0.66709807605E+03  0.68368154998E+03  0.80446405910E+02 0.  0.
          5    1    3    3  501    0 -0.49436198183E+02 -0.42854303216E+02 -0.16548248356E+03  0.17800834632E+03  0.47000000000E+01 0. -1.
        -13    1    4    4    0    0  0.91241257545E+01 -0.57858113846E+02 -0.76406982020E+02  0.96274804128E+02  0.00000000000E+00 0.  1.
         14    1    4    4    0    0  0.75337302778E+02 -0.14323125299E+02 -0.88688954273E+02  0.11724586013E+03  0.00000000000E+00 0. -1.
         -5    1    5    5    0  502 -0.14181097488E+02 -0.94414298396E+01  0.21522171142E+01  0.17803543520E+02  0.47000000000E+01 0.  1.
         13    1    6    6    0    0 -0.83472260999E+01  0.72347968306E+02  0.55115583194E+03  0.55594663034E+03  0.00000000000E+00 0. -1.
        -14    1    6    6    0    0 -0.12496906762E+02  0.52129003895E+02  0.11594224411E+03  0.12773491964E+03  0.00000000000E+00 0.  1.
</event>
<event>
12    1  0.8406581E-002  0.2341454E+03  0.7818608E-02  0.1123819E+00
         21   -1    0    0  503  502  0.00000000000E+00  0.00000000000E+00  0.88350986203E+02  0.88350986203E+02  0.00000000000E+00 0.  1.
         21   -1    0    0  501  503 -0.00000000000E+00 -0.00000000000E+00 -0.70721788874E+03  0.70721788874E+03  0.00000000000E+00 0.  1.
          6    2    1    2  501    0 -0.91053535169E+02  0.12873641422E+03 -0.44970151195E+03  0.50700641530E+03  0.17309027902E+03 0.  0.
         24    2    3    3    0    0 -0.11380768748E+03  0.12041023609E+03 -0.28479048201E+03  0.34025865824E+03  0.84967765499E+02 0.  0.
         -6    2    1    2    0  502  0.91053535169E+02 -0.12873641422E+03 -0.16916539059E+03  0.28856245965E+03  0.17259070986E+03 0.  0.
        -24    2    5    5    0    0  0.12537692561E+02 -0.47401910636E+01 -0.86986586678E+02  0.12029111119E+03  0.81997695238E+02 0.  0.
          5    1    3    3  501    0  0.22754152315E+02  0.83261781262E+01 -0.16491102994E+03  0.16674775706E+03  0.47000000000E+01 0. -1.
        -13    1    4    4    0    0 -0.40079772462E+02  0.10285403073E+03 -0.16621498447E+03  0.19953135308E+03  0.00000000000E+00 0.  1.
         14    1    4    4    0    0 -0.73727915022E+02  0.17556205363E+02 -0.11857549754E+03  0.14072730516E+03  0.00000000000E+00 0. -1.
         -5    1    5    5    0  502  0.78515842608E+02 -0.12399622316E+03 -0.82178803913E+02  0.16827134845E+03  0.47000000000E+01 0.  1.
         11    1    6    6    0    0 -0.22018561113E+02 -0.20038040301E+02 -0.52361829759E+01  0.30228425443E+02  0.00000000000E+00 0. -1.
        -12    1    6    6    0    0  0.34556253674E+02  0.15297849238E+02 -0.81750403702E+02  0.90062685752E+02  0.00000000000E+00 0.  1.
</event>
<event>
12    1  0.8406581E-002  0.1776495E+03  0.7818608E-02  0.1171563E+00
         21   -1    0    0  503  502  0.00000000000E+00  0.00000000000E+00  0.12504092399E+04  0.12504092399E+04  0.00000000000E+00 0.  1.
         21   -1    0    0  501  503 -0.00000000000E+00 -0.00000000000E+00 -0.28393585737E+02  0.28393585737E+02  0.00000000000E+00 0.  1.
          6    2    1    2  501    0  0.13888611824E+02  0.17799234682E+02  0.38048605673E+03  0.41991543648E+03  0.17620904670E+03 0.  0.
         24    2    3    3    0    0 -0.44647460460E+02 -0.18483798112E+02  0.29770298494E+03  0.31212834449E+03  0.80386501785E+02 0.  0.
         -6    2    1    2    0  502 -0.13888611824E+02 -0.17799234682E+02  0.84152959742E+03  0.85888738913E+03  0.17031082641E+03 0.  0.
        -24    2    5    5    0    0 -0.41805199944E+01  0.21376203741E+02  0.78472919648E+03  0.78904945124E+03  0.79528019360E+02 0.  0.
          5    1    3    3  501    0  0.58536072283E+02  0.36283032794E+02  0.82783071782E+02  0.10778709199E+03  0.47000000000E+01 0. -1.
        -11    1    4    4    0    0 -0.46884568821E+02 -0.39154173870E+01  0.72400288467E+02  0.86344050501E+02  0.00000000000E+00 0.  1.
         12    1    4    4    0    0  0.22371083610E+01 -0.14568380725E+02  0.22530269648E+03  0.22578429399E+03  0.00000000000E+00 0. -1.
         -5    1    5    5    0  502 -0.97080918293E+01 -0.39175438423E+02  0.56800400941E+02  0.69837937897E+02  0.47000000000E+01 0.  1.
         13    1    6    6    0    0 -0.26612686824E+02 -0.16781897831E+02  0.49065733721E+03  0.49166501783E+03  0.00000000000E+00 0. -1.
        -14    1    6    6    0    0  0.22432166830E+02  0.38158101572E+02  0.29407185926E+03  0.29738443341E+03  0.00000000000E+00 0.  1.
</event>
<event>
12    1  0.8406581E-002  0.1888149E+03  0.7818608E-02  0.1159784E+00
         21   -1    0    0  501  502  0.00000000000E+00  0.00000000000E+00  0.61015684290E+02  0.61015684290E+02  0.00000000000E+00 0. -1.
         21   -1    0    0  502  503 -0.00000000000E+00 -0.00000000000E+00 -0.74208591124E+03  0.74208591124E+03  0.00000000000E+00 0. -1.
         -6    2    1    2    0  503  0.32740210112E+02 -0.67561525106E+02 -0.52689462914E+03  0.55933697237E+03  0.17205643671E+03 0.  0.
        -24    2    3    3    0    0  0.26157211901E+02 -0.84178410849E+02 -0.52681411536E+03  0.54085581332E+03  0.84980551147E+02 0.  0.
          6    2    1    2  501    0 -0.32740210112E+02  0.67561525106E+02 -0.15417559782E+03  0.24376462317E+03  0.17324720925E+03 0.  0.
         24    2    5    5    0    0  0.90266503428E+01  0.26413731685E+02 -0.62466342423E+01  0.84570779691E+02  0.79586623878E+02 0.  0.
          5    1    5    5  501    0 -0.41766860455E+02  0.41147793421E+02 -0.14792896357E+03  0.15919384347E+03  0.47000000000E+01 0. -1.
        -11    1    6    6    0    0  0.41841367553E+02  0.15588872382E+02 -0.17898903442E+02  0.48104924127E+02  0.00000000000E+00 0.  1.
         12    1    6    6    0    0 -0.32814717210E+02  0.10824859303E+02  0.11652269200E+02  0.36465855564E+02  0.00000000000E+00 0. -1.
         -5    1    3    3    0  503  0.65829982116E+01  0.16616885743E+02 -0.80513775613E-01  0.18481159047E+02  0.47000000000E+01 0.  1.
         11    1    4    4    0    0 -0.13831567204E+02 -0.75296170544E+02 -0.26427288652E+03  0.27513811822E+03  0.00000000000E+00 0. -1.
        -12    1    4    4    0    0  0.39988779105E+02 -0.88822403044E+01 -0.26254122884E+03  0.26571769510E+03  0.00000000000E+00 0.  1.
</event>
<event>
12    1  0.8406581E-002  0.1756656E+03  0.7818608E-02  0.1172575E+00
         21   -1    0    0  501  502  0.00000000000E+00  0.00000000000E+00  0.62967850286E+02  0.62967850286E+02  0.00000000000E+00 0.  1.
         21   -1    0    0  502  503 -0.00000000000E+00 -0.00000000000E+00 -0.57112793416E+03  0.57112793416E+03  0.00000000000E+00 0.  1.
         -6    2    1    2    0  503  0.17160115139E+02 -0.84079304793E-02 -0.37886424011E+03  0.41760809482E+03  0.17482545237E+03 0.  0.
        -24    2    3    3    0    0 -0.21158326161E+02  0.16621582508E+02 -0.76277070428E+02  0.11211514108E+03  0.77638016558E+02 0.  0.
          6    2    1    2  501    0 -0.17160115139E+02  0.84079304793E-02 -0.12929584376E+03  0.21648768963E+03  0.17278609586E+03 0.  0.
         24    2    5    5    0    0 -0.75330365864E+02  0.14071425841E+02 -0.62237955651E+02  0.12648548466E+03  0.79071775360E+02 0.  0.
          5    1    5    5  501    0  0.58170250724E+02 -0.14063017910E+02 -0.67057888108E+02  0.90002204971E+02  0.47000000000E+01 0. -1.
        -13    1    6    6    0    0 -0.33359219117E+02  0.23405013831E+02 -0.71689748591E+02  0.82462429175E+02  0.00000000000E+00 0.  1.
         14    1    6    6    0    0 -0.41971146747E+02 -0.93335879899E+01  0.94517929402E+01  0.44023055480E+02  0.00000000000E+00 0. -1.
         -5    1    3    3    0  503  0.38318441300E+02 -0.16629990439E+02 -0.30258716968E+03  0.30549295374E+03  0.47000000000E+01 0.  1.
         11    1    4    4    0    0 -0.27909439115E+02  0.40982914372E+02 -0.26343732415E+02  0.56147380168E+02  0.00000000000E+00 0. -1.
        -12    1    4    4    0    0  0.67511129544E+01 -0.24361331864E+02 -0.49933338012E+02  0.55967760911E+02  0.00000000000E+00 0.  1.
</event>
<event>
12    1  0.8406581E-002  0.2398388E+03  0.7818608E-02  0.1120326E+00
         21   -1    0    0  501  502  0.00000000000E+00  0.00000000000E+00  0.14218955941E+03  0.14218955941E+03  0.00000000000E+00 0.  1.
         21   -1    0    0  502  503 -0.00000000000E+00 -0.00000000000E+00 -0.92186338323E+03  0.92186338323E+03  0.00000000000E+00 0. -1.
         -6    2    1    2    0  503 -0.33537521981E+02  0.16130665013E+03 -0.79092327341E+03  0.82648790372E+03  0.17429294252E+03 0.  0.
        -24    2    3    3    0    0 -0.17572049646E+02  0.18630335922E+03 -0.73882522412E+03  0.76635448113E+03  0.80117166484E+02 0.  0.
          6    2    1    2  501    0  0.33537521981E+02 -0.16130665013E+03  0.11249449595E+02  0.23756503892E+03  0.17078055172E+03 0.  0.
         24    2    5    5    0    0 -0.12686970490E+02 -0.40309107488E+02 -0.40210768547E+02  0.98111272100E+02  0.78886833118E+02 0.  0.
          5    1    5    5  501    0  0.46224492471E+02 -0.12099754264E+03  0.51460218142E+02  0.13945376682E+03  0.47000000000E+01 0. -1.
        -13    1    6    6    0    0 -0.20784926375E+02  0.19573246449E+02 -0.17894301261E+02  0.33694675523E+02  0.00000000000E+00 0.  1.
         14    1    6    6    0    0  0.80979558852E+01 -0.59882353937E+02 -0.22316467285E+02  0.64416596577E+02  0.00000000000E+00 0. -1.
         -5    1    3    3    0  503 -0.15965472335E+02 -0.24996709091E+02 -0.52098049298E+02  0.60133422594E+02  0.47000000000E+01 0.  1.
         11    1    4    4    0    0 -0.36945500001E+02  0.45076115392E+02 -0.16162945990E+03  0.17181649646E+03  0.00000000000E+00 0. -1.
        -12    1    4    4    0    0  0.19373450355E+02  0.14122724383E+03 -0.57719576421E+03  0.59453798466E+03  0.00000000000E+00 0.  1.
</event>
<event>
12    1  0.8406581E-002  0.1927464E+03  0.7818608E-02  0.1157152E+00
         21   -1    0    0  501  502  0.00000000000E+00  0.00000000000E+00  0.49297408217E+03  0.49297408217E+03  0.00000000000E+00 0. -1.
         21   -1    0    0  502  503 -0.00000000000E+00 -0.00000000000E+00 -0.85966048447E+02  0.85966048447E+02  0.00000000000E+00 0. -1.
         -6    2    1    2    0  503 -0.53053229081E+02  0.56791420815E+02  0.90430474253E+02  0.20830215601E+03  0.17079873223E+03 0.  0.
        -24    2    3    3    0    0 -0.76460482376E+02  0.28397547605E+01  0.11568452750E+02  0.10981362768E+03  0.77916199560E+02 0.  0.
          6    2    1    2  501    0  0.53053229081E+02 -0.56791420815E+02  0.31657755947E+03  0.37063797461E+03  0.17638380443E+03 0.  0.
         24    2    5    5    0    0 -0.15940483839E+02 -0.88970078169E+01  0.62445757709E+02  0.10294585689E+03  0.79781708570E+02 0.  0.
          5    1    5    5  501    0  0.68993712919E+02 -0.47894412998E+02  0.25413180176E+03  0.26769211771E+03  0.47000000000E+01 0. -1.
        -11    1    6    6    0    0 -0.10891352131E+02  0.19455772204E+02  0.69756704057E+02  0.73233505885E+02  0.00000000000E+00 0.  1.
         12    1    6    6    0    0 -0.50491317083E+01 -0.28352780021E+02 -0.73109463478E+01  0.29712351008E+02  0.00000000000E+00 0. -1.
         -5    1    3    3    0  503  0.23407253296E+02  0.53951666055E+02  0.78862021503E+02  0.98488528329E+02  0.47000000000E+01 0.  1.
         11    1    4    4    0    0 -0.84069987758E+02  0.22579664018E+02  0.33386173791E+01  0.87113434295E+02  0.00000000000E+00 0. -1.
        -12    1    4    4    0    0  0.76095053816E+01 -0.19739909257E+02  0.82298353711E+01  0.22700193389E+02  0.00000000000E+00 0.  1.
</event>
<event>
12    1  0.8406581E-002  0.2104523E+03  0.7818608E-02  0.1141255E+00
         21   -1    0    0  503  502  0.00000000000E+00  0.00000000000E+00  0.67613894103E+02  0.67613894103E+02  0.00000000000E+00 0.  1.
         21   -1    0    0  501  503 -0.00000000000E+00 -0.00000000000E+00 -0.68864387308E+03  0.68864387308E+03  0.00000000000E+00 0. -1.
          6    2    1    2  501    0 -0.11043690660E+03 -0.49988695473E+02 -0.22624266888E+03  0.30899174377E+03  0.17203189379E+03 0.  0.
         24    2    3    3    0    0 -0.11198509959E+03  0.16834884803E+02 -0.17971246119E+03  0.22741394035E+03  0.81218567365E+02 0.  0.
         -6    2    1    2    0  502  0.11043690660E+03  0.49988695473E+02 -0.39478731009E+03  0.44726602341E+03  0.17174019759E+03 0.  0.
        -24    2    5    5    0    0  0.52185267898E+02 -0.39924560147E+02 -0.20122391754E+03  0.22598221495E+03  0.79117784323E+02 0.  0.
          5    1    3    3  501    0  0.15481929844E+01 -0.66823580276E+02 -0.46530207693E+02  0.81577803418E+02  0.47000000000E+01 0. -1.
        -13    1    4    4    0    0 -0.63635708149E+02 -0.31045956703E+02 -0.10131422451E+03  0.12360391121E+03  0.00000000000E+00 0.  1.
         14    1    4    4    0    0 -0.48349391439E+02  0.47880841506E+02 -0.78398236679E+02  0.10381002914E+03  0.00000000000E+00 0. -1.
         -5    1    5    5    0  502  0.58251638706E+02  0.89913255620E+02 -0.19356339256E+03  0.22128380846E+03  0.47000000000E+01 0.  1.
         11    1    6    6    0    0  0.45752464117E+01  0.14960620247E+02 -0.10093210887E+03  0.10213737631E+03  0.00000000000E+00 0. -1.
        -12    1    6    6    0    0  0.47610021486E+02 -0.54885180394E+02 -0.10029180867E+03  0.12384483864E+03  0.00000000000E+00 0.  1.
</event>
<event>
12    1  0.8406581E-002  0.2739157E+03  0.7818608E-02  0.1099269E+00
         21   -1    0    0  501  502  0.00000000000E+00  0.00000000000E+00  0.33450429379E+03  0.33450429379E+03  0.00000000000E+00 0.  1.
         21   -1    0    0  502  503 -0.00000000000E+00 -0.00000000000E+00 -0.23480303240E+03  0.23480303240E+03  0.00000000000E+00 0.  1.
         -6    2    1    2    0  503  0.12915026787E+03  0.16965185052E+03 -0.13865090977E+02  0.27278220472E+03  0.16957696892E+03 0.  0.
        -24    2    3    3    0    0  0.10180551801E+03  0.34139116840E+02 -0.13840246614E+02  0.13445821204E+03  0.79734657225E+02 0.  0.
          6    2    1    2  501    0 -0.12915026787E+03 -0.16965185052E+03  0.11356635236E+03  0.29652512147E+03  0.17195432301E+03 0.  0.
         24    2    5    5    0    0 -0.15869599979E+03 -0.12313898022E+03  0.74774381264E+02  0.22897288687E+03  0.80558959966E+02 0.  0.
          5    1    5    5  501    0  0.29545731920E+02 -0.46512870295E+02  0.38791971096E+02  0.67552234599E+02  0.47000000000E+01 0. -1.
        -11    1    6    6    0    0 -0.12023090264E+02  0.56324377598E+01  0.23790238785E+02  0.27244348333E+02  0.00000000000E+00 0.  1.
         12    1    6    6    0    0 -0.14667290952E+03 -0.12877141798E+03  0.50984142479E+02  0.20172853854E+03  0.00000000000E+00 0. -1.
         -5    1    3    3    0  503  0.27344749858E+02  0.13551273368E+03 -0.24844362414E-01  0.13832399268E+03  0.47000000000E+01 0.  1.
         13    1    4    4    0    0  0.58561548004E+02 -0.19112459241E+02  0.87850397457E+01  0.62224737253E+02  0.00000000000E+00 0. -1.
        -14    1    4    4    0    0  0.43243970005E+02  0.53251576080E+02 -0.22625286360E+02  0.72233474786E+02  0.00000000000E+00 0.  1.
</event>
<event>
12    1  0.8406581E-002  0.2704608E+03  0.7818608E-02  0.1101069E+00
         21   -1    0    0  503  502  0.00000000000E+00  0.00000000000E+00  0.21185017167E+03  0.21185017167E+03  0.00000000000E+00 0. -1.
         21   -1    0    0  501  503 -0.00000000000E+00 -0.00000000000E+00 -0.42098348457E+03  0.42098348457E+03  0.00000000000E+00 0. -1.
          6    2    1    2  501    0 -0.63468217931E+02 -0.19844176589E+03  0.30086725004E+02  0.27175850144E+03  0.17187240310E+03 0.  0.
         24    2    3    3    0    0 -0.28473235706E+02 -0.16616679046E+03  0.79678091114E+02  0.20285482656E+03  0.79870864845E+02 0.  0.
         -6    2    1    2    0  502  0.63468217931E+02  0.19844176589E+03 -0.23922003790E+03  0.36107515480E+03  0.17245779699E+03 0.  0.
        -24    2    5    5    0    0  0.87476825543E+02  0.14283356000E+03 -0.10481774956E+03  0.21358023654E+03  0.81093377959E+02 0.  0.
          5    1    3    3  501    0 -0.34994982225E+02 -0.32274975429E+02 -0.49591366110E+02  0.68903674884E+02  0.47000000000E+01 0. -1.
        -13    1    4    4    0    0 -0.26067121667E+02 -0.20911988068E+02 -0.63532740318E+01  0.34017203999E+02  0.00000000000E+00 0.  1.
         14    1    4    4    0    0 -0.24061140389E+01 -0.14525480239E+03  0.86031365146E+02  0.16883762256E+03  0.00000000000E+00 0. -1.
         -5    1    5    5    0  502 -0.24008607612E+02  0.55608205893E+02 -0.13440228834E+03  0.14749491826E+03  0.47000000000E+01 0.  1.
         11    1    6    6    0    0  0.77883586973E+02  0.15325379875E+03 -0.97625705638E+02  0.19769511464E+03  0.00000000000E+00 0. -1.
        -12    1    6    6    0    0  0.95932385695E+01 -0.10420238754E+02 -0.71920439234E+01  0.15885121899E+02  0.00000000000E+00 0.  1.
</event>
<event>
12    1  0.8406581E-002  0.2205597E+03  0.7818608E-02  0.1133526E+00
         21   -1    0    0  501  502  0.00000000000E+00  0.00000000000E+00  0.85188069279E+02  0.85188069279E+02  0.00000000000E+00 0. -1.
         21   -1    0    0  502  503 -0.00000000000E+00 -0.00000000000E+00 -0.58235229431E+03  0.58235229431E+03  0.00000000000E+00 0. -1.
         -6    2    1    2    0  503  0.64170010289E+02 -0.12178140623E+03 -0.29657988346E+03  0.36941174501E+03  0.17192122892E+03 0.  0.
        -24    2    3    3    0    0  0.74182209005E+02 -0.12220733151E+03 -0.31079069230E+03  0.35139889894E+03  0.80328698150E+02 0.  0.
          6    2    1    2  501    0 -0.64170010289E+02  0.12178140623E+03 -0.20058434157E+03  0.29812861858E+03  0.17233134947E+03 0.  0.
         24    2    5    5    0    0 -0.93704275714E+02  0.12980701088E+03 -0.20006176586E+03  0.26716014672E+03  0.75627260140E+02 0.  0.
          5    1    5    5  501    0  0.29534265424E+02 -0.80256046484E+01 -0.52257571370E+00  0.30968471863E+02  0.47000000000E+01 0. -1.
        -11    1    6    6    0    0 -0.31470917488E+02  0.30466252599E+02 -0.11284942736E+03  0.12105207330E+03  0.00000000000E+00 0.  1.
         12    1    6    6    0    0 -0.62233358225E+02  0.99340758277E+02 -0.87212338495E+02  0.14610807341E+03  0.00000000000E+00 0. -1.
         -5    1    3    3    0  503 -0.10012198716E+02  0.42592528526E+00  0.14210808843E+02  0.18012846068E+02  0.47000000000E+01 0.  1.
         11    1    4    4    0    0  0.39237871229E+02 -0.32329548226E+01 -0.88485384258E+02  0.96848984314E+02  0.00000000000E+00 0. -1.
        -12    1    4    4    0    0  0.34944337776E+02 -0.11897437669E+03 -0.22230530804E+03  0.25454991462E+03  0.00000000000E+00 0.  1.
</event>
<event>
12    1  0.8406581E-002  0.1974378E+03  0.7818608E-02  0.1152424E+00
         21   -1    0    0  501  502  0.00000000000E+00  0.00000000000E+00  0.23142866511E+03  0.23142866511E+03  0.00000000000E+00 0. -1.
         21   -1    0    0  502  503 -0.00000000000E+00 -0.00000000000E+00 -0.32080358462E+03  0.32080358462E+03  0.00000000000E+00 0.  1.
         -6    2    1    2    0  503  0.51467000253E+02  0.80987675942E+02 -0.23635194637E+03  0.30796742283E+03  0.17255096406E+03 0.  0.
        -24    2    3    3    0    0 -0.72540154587E+01  0.52450712206E+02 -0.44419882516E+02  0.10518053192E+03  0.79285057745E+02 0.  0.
          6    2    1    2  501    0 -0.51467000253E+02 -0.80987675942E+02  0.14697702686E+03  0.24426482691E+03  0.16986819440E+03 0.  0.
         24    2    5    5    0    0 -0.52929051054E+02 -0.45008651607E+02  0.15475516629E+02  0.10784135027E+03  0.81012357377E+02 0.  0.
          5    1    5    5  501    0  0.14620508002E+01 -0.35979024335E+02  0.13150151023E+03  0.13642347664E+03  0.47000000000E+01 0. -1.
        -13    1    6    6    0    0 -0.62801395972E+02 -0.60888222753E+02  0.16896557199E+02  0.89089194918E+02  0.00000000000E+00 0.  1.
         14    1    6    6    0    0  0.98723449180E+01  0.15879571146E+02 -0.14210405701E+01  0.18752155350E+02  0.00000000000E+00 0. -1.
         -5    1    3    3    0  503  0.58721015712E+02  0.28536963736E+02 -0.19193206386E+03  0.20278689090E+03  0.47000000000E+01 0.  1.
         11    1    4    4    0    0 -0.34343896058E+02 -0.20979184555E+01 -0.14822311836E+02  0.37464721892E+02  0.00000000000E+00 0. -1.
        -12    1    4    4    0    0  0.27089880599E+02  0.54548630661E+02 -0.29597570681E+02  0.67715810031E+02  0.00000000000E+00 0.  1.
</event>
<event>
12    1  0.8406581E-002  0.1874408E+03  0.7818608E-02  0.1160811E+00
         21   -1    0    0  501  502  0.00000000000E+00  0.00000000000E+00  0.84329076427E+02  0.84329076427E+02  0.00000000000E+00 0.  1.
         21   -1    0    0  502  503 -0.00000000000E+00 -0.00000000000E+00 -0.43577575001E+03  0.43577575001E+03  0.00000000000E+00 0.  1.
         -6    2    1    2    0  503 -0.65055255405E+02 -0.29912816930E+02 -0.12088615191E+03  0.22296480592E+03  0.17312677459E+03 0.  0.
        -24    2    3    3    0    0 -0.46224076853E+02  0.47767056567E+02 -0.50976108003E+02  0.11667143702E+03  0.81211474897E+02 0.  0.
          6    2    1    2  501    0  0.65055255405E+02  0.29912816930E+02 -0.23056052167E+03  0.29714002052E+03  0.17322550265E+03 0.  0.
         24    2    5    5    0    0 -0.86014214980E+01  0.14670621897E+02 -0.44923800798E+02  0.96788547608E+02  0.84027754173E+02 0.  0.
          5    1    5    5  501    0  0.73656676903E+02  0.15242195033E+02 -0.18563672087E+03  0.20035147291E+03  0.47000000000E+01 0. -1.
        -13    1    6    6    0    0  0.94993303165E+00  0.32522633420E+02 -0.62185053939E+02  0.70182654487E+02  0.00000000000E+00 0.  1.
         14    1    6    6    0    0 -0.95513545297E+01 -0.17852011523E+02  0.17261253142E+02  0.26605893122E+02  0.00000000000E+00 0. -1.
         -5    1    3    3    0  503 -0.18831178552E+02 -0.77679873498E+02 -0.69910043912E+02  0.10629336890E+03  0.47000000000E+01 0.  1.
         13    1    4    4    0    0  0.20920247047E+02  0.61254421227E+01 -0.25740076984E+02  0.33730243712E+02  0.00000000000E+00 0. -1.
        -14    1    4    4    0    0 -0.67144323900E+02  0.41641614445E+02 -0.25236031019E+02  0.82941193307E+02  0.00000000000E+00 0.  1.
</event>
<event>
12    1  0.8406581E-002  0.2820382E+03  0.7818608E-02  0.1094610E+00
         21   -1    0    0  503  502  0.00000000000E+00  0.00000000000E+00  0.54147653167E+03  0.54147653167E+03  0.00000000000E+00 0.  1.
         21   -1    0    0  501  503 -0.00000000000E+00 -0.00000000000E+00 -0.14684371957E+03  0.14684371957E+03  0.00000000000E+00 0. -1.
          6    2    1    2  501    0  0.33333743238E+02 -0.22042012467E+03  0.19085058633E+03  0.34036513530E+03  0.17241899325E+03 0.  0.
         24    2    3    3    0    0  0.20162873506E+02 -0.25054530699E+02  0.67676814934E+02  0.10898869944E+03  0.79146158143E+02 0.  0.
         -6    2    1    2    0  502 -0.33333743238E+02  0.22042012467E+03  0.20378222577E+03  0.34795511594E+03  0.17276978143E+03 0.  0.
        -24    2    5    5    0    0 -0.67420754137E+02  0.19722329448E+03  0.21123984848E+03  0.30579205890E+03  0.73782950113E+02 0.  0.
          5    1    3    3  501    0  0.13170869732E+02 -0.19536559397E+03  0.12317377139E+03  0.23137643587E+03  0.47000000000E+01 0. -1.
        -13    1    4    4    0    0 -0.30548912843E+02 -0.11445118783E+02  0.21538912758E+02  0.39091579434E+02  0.00000000000E+00 0.  1.
         14    1    4    4    0    0  0.50711786349E+02 -0.13609411916E+02  0.46137902176E+02  0.69897120003E+02  0.00000000000E+00 0. -1.
         -5    1    5    5    0  502  0.34087010899E+02  0.23196830182E+02 -0.74576227077E+01  0.42163057040E+02  0.47000000000E+01 0.  1.
         13    1    6    6    0    0 -0.43497727702E+02  0.35192290337E+02  0.39620850298E+02  0.68559181680E+02  0.00000000000E+00 0. -1.
        -14    1    6    6    0    0 -0.23923026435E+02  0.16203100415E+03  0.17161899818E+03  0.23723287722E+03  0.00000000000E+00 0.  1.
</event>
<event>
12    1  0.8406581E-002  0.1737549E+03  0.7818608E-02  0.1174068E+00
         21   -1    0    0  501  502  0.00000000000E+00  0.00000000000E+00  0.50980375393E+02  0.50980375393E+02  0.00000000000E+00 0. -1.
         21   -1    0    0  502  503 -0.00000000000E+00 -0.00000000000E+00 -0.65888118966E+03  0.65888118966E+03  0.00000000000E+00 0. -1.
         -6    2    1    2    0  503  0.62631562551E+00 -0.21925768295E+02 -0.41751890928E+03  0.45210966969E+03  0.17204645371E+03 0.  0.
        -24    2    3    3    0    0  0.21653792827E+02 -0.31074459773E+02 -0.41489644599E+03  0.42855503815E+03  0.10042833781E+03 0.  0.
          6    2    1    2  501    0 -0.62631562551E+00  0.21925768295E+02 -0.19038190499E+03  0.25775189536E+03  0.17236484047E+03 0.  0.
         24    2    5    5    0    0  0.50456224349E+02  0.36044386787E+01 -0.17731656561E+03  0.20173502199E+03  0.81835396405E+02 0.  0.
          5    1    5    5  501    0 -0.51082539974E+02  0.18321329616E+02 -0.13065339379E+02  0.56016873371E+02  0.47000000000E+01 0. -1.
        -11    1    6    6    0    0  0.17285337570E+02 -0.15737956333E+02 -0.15614811502E+03  0.15788825159E+03  0.00000000000E+00 0.  1.
         12    1    6    6    0    0  0.33170886779E+02  0.19342395012E+02 -0.21168450585E+02  0.43846770402E+02  0.00000000000E+00 0. -1.
         -5    1    3    3    0  503 -0.21027477201E+02  0.91486914780E+01 -0.26224632871E+01  0.23554631538E+02  0.47000000000E+01 0.  1.
         11    1    4    4    0    0 -0.16973312786E+02  0.13970358139E+02 -0.28385055441E+03  0.28470054706E+03  0.00000000000E+00 0. -1.
        -12    1    4    4    0    0  0.38627105613E+02 -0.45044817911E+02 -0.13104589158E+03  0.14385449109E+03  0.00000000000E+00 0.  1.
</event>
<event>
12    1  0.8406581E-002  0.1802605E+03  0.7818608E-02  0.1168282E+00
         21   -1    0    0  503  502  0.00000000000E+00  0.00000000000E+00  0.21974095229E+03  0.21974095229E+03  0.00000000000E+00 0.  1.
         21   -1    0    0  501  503 -0.00000000000E+00 -0.00000000000E+00 -0.14628158488E+03  0.14628158488E+03  0.00000000000E+00 0.  1.
          6    2    1    2  501    0  0.41213608671E+02  0.25839380953E+02  0.50441541584E+02  0.18429833668E+03  0.17045613113E+03 0.  0.
         24    2    3    3    0    0  0.48600511896E+02  0.67685308175E+02 -0.12446407444E+01  0.11722226488E+03  0.82439065708E+02 0.  0.
         -6    2    1    2    0  502 -0.41213608671E+02 -0.25839380953E+02  0.23017825833E+02  0.18172420048E+03  0.17357312461E+03 0.  0.
        -24    2    5    5    0    0  0.50132974795E+02 -0.72769088353E+01  0.44073643243E+01  0.86554862145E+02  0.70043206214E+02 0.  0.
          5    1    3    3  501    0 -0.73869032255E+01 -0.41845927222E+02  0.51686182329E+02  0.67076071800E+02  0.47000000000E+01 0. -1.
        -13    1    4    4    0    0 -0.16796479664E+02  0.32651739901E+02 -0.18405932587E+02  0.41073546256E+02  0.00000000000E+00 0.  1.
         14    1    4    4    0    0  0.65396991560E+02  0.35033568274E+02  0.17161291843E+02  0.76148718629E+02  0.00000000000E+00 0. -1.
         -5    1    5    5    0  502 -0.91346583466E+02 -0.18562472117E+02  0.18610461508E+02  0.95169338337E+02  0.47000000000E+01 0.  1.
         11    1    6    6    0    0  0.47844195220E+02 -0.18521430798E+02 -0.23462901319E+02  0.56414698026E+02  0.00000000000E+00 0. -1.
        -12    1    6    6    0    0  0.22887795752E+01  0.11244521962E+02  0.27870265643E+02  0.30140164119E+02  0.00000000000E+00 0.  1.
</event>
<event>
12    1  0.8406581E-002  0.2170062E+03  0.7818608E-02  0.1136676E+00
         21   -1    0    0  503  502  0.00000000000E+00  0.00000000000E+00  0.26340423090E+02  0.26340423090E+02  0.00000000000E+00 0.  1.
         21   -1    0    0  501  503 -0.00000000000E+00 -0.00000000000E+00 -0.22831770960E+04  0.22831770960E+04  0.00000000000E+00 0.  1.
          6    2    1    2  501    0 -0.79573737979E+02  0.10206845490E+03 -0.16730463824E+04  0.16866991082E+04  0.17064505423E+03 0.  0.
         24    2    3    3    0    0 -0.11000563426E+03  0.51597959637E+02 -0.94701382848E+03  0.95826329729E+03  0.81668638968E+02 0.  0.
         -6    2    1    2    0  502  0.79573737979E+02 -0.10206845490E+03 -0.58379029052E+03  0.62281841094E+03  0.17418874947E+03 0.  0.
        -24    2    5    5    0    0 -0.22979754267E+02 -0.41681099955E+02 -0.17961771748E+03  0.20146178028E+03  0.77839201434E+02 0.  0.
          5    1    3    3  501    0  0.30431896277E+02  0.50470495261E+02 -0.72603255394E+03  0.72843581089E+03  0.47000000000E+01 0. -1.
        -11    1    4    4    0    0 -0.10385505436E+03  0.67400482319E+02 -0.89579334166E+03  0.90430880141E+03  0.00000000000E+00 0.  1.
         12    1    4    4    0    0 -0.61505798978E+01 -0.15802522681E+02 -0.51220486819E+02  0.53954495885E+02  0.00000000000E+00 0. -1.
         -5    1    5    5    0  502  0.10255349225E+03 -0.60387354944E+02 -0.40417257304E+03  0.42135663066E+03  0.47000000000E+01 0.  1.
         11    1    6    6    0    0 -0.19614519535E+02 -0.62781345575E+02 -0.10548593540E+03  0.12431214461E+03  0.00000000000E+00 0. -1.
        -12    1    6    6    0    0 -0.33652347316E+01  0.21100245620E+02 -0.74131782081E+02  0.77149635673E+02  0.00000000000E+00 0.  1.
</event>
<event>
12    1  0.8406581E-002  0.2039577E+03  0.7818608E-02  0.1146469E+00
         21   -1    0    0  501  502  0.00000000000E+00  0.00000000000E+00  0.10187695050E+04  0.10187695050E+04  0.00000000000E+00 0. -1.
         21   -1    0    0  502  503 -0.00000000000E+00 -0.00000000000E+00 -0.40842912577E+02  0.40842912577E+02  0.00000000000E+00 0. -1.
         -6    2    1    2    0  503 -0.75645483580E+02  0.79996659446E+02  0.50502443857E+03  0.54465441552E+03  0.17168880009E+03 0.  0.
        -24    2    3    3    0    0  0.33104709657E+01  0.94098313700E+02  0.34794522312E+03  0.36822066212E+03  0.75200570863E+02 0.  0.
          6    2    1    2  501    0  0.75645483580E+02 -0.79996659446E+02  0.47290215385E+03  0.51495800206E+03  0.17153306406E+03 0.  0.
         24    2    5    5    0    0 -0.52477280402E+01 -0.24282401979E+02  0.33907989966E+03  0.34889091957E+03  0.78310418912E+02 0.  0.
          5    1    5    5  501    0  0.80893211620E+02 -0.55714257467E+02  0.13382225419E+03  0.16606708250E+03  0.47000000000E+01 0. -1.
        -13    1    6    6    0    0  0.54384376519E+01  0.24483672707E+02  0.54878123101E+02  0.60337676691E+02  0.00000000000E+00 0.  1.
         14    1    6    6    0    0 -0.10686165692E+02 -0.48766074686E+02  0.28420177655E+03  0.28855324288E+03  0.00000000000E+00 0. -1.
         -5    1    3    3    0  503 -0.78955954545E+02 -0.14101654254E+02  0.15707921545E+03  0.17643375340E+03  0.47000000000E+01 0.  1.
         13    1    4    4    0    0  0.11989058968E+02  0.13145929022E+02  0.95979921524E+01  0.20215697815E+02  0.00000000000E+00 0. -1.
        -14    1    4    4    0    0 -0.86785880024E+01  0.80952384677E+02  0.33834723097E+03  0.34800496430E+03  0.00000000000E+00 0.  1.
</event>
<event>
12    1  0.8406581E-002  0.2062784E+03  0.7818608E-02  0.1144984E+00
         21   -1    0    0  503  502  0.00000000000E+00  0.00000000000E+00  0.36933189368E+03  0.36933189368E+03  0.00000000000E+00 0. -1.
         21   -1    0    0  501  503 -0.00000000000E+00 -0.00000000000E+00 -0.15025092295E+03  0.15025092295E+03  0.00000000000E+00 0.  1.
          6    2    1    2  501    0  0.50213967340E+02 -0.92871494209E+02 -0.18471222547E+02  0.20496905261E+03  0.17471282012E+03 0.  0.
         24    2    3    3    0    0 -0.58139581945E+01  0.76258587510E+01  0.18634673562E+02  0.83982342941E+02  0.81325439043E+02 0.  0.
         -6    2    1    2    0  502 -0.50213967340E+02  0.92871494209E+02  0.23755219327E+03  0.31461376402E+03  0.17721235574E+03 0.  0.
        -24    2    5    5    0    0 -0.87554619992E+02  0.15287601388E+02  0.12618539277E+03  0.17376548032E+03  0.79825851482E+02 0.  0.
          5    1    3    3  501    0  0.56027925534E+02 -0.10049735296E+03 -0.37105896109E+02  0.12098670967E+03  0.47000000000E+01 0. -1.
        -13    1    4    4    0    0 -0.13548747360E+02 -0.13869144323E+02 -0.26829234553E+02  0.33101805781E+02  0.00000000000E+00 0.  1.
         14    1    4    4    0    0  0.77347891652E+01  0.21495003074E+02  0.45463908115E+02  0.50880537160E+02  0.00000000000E+00 0. -1.
         -5    1    5    5    0  502  0.37340652653E+02  0.77583892821E+02  0.11136680050E+03  0.14084828370E+03  0.47000000000E+01 0.  1.
         13    1    6    6    0    0  0.14722936645E+02  0.30021625200E+01  0.26230368010E+02  0.30229291245E+02  0.00000000000E+00 0. -1.
        -14    1    6    6    0    0 -0.10227755664E+03  0.12285438868E+02  0.99955024760E+02  0.14353618908E+03  0.00000000000E+00 0.  1.
</event>
<event>
12    1  0.8406581E-002  0.2991681E+03  0.7818608E-02  0.1086164E+00
         21   -1    0    0  501  502  0.00000000000E+00  0.00000000000E+00  0.10031887654E+04  0.10031887654E+04  0.00000000000E+00 0.  1.
         21   -1    0    0  502  503 -0.00000000000E+00 -0.00000000000E+00 -0.88026702424E+02  0.88026702424E+02  0.00000000000E+00 0.  1.
         -6    2    1    2    0  503 -0.23582140573E+03  0.42101421873E+02  0.45630475951E+03  0.54344582146E+03  0.17243857512E+03 0.  0.
        -24    2    3    3    0    0 -0.20081336948E+03 -0.15615849969E+02  0.40351230213E+03  0.45762053599E+03  0.77617735434E+02 0.  0.
          6    2    1    2  501    0  0.23582140573E+03 -0.42101421873E+02  0.45885730345E+03  0.54776964634E+03  0.17921298893E+03 0.  0.
         24    2    5    5    0    0  0.10170439703E+03 -0.91028386908E+01  0.10323773115E+03  0.16624160187E+03  0.80941923704E+02 0.  0.
          5    1    5    5  501    0  0.13411700870E+03 -0.32998583182E+02  0.35561957230E+03  0.38152804447E+03  0.47000000000E+01 0. -1.
        -13    1    6    6    0    0  0.89380423809E+02 -0.32271704640E+02  0.10280259477E+03  0.13999534482E+03  0.00000000000E+00 0.  1.
         14    1    6    6    0    0  0.12323973219E+02  0.23168865949E+02  0.43513637476E+00  0.26246257046E+02  0.00000000000E+00 0. -1.
         -5    1    3    3    0  503 -0.35008036248E+02  0.57717271842E+02  0.52792457378E+02  0.85825285475E+02  0.47000000000E+01 0.  1.
         11    1    4    4    0    0 -0.70657915472E+02 -0.38710531607E+02  0.19172831817E+03  0.20796825302E+03  0.00000000000E+00 0. -1.
        -12    1    4    4    0    0 -0.13015545401E+03  0.23094681637E+02  0.21178398396E+03  0.24965228296E+03  0.00000000000E+00 0.  1.
</event>
<event>
12    1  0.8406581E-002  0.2538817E+03  0.7818608E-02  0.1110993E+00
         21   -1    0    0  503  502  0.00000000000E+00  0.00000000000E+00  0.34007160069E+03  0.34007160069E+03  0.00000000000E+00 0. -1.
         21   -1    0    0  501  503 -0.00000000000E+00 -0.00000000000E+00 -0.22199282210E+03  0.22199282210E+03  0.00000000000E+00 0.  1.
          6    2    1    2  501    0  0.16580346036E+03 -0.84446544862E+02  0.16734854600E+03  0.30344611258E+03  0.17161585295E+03 0.  0.
         24    2    3    3    0    0  0.93987257143E+02 -0.98443345190E+02  0.50808485991E+02  0.16576113500E+03  0.79815756021E+02 0.  0.
         -6    2    1    2    0  502 -0.16580346036E+03  0.84446544862E+02 -0.49269767408E+02  0.25861831021E+03  0.17272496631E+03 0.  0.
        -24    2    5    5    0    0 -0.16223165858E+03  0.10792774212E+02 -0.21799885029E+02  0.17978735096E+03  0.73570792819E+02 0.  0.
          5    1    3    3  501    0  0.71816203221E+02  0.13996800328E+02  0.11654006001E+03  0.13768497758E+03  0.47000000000E+01 0. -1.
        -13    1    4    4    0    0  0.73818840128E+01  0.81500995335E+01 -0.10638886737E+02  0.15300400158E+02  0.00000000000E+00 0.  1.
         14    1    4    4    0    0  0.86605373130E+02 -0.10659344472E+03  0.61447372728E+02  0.15046073484E+03  0.00000000000E+00 0. -1.
         -5    1    5    5    0  502 -0.35718017832E+01  0.73653770650E+02 -0.27469882380E+02  0.78830959254E+02  0.47000000000E+01 0.  1.
         13    1    6    6    0    0 -0.43093843294E+02 -0.10807901458E+02  0.23804181130E+02  0.50403661604E+02  0.00000000000E+00 0. -1.
        -14    1    6    6    0    0 -0.11913781529E+03  0.21600675670E+02 -0.45604066158E+02  0.12938368935E+03  0.00000000000E+00 0.  1.
</event>
<event>
12    1  0.8406581E-002  0.1900493E+03  0.7818608E-02  0.1158430E+00
         21   -1    0    0  501  502  0.00000000000E+00  0.00000000000E+00  0.16244015296E+03  0.16244015296E+03  0.00000000000E+00 0.  1.
         21   -1    0    0  502  503 -0.00000000000E+00 -0.00000000000E+00 -0.22368897604E+03  0.22368897604E+03  0.00000000000E+00 0. -1.
         -6    2    1    2    0  503 -0.76936230113E+02  0.25873169310E+02 -0.15331832260E+02  0.19066668784E+03  0.17184329018E+03 0.  0.
        -24    2    3    3    0    0 -0.58248128713E+02 -0.13799011233E+02 -0.68051369623E+02  0.12193120456E+03  0.81565755852E+02 0.  0.
          6    2    1    2  501    0  0.76936230113E+02 -0.25873169310E+02 -0.45916990826E+02  0.19546244116E+03  0.17178064927E+03 0.  0.
         24    2    5    5    0    0 -0.31372885673E+01  0.42518831084E+00  0.24140312461E+02  0.85765186171E+02  0.82236786833E+02 0.  0.
          5    1    5    5  501    0  0.80073518680E+02 -0.26298357621E+02 -0.70057303287E+02  0.10969725499E+03  0.47000000000E+01 0. -1.
        -13    1    6    6    0    0 -0.28990877749E+02 -0.30061420011E+02  0.73310946307E+01  0.42401708859E+02  0.00000000000E+00 0.  1.
         14    1    6    6    0    0  0.25853589181E+02  0.30486608321E+02  0.16809217830E+02  0.43363477312E+02  0.00000000000E+00 0. -1.
         -5    1    3    3    0  503 -0.18688101400E+02  0.39672180543E+02  0.52719537363E+02  0.68735483288E+02  0.47000000000E+01 0.  1.
         13    1    4    4    0    0 -0.71208727656E+02 -0.27201728118E+02 -0.69600950557E+02  0.10322261974E+03  0.00000000000E+00 0. -1.
        -14    1    4    4    0    0  0.12960598944E+02  0.13402716885E+02  0.15495809337E+01  0.18708584820E+02  0.00000000000E+00 0.  1.
</event>
<event>
12    1  0.8406581E-002  0.1852212E+03  0.7818608E-02  0.1163766E+00
         21   -1    0    0  503  502  0.00000000000E+00  0.00000000000E+00  0.62080708401E+03  0.62080708401E+03  0.00000000000E+00 0. -1.
         21   -1    0    0  501  503 -0.00000000000E+00 -0.00000000000E+00 -0.13143969512E+03  0.13143969512E+03  0.00000000000E+00 0.  1.
          6    2    1    2  501    0 -0.21196215281E+02 -0.53676548333E+02 -0.42747977688E+02  0.19009016482E+03  0.17600122096E+03 0.  0.
         24    2    3    3    0    0 -0.62705352477E+02  0.15970573384E+02 -0.34968501700E+02  0.10850376717E+03  0.79769987687E+02 0.  0.
         -6    2    1    2    0  502  0.21196215281E+02  0.53676548333E+02  0.53211536658E+03  0.56215661431E+03  0.17188031963E+03 0.  0.
        -24    2    5    5    0    0  0.29836153168E+02  0.52305807700E+02  0.54027938152E+03  0.54930093088E+03  0.78762992655E+02 0.  0.
          5    1    3    3  501    0  0.41509137195E+02 -0.69647121716E+02 -0.77794759876E+01  0.81586397645E+02  0.47000000000E+01 0. -1.
        -11    1    4    4    0    0 -0.41843434276E+02 -0.27071949999E+02 -0.34599930265E+02  0.60670574772E+02  0.00000000000E+00 0.  1.
         12    1    4    4    0    0 -0.20861918200E+02  0.43042523383E+02 -0.36857143539E+00  0.47833192399E+02  0.00000000000E+00 0. -1.
         -5    1    5    5    0  502 -0.86399378866E+01  0.13707406328E+01 -0.81640149385E+01  0.12855683431E+02  0.47000000000E+01 0.  1.
         11    1    6    6    0    0 -0.26545227916E+02  0.10983679576E+02  0.18394960631E+03  0.18617934365E+03  0.00000000000E+00 0. -1.
        -12    1    6    6    0    0  0.56381381084E+02  0.41322128123E+02  0.35632977521E+03  0.36312158722E+03  0.00000000000E+00 0.  1.
</event>
<event>
12    1  0.8406581E-002  0.1942765E+03  0.7818608E-02  0.1154660E+00
         21   -1    0    0  501  502  0.00000000000E+00  0.00000000000E+00  0.16548405243E+03  0.16548405243E+03  0.00000000000E+00 0. -1.
         21   -1    0    0  502  503 -0.00000000000E+00 -0.00000000000E+00 -0.40534967270E+03  0.40534967270E+03  0.00000000000E+00 0. -1.
         -6    2    1    2    0  503 -0.17061897592E+02 -0.88747050554E+02 -0.30868326137E+03  0.36473100291E+03  0.17197732787E+03 0.  0.
        -24    2    3    3    0    0 -0.47517088537E+02 -0.37223689755E+02 -0.28080229523E+03  0.29853724462E+03  0.81431447473E+02 0.  0.
          6    2    1    2  501    0  0.17061897592E+02  0.88747050554E+02  0.68817641107E+02  0.20610272222E+03  0.17197475701E+03 0.  0.
         24    2    5    5    0    0 -0.34441002343E+02  0.80518408237E+01  0.66561662440E+02  0.11023069807E+03  0.80432189497E+02 0.  0.
          5    1    5    5  501    0  0.51502899935E+02  0.80695209730E+02  0.22559786662E+01  0.95872024151E+02  0.47000000000E+01 0. -1.
        -11    1    6    6    0    0 -0.26288304819E+01 -0.30251254341E+02  0.48585732339E+02  0.57294175322E+02  0.00000000000E+00 0.  1.
         12    1    6    6    0    0 -0.31812171861E+02  0.38303095165E+02  0.17975930101E+02  0.52936522749E+02  0.00000000000E+00 0. -1.
         -5    1    3    3    0  503  0.30455190945E+02 -0.51523360799E+02 -0.27880966142E+02  0.66193758290E+02  0.47000000000E+01 0.  1.
         11    1    4    4    0    0 -0.64359605855E+01 -0.46467234401E+02 -0.21755287757E+03  0.22255309479E+03  0.00000000000E+00 0. -1.
        -12    1    4    4    0    0 -0.41081127952E+02  0.92435446456E+01 -0.63249417665E+02  0.75984149836E+02  0.00000000000E+00 0.  1.
</event>
<event>
12    1  0.8406581E-002  0.4034828E+03  0.7818608E-02  0.1042586E+00
         21   -1    0    0  503  502  0.00000000000E+00  0.00000000000E+00  0.65827414253E+03  0.65827414253E+03  0.00000000000E+00 0.  1.
         21   -1    0    0  501  503 -0.00000000000E+00 -0.00000000000E+00 -0.27477411003E+03  0.27477411003E+03  0.00000000000E+00 0. -1.
          6    2    1    2  501    0 -0.14611572151E+03 -0.33468192573E+03  0.33936995231E+03  0.52722892389E+03  0.17157091297E+03 0.  0.
         24    2    3    3    0    0 -0.13450330377E+03 -0.34192431281E+03  0.34627982612E+03  0.51119343910E+03  0.80035240850E+02 0.  0.
         -6    2    1    2    0  502  0.14611572151E+03  0.33468192573E+03  0.44130080192E+02  0.40581932866E+03  0.17140614941E+03 0.  0.
        -24    2    5    5    0    0  0.11572600647E+03  0.34177374138E+03  0.28441631440E+02  0.37057665490E+03  0.79475353943E+02 0.  0.
          5    1    3    3  501    0 -0.11612417742E+02  0.72423870862E+01 -0.69098738149E+01  0.16035484797E+02  0.47000000000E+01 0. -1.
        -11    1    4    4    0    0 -0.67035731365E+00 -0.79738395341E+02  0.96088875668E+02  0.12486686149E+03  0.00000000000E+00 0.  1.
         12    1    4    4    0    0 -0.13383294646E+03 -0.26218591747E+03  0.25019095045E+03  0.38632657761E+03  0.00000000000E+00 0. -1.
         -5    1    5    5    0  502  0.30389715043E+02 -0.70918156542E+01  0.15688448753E+02  0.35242673762E+02  0.47000000000E+01 0.  1.
         11    1    6    6    0    0  0.42742025221E+02  0.19949291115E+03 -0.15888076243E+02  0.20463805434E+03  0.00000000000E+00 0. -1.
        -12    1    6    6    0    0  0.72983981250E+02  0.14228083024E+03  0.44329707683E+02  0.16593860056E+03  0.00000000000E+00 0.  1.
</event>
<event>
12    1  0.8406581E-002  0.2614996E+03  0.7818608E-02  0.1106287E+00
         21   -1    0    0  501  502  0.00000000000E+00  0.00000000000E+00  0.36255989989E+03  0.36255989989E+03  0.00000000000E+00 0.  1.
         21   -1    0    0  502  503 -0.00000000000E+00 -0.00000000000E+00 -0.24322709522E+03  0.24322709522E+03  0.00000000000E+00 0. -1.
         -6    2    1    2    0  503 -0.16747020647E+03  0.10264271341E+03 -0.84106050092E+02  0.27469234572E+03  0.17262751942E+03 0.  0.
        -24    2    3    3    0    0 -0.49466776628E+01  0.32714391312E+02 -0.26078734319E+02  0.88431434565E+02  0.77751638032E+02 0.  0.
          6    2    1    2  501    0  0.16747020647E+03 -0.10264271341E+03  0.20343885476E+03  0.33109464939E+03  0.17220482733E+03 0.  0.
         24    2    5    5    0    0  0.91111957400E+02 -0.43134340032E+02  0.19623534155E+03  0.23390509591E+03  0.77725957999E+02 0.  0.
          5    1    5    5  501    0  0.76358249069E+02 -0.59508373382E+02  0.72035132105E+01  0.97189553482E+02  0.47000000000E+01 0. -1.
        -11    1    6    6    0    0  0.12258737612E+02  0.12698408773E+02  0.30581610962E+01  0.17913084115E+02  0.00000000000E+00 0.  1.
         12    1    6    6    0    0  0.78853219788E+02 -0.55832748805E+02  0.19317718046E+03  0.21599201179E+03  0.00000000000E+00 0. -1.
         -5    1    3    3    0  503 -0.16252352881E+03  0.69928322103E+02 -0.58027315773E+02  0.18626091115E+03  0.47000000000E+01 0.  1.
         11    1    4    4    0    0 -0.40411227229E+02  0.22990295685E+02 -0.21989920149E+02  0.51431289795E+02  0.00000000000E+00 0. -1.
        -12    1    4    4    0    0  0.35464549566E+02  0.97240956266E+01 -0.40888141697E+01  0.37000144770E+02  0.00000000000E+00 0.  1.
</event>
<event>
12    1  0.8406581E-002  0.1837555E+03  0.7818608E-02  0.1165872E+00
         21   -1    0    0  501  502  0.00000000000E+00  0.00000000000E+00  0.20763403878E+04  0.20763403878E+04  0.00000000000E+00 0. -1.
         21   -1    0    0  502  503 -0.00000000000E+00 -0.00000000000E+00 -0.34158914741E+02  0.34158914741E+02  0.00000000000E+00 0. -1.
         -6    2    1    2    0  503  0.46647959533E+02 -0.23771755588E+02  0.25350376713E+03  0.31309783173E+03  0.17613904675E+03 0.  0.
        -24    2    3    3    0    0 -0.43515219955E+02 -0.21757417196E+02  0.13108233538E+03  0.16097106404E+03  0.79763056853E+02 0.  0.
          6    2    1    2  501    0 -0.46647959533E+02  0.23771755588E+02  0.17886777059E+04  0.17974014708E+04  0.16894668720E+03 0.  0.
         24    2    5    5    0    0  0.26601377657E+02 -0.50587166740E+01  0.13510595379E+04  0.13527348400E+04  0.61615327841E+02 0.  0.
          5    1    5    5  501    0 -0.73249337190E+02  0.28830472262E+02  0.43761816806E+03  0.44466663079E+03  0.47000000000E+01 0. -1.
        -13    1    6    6    0    0  0.33040996497E+02 -0.11970068984E+02  0.37814599336E+03  0.37977543667E+03  0.00000000000E+00 0.  1.
         14    1    6    6    0    0 -0.64396188405E+01  0.69113523103E+01  0.97291354452E+03  0.97295940336E+03  0.00000000000E+00 0. -1.
         -5    1    3    3    0  503  0.90163179488E+02 -0.20143383918E+01  0.12242143175E+03  0.15212676769E+03  0.47000000000E+01 0.  1.
         13    1    4    4    0    0  0.19780131874E+02  0.80794305871E+01  0.17754431493E+02  0.27780400523E+02  0.00000000000E+00 0. -1.
        -14    1    4    4    0    0 -0.63295351829E+02 -0.29836847783E+02  0.11332790388E+03  0.13319066351E+03  0.00000000000E+00 0.  1.
</event>
<event>
12    1  0.8406581E-002  0.2425721E+03  0.7818608E-02  0.1118253E+00
         21   -1    0    0  501  502  0.00000000000E+00  0.00000000000E+00  0.38795005155E+03  0.38795005155E+03  0.00000000000E+00 0. -1.
         21   -1    0    0  502  503 -0.00000000000E+00 -0.00000000000E+00 -0.15320057052E+03  0.15320057052E+03  0.00000000000E+00 0. -1.
         -6    2    1    2    0  503 -0.16595681261E+02 -0.16840910937E+03  0.85129012880E+02  0.25614624476E+03  0.17241492139E+03 0.  0.
        -24    2    3    3    0    0  0.21982759185E+02 -0.15845449405E+03  0.10899444709E+03  0.20946606285E+03  0.80032328482E+02 0.  0.
          6    2    1    2  501    0  0.16595681261E+02  0.16840910937E+03  0.14962046815E+03  0.28500437731E+03  0.17379345743E+03 0.  0.
         24    2    5    5    0    0 -0.50143865632E+02  0.59509172223E+02  0.43938660330E+02  0.11916078252E+03  0.78822188378E+02 0.  0.
          5    1    5    5  501    0  0.66739546892E+02  0.10889993714E+03  0.10568180782E+03  0.16584359479E+03  0.47000000000E+01 0. -1.
        -11    1    6    6    0    0  0.92181737090E+00  0.41707207520E+02 -0.98730709816E+01  0.42869784662E+02  0.00000000000E+00 0.  1.
         12    1    6    6    0    0 -0.51065683003E+02  0.17801964703E+02  0.53811731311E+02  0.76290997861E+02  0.00000000000E+00 0. -1.
         -5    1    3    3    0  503 -0.38578440445E+02 -0.99546153169E+01 -0.23865434212E+02  0.46680181913E+02  0.47000000000E+01 0.  1.
         11    1    4    4    0    0 -0.23286001859E+02 -0.10641001975E+03  0.77216742858E+02  0.13352061850E+03  0.00000000000E+00 0. -1.
        -12    1    4    4    0    0  0.45268761044E+02 -0.52044474300E+02  0.31777704234E+02  0.75945444353E+02  0.00000000000E+00 0.  1.
</event>
<event>
12    1  0.8406581E-002  0.2606335E+03  0.7818608E-02  0.1106841E+00
         21   -1    0    0  501  502  0.00000000000E+00  0.00000000000E+00  0.79700935047E+03  0.79700935047E+03  0.00000000000E+00 0. -1.
         21   -1    0    0  502  503 -0.00000000000E+00 -0.00000000000E+00 -0.97626440815E+02  0.97626440815E+02  0.00000000000E+00 0.  1.
         -6    2    1    2    0  503  0.66369252045E+02  0.18440514682E+03  0.18890690707E+03  0.32147301228E+03  0.17102322151E+03 0.  0.
        -24    2    3    3    0    0  0.83500182993E+01  0.13481653353E+03  0.18738503588E+03  0.24498988902E+03  0.81619075781E+02 0.  0.
          6    2    1    2  501    0 -0.66369252045E+02 -0.18440514682E+03  0.51047600259E+03  0.57316277900E+03  0.17181293963E+03 0.  0.
         24    2    5    5    0    0 -0.34684208301E+02 -0.45003626255E+02  0.10382826814E+03  0.14209295187E+03  0.78624277577E+02 0.  0.
          5    1    5    5  501    0 -0.31685043744E+02 -0.13940152057E+03  0.40664773445E+03  0.43106982713E+03  0.47000000000E+01 0. -1.
        -13    1    6    6    0    0 -0.10732218121E+02 -0.58561779774E+02  0.96870833711E+02  0.11370409395E+03  0.00000000000E+00 0.  1.
         14    1    6    6    0    0 -0.23951990181E+02  0.13558153519E+02  0.69574344296E+01  0.28388857925E+02  0.00000000000E+00 0. -1.
         -5    1    3    3    0  503  0.58019233746E+02  0.49588613289E+02  0.15218711907E+01  0.76483123264E+02  0.47000000000E+01 0.  1.
         11    1    4    4    0    0  0.42233780940E+01  0.33174904310E+02  0.11597924766E+03  0.12070458602E+03  0.00000000000E+00 0. -1.
        -12    1    4    4    0    0  0.41266402053E+01  0.10164162922E+03  0.71405788215E+02  0.12428530300E+03  0.00000000000E+00 0.  1.
</event>
<event>
12    1  0.8406581E-002  0.1956915E+03  0.7818608E-02  0.1155236E+00
         21   -1    0    0  503  502  0.00000000000E+00  0.00000000000E+00  0.22219194898E+03  0.22219194898E+03  0.00000000000E+00 0. -1.
         21   -1    0    0  501  503 -0.00000000000E+00 -0.00000000000E+00 -0.19204452115E+03  0.19204452115E+03  0.00000000000E+00 0. -1.
          6    2    1    2  501    0 -0.20278718798E+02  0.74467113603E+02 -0.62008204414E+02  0.20528072143E+03  0.17982930721E+03 0.  0.
         24    2    3    3    0    0 -0.47699380509E+02  0.38696138486E+02  0.28461919878E+02  0.10409579795E+03  0.79077381300E+02 0.  0.
         -6    2    1    2    0  502  0.20278718798E+02 -0.74467113603E+02  0.92155632247E+02  0.20895574870E+03  0.17091888987E+03 0.  0.
        -24    2    5    5    0    0  0.10266461905E+02 -0.49413073372E+01 -0.69018430464E+01  0.87429799059E+02  0.86409013232E+02 0.  0.
          5    1    3    3  501    0  0.27420661711E+02  0.35770975117E+02 -0.90470124292E+02  0.10118492348E+03  0.47000000000E+01 0. -1.
        -13    1    4    4    0    0  0.19636739131E+02  0.14068525979E+02  0.21003376853E+02  0.32010416839E+02  0.00000000000E+00 0.  1.
         14    1    4    4    0    0 -0.67336119640E+02  0.24627612507E+02  0.74585430247E+01  0.72085381112E+02  0.00000000000E+00 0. -1.
         -5    1    5    5    0  502  0.10012256893E+02 -0.69525806266E+02  0.99057475293E+02  0.12152594964E+03  0.47000000000E+01 0.  1.
         13    1    6    6    0    0  0.31017720812E+02 -0.35877764088E+02 -0.14122398943E+02  0.49484897820E+02  0.00000000000E+00 0. -1.
        -14    1    6    6    0    0 -0.20751258908E+02  0.30936456751E+02  0.72205558970E+01  0.37944901239E+02  0.00000000000E+00 0.  1.
</event>
<event>
12    1  0.8406581E-002  0.2100380E+03  0.7818608E-02  0.1141571E+00
         21   -1    0    0  501  502  0.00000000000E+00  0.00000000000E+00  0.28245429440E+03  0.28245429440E+03  0.00000000000E+00 0. -1.
         21   -1    0    0  502  503 -0.00000000000E+00 -0.00000000000E+00 -0.20692261028E+03  0.20692261028E+03  0.00000000000E+00 0.  1.
         -6    2    1    2    0  503  0.43374933582E+02 -0.11303505499E+03 -0.83541940782E+02  0.22604250655E+03  0.17163231159E+03 0.  0.
        -24    2    3    3    0    0  0.85714330617E+01  0.57847172687E+01 -0.58705643196E+02  0.99676555423E+02  0.79888239055E+02 0.  0.
          6    2    1    2  501    0 -0.43374933582E+02  0.11303505499E+03  0.15907362491E+03  0.26333439812E+03  0.17141259748E+03 0.  0.
         24    2    5    5    0    0  0.30917628701E+01  0.38683832007E+02  0.14536701780E+03  0.17446809790E+03  0.88326380330E+02 0.  0.
          5    1    5    5  501    0 -0.46466696452E+02  0.74351222980E+02  0.13706607102E+02  0.88866300227E+02  0.47000000000E+01 0. -1.
        -11    1    6    6    0    0 -0.13464362594E+02 -0.44163366339E+01 -0.66074545052E+01  0.15634946254E+02  0.00000000000E+00 0.  1.
         12    1    6    6    0    0  0.16556125464E+02  0.43100168641E+02  0.15197447231E+03  0.15883315164E+03  0.00000000000E+00 0. -1.
         -5    1    3    3    0  503  0.34803500520E+02 -0.11881977226E+03 -0.24836297586E+02  0.12636595113E+03  0.47000000000E+01 0.  1.
         13    1    4    4    0    0 -0.16384505189E+02 -0.39366996787E+01 -0.68966846283E+02  0.70995601983E+02  0.00000000000E+00 0. -1.
        -14    1    4    4    0    0  0.24955938251E+02  0.97214169474E+01  0.10261203087E+02  0.28680953440E+02  0.00000000000E+00 0.  1.
</event>
<event>
12    1  0.8406581E-002  0.2452063E+03  0.7818608E-02  0.1116586E+00
         21   -1    0    0  503  502  0.00000000000E+00  0.00000000000E+00  0.60133666369E+03  0.60133666369E+03  0.00000000000E+00 0.  1.
         21   -1    0    0  501  503 -0.00000000000E+00 -0.00000000000E+00 -0.11607535596E+03  0.11607535596E+03  0.00000000000E+00 0.  1.
          6    2    1    2  501    0 -0.16089169979E+03  0.63888670702E+02  0.10744592597E+03  0.26771398513E+03  0.17366130692E+03 0.  0.
         24    2    3    3    0    0 -0.93552155944E+02  0.81223716466E+01 -0.49700504319E+01  0.12522210457E+03  0.82691567089E+02 0.  0.
         -6    2    1    2    0  502  0.16089169979E+03 -0.63888670702E+02  0.37781538176E+03  0.44969803452E+03  0.17180209037E+03 0.  0.
        -24    2    5    5    0    0  0.37631790166E+02 -0.77451293844E+02  0.16008648150E+03  0.19908894834E+03  0.81202667720E+02 0.  0.
          5    1    3    3  501    0 -0.67339543845E+02  0.55766299055E+02  0.11241597641E+03  0.14249188056E+03  0.47000000000E+01 0. -1.
        -13    1    4    4    0    0 -0.10300117727E+03  0.16279734809E+01  0.13077125575E+02  0.10384076285E+03  0.00000000000E+00 0.  1.
         14    1    4    4    0    0  0.94490213265E+01  0.64943981657E+01 -0.18047176007E+02  0.21381341712E+02  0.00000000000E+00 0. -1.
         -5    1    5    5    0  502  0.12325990962E+03  0.13562623142E+02  0.21772890026E+03  0.25060908618E+03  0.47000000000E+01 0.  1.
         11    1    6    6    0    0 -0.23074825717E+02 -0.56216853533E+01  0.40523673209E+02  0.46970405772E+02  0.00000000000E+00 0. -1.
        -12    1    6    6    0    0  0.60706615883E+02 -0.71829608490E+02  0.11956280829E+03  0.15211854257E+03  0.00000000000E+00 0.  1.
</event>
<event>
12    1  0.8406581E-002  0.2701997E+03  0.7818608E-02  0.1101255E+00
         21   -1    0    0  501  502  0.00000000000E+00  0.00000000000E+00  0.24289369495E+03  0.24289369495E+03  0.00000000000E+00 0.  1.
         21   -1    0    0  502  503 -0.00000000000E+00 -0.00000000000E+00 -0.30122209991E+03  0.30122209991E+03  0.00000000000E+00 0.  1.
         -6    2    1    2    0  503  0.14425198084E+03 -0.15097497089E+03 -0.47385749301E+02  0.27432334813E+03  0.17148123595E+03 0.  0.
        -24    2    3    3    0    0  0.72818197122E+02 -0.46194452483E+02  0.34494379930E+02  0.12329954850E+03  0.81095617272E+02 0.  0.
          6    2    1    2  501    0 -0.14425198084E+03  0.15097497089E+03 -0.10942655656E+02  0.26979244674E+03  0.17048796671E+03 0.  0.
         24    2    5    5    0    0 -0.68335304262E+01  0.77938772850E+02 -0.29006001845E+02  0.11305543384E+03  0.76282589922E+02 0.  0.
          5    1    5    5  501    0 -0.13741845041E+03  0.73036198036E+02  0.18063346188E+02  0.15673701290E+03  0.47000000000E+01 0. -1.
        -11    1    6    6    0    0 -0.39789113055E+02  0.55392800516E+02 -0.26080122312E+02  0.73018550017E+02  0.00000000000E+00 0.  1.
         12    1    6    6    0    0  0.32955582629E+02  0.22545972334E+02 -0.29258795324E+01  0.40036883819E+02  0.00000000000E+00 0. -1.
         -5    1    3    3    0  503  0.71433783716E+02 -0.10478051840E+03 -0.81880129230E+02  0.15102379963E+03  0.47000000000E+01 0.  1.
         13    1    4    4    0    0  0.25949421640E+02 -0.45002153940E+02  0.51764710082E+02  0.73335881754E+02  0.00000000000E+00 0. -1.
        -14    1    4    4    0    0  0.46868775482E+02 -0.11922985430E+01 -0.17270330152E+02  0.49963666744E+02  0.00000000000E+00 0.  1.
</event>
<event>
12    1  0.8406581E-002  0.2310359E+03  0.7818608E-02  0.1125960E+00
         21   -1    0    0  503  502  0.00000000000E+00  0.00000000000E+00  0.73197268808E+03  0.73197268808E+03  0.00000000000E+00 0. -1.
         21   -1    0    0  501  503 -0.00000000000E+00 -0.00000000000E+00 -0.87203418608E+02  0.87203418608E+02  0.00000000000E+00 0. -1.
          6    2    1    2  501    0 -0.30470887030E+01 -0.15146791720E+03  0.15630041275E+03  0.27893975178E+03  0.17442978934E+03 0.  0.
         24    2    3    3    0    0  0.57135520989E+02 -0.11399181245E+03  0.14106434041E+03  0.20627178885E+03  0.79939362491E+02 0.  0.
         -6    2    1    2    0  502  0.30470887030E+01  0.15146791720E+03  0.48846885672E+03  0.54023635490E+03  0.17407377886E+03 0.  0.
        -24    2    5    5    0    0 -0.26877344007E+01  0.18095806405E+03  0.40953198782E+03  0.45564512470E+03  0.84516186307E+02 0.  0.
          5    1    3    3  501    0 -0.60182609692E+02 -0.37476104749E+02  0.15236072342E+02  0.72667962934E+02  0.47000000000E+01 0. -1.
        -13    1    4    4    0    0 -0.10959083899E+02 -0.68949011591E+01  0.45768781110E+02  0.47564929372E+02  0.00000000000E+00 0.  1.
         14    1    4    4    0    0  0.68094604888E+02 -0.10709691129E+03  0.95295559298E+02  0.15870685947E+03  0.00000000000E+00 0. -1.
         -5    1    5    5    0  502  0.57348231037E+01 -0.29490146850E+02  0.78936868894E+02  0.84591230208E+02  0.47000000000E+01 0.  1.
         13    1    6    6    0    0 -0.12506284510E+02  0.57010577573E+02  0.56000870444E+02  0.80887023669E+02  0.00000000000E+00 0. -1.
        -14    1    6    6    0    0  0.98185501094E+01  0.12394748647E+03  0.35353111738E+03  0.37475810103E+03  0.00000000000E+00 0.  1.
</event>
<event>
12    1  0.8406581E-002  0.1921728E+03  0.7818608E-02  0.1156895E+00
         21   -1    0    0  503  502  0.00000000000E+00  0.00000000000E+00  0.16293747615E+03  0.16293747615E+03  0.00000000000E+00 0.  1.
         21   -1    0    0  501  503 -0.00000000000E+00 -0.00000000000E+00 -0.23109439265E+03  0.23109439265E+03  0.00000000000E+00 0.  1.
          6    2    1    2  501    0  0.32892616892E+02 -0.78977176280E+02 -0.67116520042E+02  0.20355594167E+03  0.17207868987E+03 0.  0.
         24    2    3    3    0    0  0.64363243837E+02 -0.57604912774E+02 -0.99521685851E+02  0.15336272720E+03  0.78451303413E+02 0.  0.
         -6    2    1    2    0  502 -0.32892616892E+02  0.78977176280E+02 -0.10403964555E+01  0.19047592712E+03  0.17017837045E+03 0.  0.
        -24    2    5    5    0    0 -0.28285626591E+02 -0.21677372121E+02  0.19609694975E+02  0.87514386975E+02  0.77487048316E+02 0.  0.
          5    1    3    3  501    0 -0.31470626945E+02 -0.21372263506E+02  0.32405165809E+02  0.50193214470E+02  0.47000000000E+01 0. -1.
        -13    1    4    4    0    0 -0.58372796800E+01 -0.37348092551E+02 -0.58268804761E+02  0.69456514882E+02  0.00000000000E+00 0.  1.
         14    1    4    4    0    0  0.70200523517E+02 -0.20256820224E+02 -0.41252881090E+02  0.83906212320E+02  0.00000000000E+00 0. -1.
         -5    1    5    5    0  502 -0.46069903009E+01  0.10065454840E+03 -0.20650091431E+02  0.10296154015E+03  0.47000000000E+01 0.  1.
         11    1    6    6    0    0  0.26093293910E+02 -0.21000033152E+01  0.13336918405E+02  0.29379302128E+02  0.00000000000E+00 0. -1.
        -12    1    6    6    0    0 -0.54378920501E+02 -0.19577368806E+02  0.62727765702E+01  0.58135084846E+02  0.00000000000E+00 0.  1.
</event>
<event>
12    1  0.8406581E-002  0.1784934E+03  0.7818608E-02  0.1169835E+00
         21   -1    0    0  503  502  0.00000000000E+00  0.00000000000E+00  0.31988018482E+02  0.31988018482E+02  0.00000000000E+00 0.  1.
         21   -1    0    0  501  503 -0.00000000000E+00 -0.00000000000E+00 -0.11121915583E+04  0.11121915583E+04  0.00000000000E+00 0.  1.
          6    2    1    2  501    0  0.13961333505E+02 -0.47641014862E+02 -0.73800537583E+03  0.75928376492E+03  0.17145062199E+03 0.  0.
         24    2    3    3    0    0  0.33182752390E+02  0.28354971037E+01 -0.65071106515E+03  0.65652322832E+03  0.80552615831E+02 0.  0.
         -6    2    1    2    0  502 -0.13961333505E+02  0.47641014862E+02 -0.34219816398E+03  0.38489581185E+03  0.16905802975E+03 0.  0.
        -24    2    5    5    0    0 -0.70863203400E+02  0.22785370745E+02 -0.17428485773E+03  0.20580758148E+03  0.80254484277E+02 0.  0.
          5    1    3    3  501    0 -0.19221418885E+02 -0.50476511966E+02 -0.87294310682E+02  0.10276053660E+03  0.47000000000E+01 0. -1.
        -11    1    4    4    0    0 -0.46595054308E+00 -0.27600733694E+02 -0.44558206044E+03  0.44643632267E+03  0.00000000000E+00 0.  1.
         12    1    4    4    0    0  0.33648702933E+02  0.30436230798E+02 -0.20512900471E+03  0.21008690565E+03  0.00000000000E+00 0. -1.
         -5    1    5    5    0  502  0.56901869895E+02  0.24855644117E+02 -0.16791330625E+03  0.17908823037E+03  0.47000000000E+01 0.  1.
         11    1    6    6    0    0 -0.10690362424E+02  0.35706298534E+02 -0.11285880984E+03  0.11885425765E+03  0.00000000000E+00 0. -1.
        -12    1    6    6    0    0 -0.60172840976E+02 -0.12920927789E+02 -0.61426047889E+02  0.86953323831E+02  0.00000000000E+00 0.  1.
</event>
<event>
12    1  0.8406581E-002  0.1931559E+03  0.7818608E-02  0.1155780E+00
         21   -1    0    0  501  502  0.00000000000E+00  0.00000000000E+00  0.10776013650E+03  0.10776013650E+03  0.00000000000E+00 0. -1.
         21   -1    0    0  502  503 -0.00000000000E+00 -0.00000000000E+00 -0.69297575178E+03  0.69297575178E+03  0.00000000000E+00 0. -1.
         -6    2    1    2    0  503  0.75335753215E+02  0.43164771473E+02 -0.57603300794E+03  0.60736182250E+03  0.17185948908E+03 0.  0.
        -24    2    3    3    0    0  0.27997755692E+02 -0.16494939285E+02 -0.45785594556E+03  0.46669172913E+03  0.84339467663E+02 0.  0.
          6    2    1    2  501    0 -0.75335753215E+02 -0.43164771473E+02 -0.91826073336E+01  0.19337406578E+03  0.17254140323E+03 0.  0.
         24    2    5    5    0    0 -0.11219718195E+03 -0.44918012860E+02 -0.23413067404E+02  0.15354399200E+03  0.91770094462E+02 0.  0.
          5    1    5    5  501    0  0.36861428731E+02  0.17532413873E+01  0.14230460070E+02  0.39830073779E+02  0.47000000000E+01 0. -1.
        -11    1    6    6    0    0 -0.81409224741E+02 -0.62320421610E+01 -0.51644373169E+02  0.96609738135E+02  0.00000000000E+00 0.  1.
         12    1    6    6    0    0 -0.30787957205E+02 -0.38685970699E+02  0.28231305765E+02  0.56934253863E+02  0.00000000000E+00 0. -1.
         -5    1    3    3    0  503  0.47337997523E+02  0.59659710758E+02 -0.11817706238E+03  0.14067009338E+03  0.47000000000E+01 0.  1.
         13    1    4    4    0    0  0.55799779058E+02 -0.17252264716E+01 -0.34661006740E+03  0.35107710061E+03  0.00000000000E+00 0. -1.
        -14    1    4    4    0    0 -0.27802023366E+02 -0.14769712814E+02 -0.11124587816E+03  0.11561462852E+03  0.00000000000E+00 0.  1.
</event>
<event>
12    1  0.8406581E-002  0.1742932E+03  0.7818608E-02  0.1173599E+00
         21   -1    0    0  503  502  0.00000000000E+00  0.00000000000E+00  0.22669144085E+02  0.22669144085E+02  0.00000000000E+00 0. -1.
         21   -1    0    0  501  503 -0.00000000000E+00 -0.00000000000E+00 -0.13679225492E+04  0.13679225492E+04  0.00000000000E+00 0. -1.
          6    2    1    2  501    0 -0.11404627023E+02  0.27064664528E+02 -0.56412448183E+03  0.59025395262E+03  0.17117457757E+03 0.  0.
         24    2    3    3    0    0 -0.29302135720E+02  0.70153855618E+02 -0.49262784242E+03  0.50475039332E+03  0.79439220899E+02 0.  0.
         -6    2    1    2    0  502  0.11404627023E+02 -0.27064664528E+02 -0.78112892330E+03  0.80033774067E+03  0.17180088110E+03 0.  0.
        -24    2    5    5    0    0 -0.12600731746E+02 -0.59415235876E+02 -0.71989646853E+03  0.72689170448E+03  0.80197730253E+02 0.  0.
          5    1    3    3  501    0  0.17897508697E+02 -0.43089191089E+02 -0.71496639406E+02  0.85503559298E+02  0.47000000000E+01 0. -1.
        -11    1    4    4    0    0 -0.45210922240E+02  0.81423700147E+01 -0.20616700162E+03  0.21122300594E+03  0.00000000000E+00 0.  1.
         12    1    4    4    0    0  0.15908786520E+02  0.62011485603E+02 -0.28646084080E+03  0.29352738739E+03  0.00000000000E+00 0. -1.
         -5    1    5    5    0  502  0.24005358769E+02  0.32350571347E+02 -0.61232454766E+02  0.73446036195E+02  0.47000000000E+01 0.  1.
         13    1    6    6    0    0 -0.40266958670E+02 -0.13559299322E+02 -0.42963938931E+03  0.43173520520E+03  0.00000000000E+00 0. -1.
        -14    1    6    6    0    0  0.27666226924E+02 -0.45855936553E+02 -0.29025707922E+03  0.29515649928E+03  0.00000000000E+00 0.  1.
</event>
<event>
12    1  0.8406581E-002  0.1878269E+03  0.7818608E-02  0.1160658E+00
         21   -1    0    0  501  502  0.00000000000E+00  0.00000000000E+00  0.44841157441E+02  0.44841157441E+02  0.00000000000E+00 0. -1.
         21   -1    0    0  502  503 -0.00000000000E+00 -0.00000000000E+00 -0.10526120257E+04  0.10526120257E+04  0.00000000000E+00 0. -1.
         -6    2    1    2    0  503 -0.92313904174E+01 -0.72087042782E+02 -0.78271376160E+03  0.80493464450E+03  0.17319696593E+03 0.  0.
        -24    2    3    3    0    0  0.96760457178E+01 -0.77387390979E+02 -0.27491694441E+03  0.29673657054E+03  0.79942678370E+02 0.  0.
          6    2    1    2  501    0  0.92313904174E+01  0.72087042782E+02 -0.22505710665E+03  0.29251853863E+03  0.17214712860E+03 0.  0.
         24    2    5    5    0    0 -0.38093129598E+02  0.98176763146E+02 -0.16715262391E+03  0.21317559424E+03  0.80087895191E+02 0.  0.
          5    1    5    5  501    0  0.47324520016E+02 -0.26089720364E+02 -0.57904482737E+02  0.79342944390E+02  0.47000000000E+01 0. -1.
        -13    1    6    6    0    0  0.10647992582E+01  0.16063296163E+02 -0.96917552168E+02  0.98245484371E+02  0.00000000000E+00 0.  1.
         14    1    6    6    0    0 -0.39157928857E+02  0.82113466984E+02 -0.70235071741E+02  0.11493010987E+03  0.00000000000E+00 0. -1.
         -5    1    3    3    0  503 -0.18907436135E+02  0.53003481968E+01 -0.50779681718E+03  0.50819807396E+03  0.47000000000E+01 0.  1.
         13    1    4    4    0    0  0.27000859905E+02 -0.16918857486E+02 -0.29624699610E+02  0.43507666005E+02  0.00000000000E+00 0. -1.
        -14    1    4    4    0    0 -0.17324814187E+02 -0.60468533493E+02 -0.24529224480E+03  0.25322890453E+03  0.00000000000E+00 0.  1.
</event>
<event>
12    1  0.8406581E-002  0.1837949E+03  0.7818608E-02  0.1164214E+00
         21   -1    0    0  503  502  0.00000000000E+00  0.00000000000E+00  0.70994174713E+02  0.70994174713E+02  0.00000000000E+00 0.  1.
         21   -1    0    0  501  503 -0.00000000000E+00 -0.00000000000E+00 -0.53515236644E+03  0.53515236644E+03  0.00000000000E+00 0.  1.
          6    2    1    2  501    0 -0.33330451668E+02  0.53884046283E+02 -0.33339106102E+03  0.38069694144E+03  0.17252869964E+03 0.  0.
         24    2    3    3    0    0  0.26015570034E+02  0.69084667590E+02 -0.17179202603E+03  0.20781158263E+03  0.90684356357E+02 0.  0.
         -6    2    1    2    0  502  0.33330451668E+02 -0.53884046283E+02 -0.13076713071E+03  0.22544959971E+03  0.17237479539E+03 0.  0.
        -24    2    5    5    0    0 -0.14174876808E+02 -0.44044044066E+02 -0.14751100348E+03  0.17391292197E+03  0.79658039950E+02 0.  0.
          5    1    3    3  501    0 -0.59346021702E+02 -0.15200621307E+02 -0.16159903499E+03  0.17288535881E+03  0.47000000000E+01 0. -1.
        -13    1    4    4    0    0  0.10953299824E+02  0.71005781273E+02 -0.17757873539E+03  0.19156200827E+03  0.00000000000E+00 0.  1.
         14    1    4    4    0    0  0.15062270211E+02 -0.19211136838E+01  0.57867093569E+01  0.16249574359E+02  0.00000000000E+00 0. -1.
         -5    1    5    5    0  502  0.47505328476E+02 -0.98400022171E+01  0.16743872780E+02  0.51536677744E+02  0.47000000000E+01 0.  1.
         11    1    6    6    0    0 -0.45892213761E+02 -0.16329936104E+02 -0.64494758669E+02  0.80822868006E+02  0.00000000000E+00 0. -1.
        -12    1    6    6    0    0  0.31717336953E+02 -0.27714107961E+02 -0.83016244816E+02  0.93090053963E+02  0.00000000000E+00 0.  1.
</event>
<event>
12    1  0.8406581E-002  0.1936751E+03  0.7818608E-02  0.1155302E+00
         21   -1    0    0  501  502  0.00000000000E+00  0.00000000000E+00  0.52571650378E+02  0.52571650378E+02  0.00000000000E+00 0.  1.
         21   -1    0    0  502  503 -0.00000000000E+00 -0.00000000000E+00 -0.74523650845E+03  0.74523650845E+03  0.00000000000E+00 0.  1.
         -6    2    1    2    0  503 -0.89452229836E+02  0.34726813430E+01 -0.43152770206E+03  0.47299702416E+03  0.17174477074E+03 0.  0.
        -24    2    3    3    0    0  0.23351808946E+01  0.48400556509E+02 -0.21420018085E+03  0.23279547501E+03  0.77226606624E+02 0.  0.
          6    2    1    2  501    0  0.89452229836E+02 -0.34726813430E+01 -0.26113715601E+03  0.32481113467E+03  0.17116044525E+03 0.  0.
         24    2    5    5    0    0  0.19258060701E+01  0.42629439306E+02 -0.82936156197E+02  0.12093870711E+03  0.76985628837E+02 0.  0.
          5    1    5    5  501    0  0.87526423766E+02 -0.46102120649E+02 -0.17820099981E+03  0.20387242756E+03  0.47000000000E+01 0. -1.
        -11    1    6    6    0    0  0.36658861438E+02  0.37996470593E+02 -0.45999811716E+02  0.70025613724E+02  0.00000000000E+00 0.  1.
         12    1    6    6    0    0 -0.34733055368E+02  0.46329687122E+01 -0.36936344481E+02  0.50913093383E+02  0.00000000000E+00 0. -1.
         -5    1    3    3    0  503 -0.91787410730E+02 -0.44927875166E+02 -0.21732752122E+03  0.24020154915E+03  0.47000000000E+01 0.  1.
         13    1    4    4    0    0  0.39507718945E+02  0.23581460621E+02 -0.12035501744E+03  0.12884981709E+03  0.00000000000E+00 0. -1.
        -14    1    4    4    0    0 -0.37172538050E+02  0.24819095888E+02 -0.93845163409E+02  0.10394565792E+03  0.00000000000E+00 0.  1.
</event>
<event>
12    1  0.8406581E-002  0.2542243E+03  0.7818608E-02  0.1110865E+00
         21   -1    0    0  503  502  0.00000000000E+00  0.00000000000E+00  0.19925466268E+03  0.19925466268E+03  0.00000000000E+00 0. -1.
         21   -1    0    0  501  503 -0.00000000000E+00 -0.00000000000E+00 -0.34273434185E+03  0.34273434185E+03  0.00000000000E+00 0.  1.
          6    2    1    2  501    0  0.18023276870E+03 -0.46997572323E+02 -0.64054959490E+01  0.25430498770E+03  0.17302419967E+03 0.  0.
         24    2    3    3    0    0  0.13297369075E+03 -0.88078207139E+02 -0.40746422389E+02  0.18273384662E+03  0.79319699697E+02 0.  0.
         -6    2    1    2    0  502 -0.18023276870E+03  0.46997572323E+02 -0.13707418322E+03  0.28768401683E+03  0.17111440360E+03 0.  0.
        -24    2    5    5    0    0 -0.10283722055E+03  0.71253612447E+02 -0.26673460034E+02  0.15061164166E+03  0.79497307605E+02 0.  0.
          5    1    3    3  501    0  0.47259077953E+02  0.41080634817E+02  0.34340926440E+02  0.71571141074E+02  0.47000000000E+01 0. -1.
        -11    1    4    4    0    0  0.12183424003E+02  0.35966366420E+01 -0.27772977439E+02  0.30540299465E+02  0.00000000000E+00 0.  1.
         12    1    4    4    0    0  0.12079026675E+03 -0.91674843781E+02 -0.12973444950E+02  0.15219354716E+03  0.00000000000E+00 0. -1.
         -5    1    5    5    0  502 -0.77395548149E+02 -0.24256040124E+02 -0.11040072318E+03  0.13707237517E+03  0.47000000000E+01 0.  1.
         13    1    6    6    0    0 -0.11098923723E+03  0.45305836055E+02 -0.14295992720E+02  0.12072947018E+03  0.00000000000E+00 0. -1.
        -14    1    6    6    0    0  0.81520166768E+01  0.25947776392E+02 -0.12377467314E+02  0.29882171485E+02  0.00000000000E+00 0.  1.
</event>
<event>
12    1  0.8406581E-002  0.1863334E+03  0.7818608E-02  0.1161840E+00
         21   -1    0    0  503  502  0.00000000000E+00  0.00000000000E+00  0.35404224357E+02  0.35404224357E+02  0.00000000000E+00 0.  1.
         21   -1    0    0  501  503 -0.00000000000E+00 -0.00000000000E+00 -0.16756656778E+04  0.16756656778E+04  0.00000000000E+00 0.  1.
          6    2    1    2  501    0 -0.51778407917E+02  0.48090943259E+02 -0.13712094276E+04  0.13837945865E+04  0.17227426062E+03 0.  0.
         24    2    3    3    0    0 -0.94817145895E+02  0.70878526563E+02 -0.83069197132E+03  0.84106738294E+03  0.57715983393E+02 0.  0.
         -6    2    1    2    0  502  0.51778407917E+02 -0.48090943259E+02 -0.26905202579E+03  0.32727531563E+03  0.17241344868E+03 0.  0.
        -24    2    5    5    0    0 -0.15408169136E+02 -0.66144564022E+02 -0.10335221650E+03  0.14750188557E+03  0.80390363623E+02 0.  0.
          5    1    3    3  501    0  0.43038737978E+02 -0.22787583304E+02 -0.54051745631E+03  0.54272720357E+03  0.47000000000E+01 0. -1.
        -11    1    4    4    0    0 -0.36545297716E+02  0.61110817954E+02 -0.51430687646E+03  0.51921253262E+03  0.00000000000E+00 0.  1.
         12    1    4    4    0    0 -0.58271848180E+02  0.97677086091E+01 -0.31638509486E+03  0.32185485032E+03  0.00000000000E+00 0. -1.
         -5    1    5    5    0  502  0.67186577053E+02  0.18053620763E+02 -0.16569980928E+03  0.17977343006E+03  0.47000000000E+01 0.  1.
         11    1    6    6    0    0 -0.24856152655E+02 -0.48621458619E+02 -0.11290779765E+03  0.12541947749E+03  0.00000000000E+00 0. -1.
        -12    1    6    6    0    0  0.94479835184E+01 -0.17523105403E+02  0.95555811454E+01  0.22082408079E+02  0.00000000000E+00 0.  1.
</event>
<event>
12    1  0.8406581E-002  0.2174150E+03  0.7818608E-02  0.1135839E+00
         21   -1    0    0  503  502  0.00000000000E+00  0.00000000000E+00  0.13659874743E+04  0.13659874743E+04  0.00000000000E+00 0.  1.
         21   -1    0    0  501  503 -0.00000000000E+00 -0.00000000000E+00 -0.57467232412E+02  0.57467232412E+02  0.00000000000E+00 0.  1.
          6    2    1    2  501    0 -0.98445434267E+02 -0.89305329455E+02  0.20529331529E+03  0.29902278554E+03  0.17205329283E+03 0.  0.
         24    2    3    3    0    0 -0.73029384788E+02 -0.94408412995E+02  0.22490839451E+03  0.26617680610E+03  0.77589088767E+02 0.  0.
         -6    2    1    2    0  502  0.98445434267E+02  0.89305329455E+02  0.11032269266E+04  0.11244319211E+04  0.17196089198E+03 0.  0.
        -24    2    5    5    0    0  0.53815502514E+02 -0.14208655635E+01  0.30135394417E+03  0.31619591404E+03  0.79167728387E+02 0.  0.
          5    1    3    3  501    0 -0.25416049479E+02  0.51030835403E+01 -0.19615079224E+02  0.32845979445E+02  0.47000000000E+01 0. -1.
        -11    1    4    4    0    0 -0.51741807169E+02 -0.20580658612E+02  0.14498151362E+03  0.15530749308E+03  0.00000000000E+00 0.  1.
         12    1    4    4    0    0 -0.21287577619E+02 -0.73827754383E+02  0.79926880895E+02  0.11086931301E+03  0.00000000000E+00 0. -1.
         -5    1    5    5    0  502  0.44629931753E+02  0.90726195019E+02  0.80187298239E+03  0.80823600709E+03  0.47000000000E+01 0.  1.
         13    1    6    6    0    0  0.47789838321E+02  0.34693820647E+02  0.18017103486E+03  0.18960256233E+03  0.00000000000E+00 0. -1.
        -14    1    6    6    0    0  0.60256641929E+01 -0.36114686211E+02  0.12118290930E+03  0.12659335171E+03  0.00000000000E+00 0.  1.
</event>
<event>
12    1  0.8406581E-002  0.2471477E+03  0.7818608E-02  0.1115132E+00
         21   -1    0    0  503  502  0.00000000000E+00  0.00000000000E+00  0.11557214023E+04  0.11557214023E+04  0.00000000000E+00 0. -1.
         21   -1    0    0  501  503 -0.00000000000E+00 -0.00000000000E+00 -0.16297152222E+03  0.16297152222E+03  0.00000000000E+00 0. -1.
          6    2    1    2  501    0 -0.16093164723E+02  0.17752694179E+03 -0.45628360486E+02  0.25132431212E+03  0.17119333389E+03 0.  0.
         24    2    3    3    0    0 -0.40838592764E+02  0.36949923300E+02  0.11978873056E+02  0.97327826145E+02  0.79348124436E+02 0.  0.
         -6    2    1    2    0  502  0.16093164723E+02 -0.17752694179E+03  0.10383782406E+04  0.10673686124E+04  0.17108938967E+03 0.  0.
        -24    2    5    5    0    0 -0.32026083565E+02 -0.42779028618E+02  0.55327620323E+03  0.56158354067E+03  0.80036246650E+02 0.  0.
          5    1    3    3  501    0  0.24745428041E+02  0.14057701849E+03 -0.57607233542E+02  0.15399648597E+03  0.47000000000E+01 0. -1.
        -11    1    4    4    0    0 -0.17766334124E+01  0.32002357284E+02  0.38318394257E+02  0.49956047046E+02  0.00000000000E+00 0.  1.
         12    1    4    4    0    0 -0.39061959352E+02  0.49475660159E+01 -0.26339521201E+02  0.47371779099E+02  0.00000000000E+00 0. -1.
         -5    1    5    5    0  502  0.48119248288E+02 -0.13474791317E+03  0.48510203735E+03  0.50578507174E+03  0.47000000000E+01 0.  1.
         13    1    6    6    0    0  0.22543960456E+02 -0.10659504176E+01  0.72672632388E+02  0.76096503872E+02  0.00000000000E+00 0. -1.
        -14    1    6    6    0    0 -0.54570044020E+02 -0.41713078201E+02  0.48060357084E+03  0.48548703680E+03  0.00000000000E+00 0.  1.
</event>
<event>
12    1  0.8406581E-002  0.2055103E+03  0.7818608E-02  0.1145676E+00
         21   -1    0    0  501  502  0.00000000000E+00  0.00000000000E+00  0.61785846605E+03  0.61785846605E+03  0.00000000000E+00 0. -1.
         21   -1    0    0  502  503 -0.00000000000E+00 -0.00000000000E+00 -0.86653416709E+02  0.86653416709E+02  0.00000000000E+00 0.  1.
         -6    2    1    2    0  503 -0.61978224892E+02  0.87411928848E+02  0.10141354884E+03  0.22917061906E+03  0.17536339153E+03 0.  0.
        -24    2    3    3    0    0 -0.64482035083E+02 -0.11235333953E+02  0.68792289689E+02  0.12513318315E+03  0.81497047962E+02 0.  0.
          6    2    1    2  501    0  0.61978224892E+02 -0.87411928848E+02  0.42979150050E+03  0.47534126369E+03  0.17247155534E+03 0.  0.
         24    2    5    5    0    0  0.65571237036E+02 -0.11986999138E+03  0.24855683776E+03  0.29112799452E+03  0.65624733428E+02 0.  0.
          5    1    5    5  501    0 -0.35930121436E+01  0.32458062534E+02  0.18123466274E+03  0.18421326917E+03  0.47000000000E+01 0. -1.
        -11    1    6    6    0    0  0.58014425450E+02 -0.38414731278E+02  0.12153227904E+03  0.14004092255E+03  0.00000000000E+00 0.  1.
         12    1    6    6    0    0  0.75568115858E+01 -0.81455260104E+02  0.12702455871E+03  0.15108707197E+03  0.00000000000E+00 0. -1.
         -5    1    3    3    0  503  0.25038101908E+01  0.98647262801E+02  0.32621259151E+02  0.10403743592E+03  0.47000000000E+01 0.  1.
         13    1    4    4    0    0  0.79023656011E+01  0.18277814599E+02  0.34365946632E+02  0.39718310343E+02  0.00000000000E+00 0. -1.
        -14    1    4    4    0    0 -0.72384400684E+02 -0.29513148552E+02  0.34426343058E+02  0.85414872805E+02  0.00000000000E+00 0.  1.
</event>
<event>
12    1  0.8406581E-002  0.1906110E+03  0.7818608E-02  0.1158870E+00
         21   -1    0    0  503  502  0.00000000000E+00  0.00000000000E+00  0.15185074631E+03  0.15185074631E+03  0.00000000000E+00 0. -1.
         21   -1    0    0  501  503 -0.00000000000E+00 -0.00000000000E+00 -0.32138739776E+03  0.32138739776E+03  0.00000000000E+00 0.  1.
          6    2    1    2  501    0  0.55070565689E+02 -0.46782892627E+02 -0.20745528118E+03  0.27889214856E+03  0.17181888893E+03 0.  0.
         24    2    3    3    0    0  0.40454949276E+02  0.17621448261E+02 -0.19064512924E+03  0.21058251105E+03  0.77796595672E+02 0.  0.
         -6    2    1    2    0  502 -0.55070565689E+02  0.46782892627E+02  0.37918629727E+02  0.19434599550E+03  0.17638349481E+03 0.  0.
        -24    2    5    5    0    0 -0.36338815332E+02 -0.98040431594E+01  0.82421303191E+02  0.11981051591E+03  0.78387880058E+02 0.  0.
          5    1    3    3  501    0  0.14615616413E+02 -0.64404340888E+02 -0.16810151935E+02  0.68309637507E+02  0.47000000000E+01 0. -1.
        -13    1    4    4    0    0  0.59896004814E+02 -0.43842797694E+01 -0.12594002819E+03  0.13952649929E+03  0.00000000000E+00 0.  1.
         14    1    4    4    0    0 -0.19441055538E+02  0.22005728030E+02 -0.64705101047E+02  0.71056011766E+02  0.00000000000E+00 0. -1.
         -5    1    5    5    0  502 -0.18731750358E+02  0.56586935787E+02 -0.44502673465E+02  0.74535479596E+02  0.47000000000E+01 0.  1.
         13    1    6    6    0    0 -0.50073467364E+02 -0.30931059308E+02  0.42483367015E+02  0.72587320083E+02  0.00000000000E+00 0. -1.
        -14    1    6    6    0    0  0.13734652033E+02  0.21127016149E+02  0.39937936176E+02  0.47223195824E+02  0.00000000000E+00 0.  1.
</event>
<event>
12    1  0.8406581E-002  0.1803609E+03  0.7818608E-02  0.1168112E+00
         21   -1    0    0  501  502  0.00000000000E+00  0.00000000000E+00  0.24639586442E+03  0.24639586442E+03  0.00000000000E+00 0.  1.
         21   -1    0    0  502  503 -0.00000000000E+00 -0.00000000000E+00 -0.13477708893E+03  0.13477708893E+03  0.00000000000E+00 0.  1.
         -6    2    1    2    0  503  0.45198520715E+02  0.19088830797E+02  0.19720912199E+02  0.17874948017E+03  0.17074885812E+03 0.  0.
        -24    2    3    3    0    0  0.62965121712E+01  0.38722519823E+02  0.68272120962E+02  0.11334185152E+03  0.81524310474E+02 0.  0.
          6    2    1    2  501    0 -0.45198520715E+02 -0.19088830797E+02  0.91897863286E+02  0.20242347317E+03  0.17355908354E+03 0.  0.
         24    2    5    5    0    0 -0.36427492079E+02 -0.78033159793E+02  0.45120579795E+02  0.12651847258E+03  0.80962466472E+02 0.  0.
          5    1    5    5  501    0 -0.87710286357E+01  0.58944328996E+02  0.46777283491E+02  0.75905000592E+02  0.47000000000E+01 0. -1.
        -13    1    6    6    0    0 -0.73764107842E+01 -0.13946499064E+02  0.53388209864E+02  0.55670613655E+02  0.00000000000E+00 0.  1.
         14    1    6    6    0    0 -0.29051081295E+02 -0.64086660729E+02 -0.82676300687E+01  0.70847858928E+02  0.00000000000E+00 0. -1.
         -5    1    3    3    0  503  0.38902008544E+02 -0.19633689027E+02 -0.48551208763E+02  0.65407628652E+02  0.47000000000E+01 0.  1.
         11    1    4    4    0    0  0.29043365812E+01 -0.13856612733E+02 -0.11157523341E+02  0.18025848510E+02  0.00000000000E+00 0. -1.
        -12    1    4    4    0    0  0.33921755900E+01  0.52579132557E+02  0.79429644302E+02  0.95316003009E+02  0.00000000000E+00 0.  1.
</event>
<event>
12    1  0.8406581E-002  0.1826142E+03  0.7818608E-02  0.1165469E+00
         21   -1    0    0  501  502  0.00000000000E+00  0.00000000000E+00  0.30153598168E+02  0.30153598168E+02  0.00000000000E+00 0.  1.
         21   -1    0    0  502  503 -0.00000000000E+00 -0.00000000000E+00 -0.14517342579E+04  0.14517342579E+04  0.00000000000E+00 0.  1.
         -6    2    1    2    0  503  0.56916728006E+02 -0.15401511613E+02 -0.10757621710E+04  0.10911517741E+04  0.17283293988E+03 0.  0.
        -24    2    3    3    0    0  0.45354975349E+02  0.59643717929E+02 -0.57121418086E+03  0.58090063501E+03  0.74467848506E+02 0.  0.
          6    2    1    2  501    0 -0.56916728006E+02  0.15401511613E+02 -0.34581848874E+03  0.39073608196E+03  0.17206841112E+03 0.  0.
         24    2    5    5    0    0  0.26358140459E+02  0.35543574666E+02 -0.22267520560E+03  0.24064689313E+03  0.79803400403E+02 0.  0.
          5    1    5    5  501    0 -0.83274868465E+02 -0.20142063053E+02 -0.12314328314E+03  0.15008918884E+03  0.47000000000E+01 0. -1.
        -13    1    6    6    0    0 -0.20169851852E+02  0.16225165914E+02 -0.22718723336E+02  0.34441534848E+02  0.00000000000E+00 0.  1.
         14    1    6    6    0    0  0.46527992311E+02  0.19318408752E+02 -0.19995648226E+03  0.20620535828E+03  0.00000000000E+00 0. -1.
         -5    1    3    3    0  503  0.11561752657E+02 -0.75045229542E+02 -0.50454799010E+03  0.51025113907E+03  0.47000000000E+01 0.  1.
         13    1    4    4    0    0  0.10621534610E+02  0.44696521769E+02 -0.12653911952E+03  0.13462074441E+03  0.00000000000E+00 0. -1.
        -14    1    4    4    0    0  0.34733440739E+02  0.14947196160E+02 -0.44467506133E+03  0.44627989060E+03  0.00000000000E+00 0.  1.
</event>
<event>
12    1  0.8406581E-002  0.1772245E+03  0.7818608E-02  0.1170605E+00
         21   -1    0    0  503  502  0.00000000000E+00  0.00000000000E+00  0.46204284789E+03  0.46204284789E+03  0.00000000000E+00 0. -1.
         21   -1    0    0  501  503 -0.00000000000E+00 -0.00000000000E+00 -0.16734387753E+04  0.16734387753E+04  0.00000000000E+00 0. -1.
          6    2    1    2  501    0  0.93490536870E+01  0.41129227430E+02 -0.16515471324E+04  0.16609907231E+04  0.17176505265E+03 0.  0.
         24    2    3    3    0    0  0.46108451217E+02  0.68804665914E+02 -0.87034143094E+03  0.87841700689E+03  0.85218309429E+02 0.  0.
         -6    2    1    2    0  502 -0.93490536870E+01 -0.41129227430E+02  0.44015120504E+03  0.47449090010E+03  0.17213225389E+03 0.  0.
        -24    2    5    5    0    0  0.44320012156E+01  0.40830556910E+02  0.28440875776E+03  0.29789779829E+03  0.78536486578E+02 0.  0.
          5    1    3    3  501    0 -0.36759397530E+02 -0.27675438484E+02 -0.78120570148E+03  0.78257371616E+03  0.47000000000E+01 0. -1.
        -13    1    4    4    0    0  0.16632859501E+02  0.35248791057E+02 -0.73216172839E+03  0.73319842186E+03  0.00000000000E+00 0.  1.
         14    1    4    4    0    0  0.29475591716E+02  0.33555874857E+02 -0.13817970254E+03  0.14521858503E+03  0.00000000000E+00 0. -1.
         -5    1    5    5    0  502 -0.13781054903E+02 -0.81959784340E+02  0.15574244728E+03  0.17659310181E+03  0.47000000000E+01 0.  1.
         13    1    6    6    0    0 -0.20466429399E+02 -0.12301595710E+02  0.14002522044E+03  0.14204670481E+03  0.00000000000E+00 0. -1.
        -14    1    6    6    0    0  0.24898430614E+02  0.53132152620E+02  0.14438353732E+03  0.15585109348E+03  0.00000000000E+00 0.  1.
</event>
<event>
12    1  0.8406581E-002  0.1786383E+03  0.7818608E-02  0.1169274E+00
         21   -1    0    0  501  502  0.00000000000E+00  0.00000000000E+00  0.25951635635E+03  0.25951635635E+03  0.00000000000E+00 0.  1.
         21   -1    0    0  502  503 -0.00000000000E+00 -0.00000000000E+00 -0.18755787100E+03  0.18755787100E+03  0.00000000000E+00 0.  1.
         -6    2    1    2    0  503 -0.36050593352E+02 -0.30541238405E+02 -0.95580662690E+02  0.20260135777E+03  0.17227662223E+03 0.  0.
        -24    2    3    3    0    0 -0.88461815410E+01  0.39080854958E+02 -0.11570408471E+02  0.90053018287E+02  0.79812928767E+02 0.  0.
          6    2    1    2  501    0  0.36050593352E+02  0.30541238405E+02  0.16753914804E+03  0.24447286958E+03  0.17165431922E+03 0.  0.
         24    2    5    5    0    0  0.87317634269E+02  0.38084799021E+02  0.13005981322E+03  0.18034794985E+03  0.80839389098E+02 0.  0.
          5    1    5    5  501    0 -0.51267040917E+02 -0.75435606157E+01  0.37479334829E+02  0.64124919730E+02  0.47000000000E+01 0. -1.
        -11    1    6    6    0    0  0.35785233159E+02  0.16838365766E+02  0.11643229902E+03  0.12296582342E+03  0.00000000000E+00 0.  1.
         12    1    6    6    0    0  0.51532401110E+02  0.21246433255E+02  0.13627514194E+02  0.57382126428E+02  0.00000000000E+00 0. -1.
         -5    1    3    3    0  503 -0.27204411811E+02 -0.69622093363E+02 -0.84010254220E+02  0.11254833948E+03  0.47000000000E+01 0.  1.
         13    1    4    4    0    0 -0.12469925691E+02  0.54266336433E+01  0.32064058655E+02  0.34828885381E+02  0.00000000000E+00 0. -1.
        -14    1    4    4    0    0  0.36237441497E+01  0.33654221314E+02 -0.43634467126E+02  0.55224132907E+02  0.00000000000E+00 0.  1.
</event>
<event>
12    1  0.8406581E-002  0.1922188E+03  0.7818608E-02  0.1156769E+00
         21   -1    0    0  503  502  0.00000000000E+00  0.00000000000E+00  0.12126052030E+03  0.12126052030E+03  0.00000000000E+00 0. -1.
         21   -1    0    0  501  503 -0.00000000000E+00 -0.00000000000E+00 -0.38836515317E+03  0.38836515317E+03  0.00000000000E+00 0. -1.
          6    2    1    2  501    0  0.85260112966E+02  0.23855276202E+02 -0.25364431963E+03  0.31825070871E+03  0.17061568406E+03 0.  0.
         24    2    3    3    0    0  0.22032771343E+02  0.73140733822E+02 -0.13599221005E+03  0.17580471210E+03  0.81107371093E+02 0.  0.
         -6    2    1    2    0  502 -0.85260112966E+02 -0.23855276202E+02 -0.13460313239E+02  0.19137496477E+03  0.16912964271E+03 0.  0.
        -24    2    5    5    0    0 -0.47558919098E+02  0.51367881139E+02 -0.49948989830E+01  0.10667752291E+03  0.80340742336E+02 0.  0.
          5    1    3    3  501    0  0.63227341623E+02 -0.49285457620E+02 -0.11765210958E+03  0.14244599661E+03  0.47000000000E+01 0. -1.
        -13    1    4    4    0    0 -0.29960907956E+02  0.15402570839E+02 -0.39304027494E+02  0.51765835947E+02  0.00000000000E+00 0.  1.
         14    1    4    4    0    0  0.51993679300E+02  0.57738162982E+02 -0.96688182560E+02  0.12403887616E+03  0.00000000000E+00 0. -1.
         -5    1    5    5    0  502 -0.37701193868E+02 -0.75223157340E+02 -0.84654142565E+01  0.84697441861E+02  0.47000000000E+01 0.  1.
         11    1    6    6    0    0 -0.47103855522E+01  0.58847893996E+02  0.11523137309E+02  0.60150187475E+02  0.00000000000E+00 0. -1.
        -12    1    6    6    0    0 -0.42848533546E+02 -0.74800128572E+01 -0.16518036292E+02  0.46527335431E+02  0.00000000000E+00 0.  1.
</event>
<event>
12    1  0.8406581E-002  0.2383259E+03  0.7818608E-02  0.1121295E+00
         21   -1    0    0  503  502  0.00000000000E+00  0.00000000000E+00  0.14263003738E+03  0.14263003738E+03  0.00000000000E+00 0. -1.
         21   -1    0    0  501  503 -0.00000000000E+00 -0.00000000000E+00 -0.55091521166E+03  0.55091521166E+03  0.00000000000E+00 0.  1.
          6    2    1    2  501    0  0.68099014483E+02  0.14955643393E+03 -0.38824239928E+03  0.45437807628E+03  0.16947764721E+03 0.  0.
         24    2    3    3    0    0  0.10627974278E+03  0.77304756367E+02 -0.23115566102E+03  0.27724421091E+03  0.78485691561E+02 0.  0.
         -6    2    1    2    0  502 -0.68099014483E+02 -0.14955643393E+03 -0.20042774997E+02  0.23916717276E+03  0.17261118444E+03 0.  0.
        -24    2    5    5    0    0 -0.37644111476E+02 -0.15558078079E+03 -0.58578671281E+02  0.18945903284E+03  0.82709164628E+02 0.  0.
          5    1    3    3  501    0 -0.38180728298E+02  0.72251677560E+02 -0.15708673826E+03  0.17713386537E+03  0.47000000000E+01 0. -1.
        -13    1    4    4    0    0  0.22469673512E+02  0.38031711555E+00 -0.10497231454E+03  0.10735090912E+03  0.00000000000E+00 0.  1.
         14    1    4    4    0    0  0.83810069269E+02  0.76924439252E+02 -0.12618334648E+03  0.16989330179E+03  0.00000000000E+00 0. -1.
         -5    1    5    5    0  502 -0.30454903007E+02  0.60243468636E+01  0.38535896284E+02  0.49708139924E+02  0.47000000000E+01 0.  1.
         13    1    6    6    0    0  0.76179059509E+01 -0.69120176334E+02  0.98987731448E+01  0.70239710829E+02  0.00000000000E+00 0. -1.
        -14    1    6    6    0    0 -0.45262017427E+02 -0.86460604456E+02 -0.68477444426E+02  0.11921932201E+03  0.00000000000E+00 0.  1.
</event>
<event>
12    1  0.8406581E-002  0.3588098E+03  0.7818608E-02  0.1059076E+00
         21   -1    0    0  501  502  0.00000000000E+00  0.00000000000E+00  0.20831619414E+03  0.20831619414E+03  0.00000000000E+00 0.  1.
         21   -1    0    0  502  503 -0.00000000000E+00 -0.00000000000E+00 -0.76954605635E+03  0.76954605635E+03  0.00000000000E+00 0.  1.
         -6    2    1    2    0  503  0.28883408563E+02 -0.31318031791E+03 -0.49787226076E+03  0.61369476672E+03  0.17270876021E+03 0.  0.
        -24    2    3    3    0    0 -0.18549785159E+01 -0.31475605624E+03 -0.48258070570E+03  0.57900682865E+03  0.57358122578E+02 0.  0.
          6    2    1    2  501    0 -0.28883408563E+02  0.31318031791E+03 -0.63357601453E+02  0.36416748378E+03  0.17230092212E+03 0.  0.
         24    2    5    5    0    0 -0.26851099245E+02  0.32928219069E+03 -0.67648990151E+02  0.34673456649E+03  0.80627111382E+02 0.  0.
          5    1    5    5  501    0 -0.20323093175E+01 -0.16101872783E+02  0.42913886980E+01  0.17432917290E+02  0.47000000000E+01 0. -1.
        -11    1    6    6    0    0  0.16255064457E+02  0.49454472058E+02  0.10311659328E+02  0.53068844392E+02  0.00000000000E+00 0.  1.
         12    1    6    6    0    0 -0.43106163703E+02  0.27982771864E+03 -0.77960649480E+02  0.29366572209E+03  0.00000000000E+00 0. -1.
         -5    1    3    3    0  503  0.30738387079E+02  0.15757383280E+01 -0.15291555054E+02  0.34687938068E+02  0.47000000000E+01 0.  1.
         13    1    4    4    0    0  0.55939558153E+01 -0.84675526271E+02 -0.88462116571E+02  0.12258378016E+03  0.00000000000E+00 0. -1.
        -14    1    4    4    0    0 -0.74489343312E+01 -0.23008052997E+03 -0.39411858913E+03  0.45642304849E+03  0.00000000000E+00 0.  1.
</event>
<event>
12    1  0.8406581E-002  0.2067348E+03  0.7818608E-02  0.1144477E+00
         21   -1    0    0  501  502  0.00000000000E+00  0.00000000000E+00  0.55363336626E+03  0.55363336626E+03  0.00000000000E+00 0.  1.
         21   -1    0    0  502  503 -0.00000000000E+00 -0.00000000000E+00 -0.20742636000E+03  0.20742636000E+03  0.00000000000E+00 0.  1.
         -6    2    1    2    0  503 -0.55910605099E+01  0.11442357500E+03 -0.12881818012E+03  0.24358447582E+03  0.17209084478E+03 0.  0.
        -24    2    3    3    0    0  0.55186476212E+02  0.10411127906E+03 -0.66404778595E+02  0.15573360726E+03  0.77192332686E+02 0.  0.
          6    2    1    2  501    0  0.55910605099E+01 -0.11442357500E+03  0.47502518637E+03  0.51747525044E+03  0.17031644857E+03 0.  0.
         24    2    5    5    0    0 -0.36306184790E+02 -0.13163958822E+03  0.33628108890E+03  0.37144859240E+03  0.79006112442E+02 0.  0.
          5    1    5    5  501    0  0.41897245300E+02  0.17216013216E+02  0.13874409747E+03  0.14602665804E+03  0.47000000000E+01 0. -1.
        -13    1    6    6    0    0 -0.23492058725E+02 -0.48052521284E+02  0.22729202217E+03  0.23350071727E+03  0.00000000000E+00 0.  1.
         14    1    6    6    0    0 -0.12814126066E+02 -0.83587066931E+02  0.10898906673E+03  0.13794787513E+03  0.00000000000E+00 0. -1.
         -5    1    3    3    0  503 -0.60777536722E+02  0.10312295943E+02 -0.62413401523E+02  0.87850868563E+02  0.47000000000E+01 0.  1.
         11    1    4    4    0    0 -0.63992714623E+01  0.30418389759E+02  0.10381394239E+02  0.32771976704E+02  0.00000000000E+00 0. -1.
        -12    1    4    4    0    0  0.61585747675E+02  0.73692889297E+02 -0.76786172834E+02  0.12296163055E+03  0.00000000000E+00 0.  1.
</event>
<event>
12    1  0.8406581E-002  0.2164768E+03  0.7818608E-02  0.1136974E+00
         21   -1    0    0  501  502  0.00000000000E+00  0.00000000000E+00  0.85142223904E+03  0.85142223904E+03  0.00000000000E+00 0.  1.
         21   -1    0    0  502  503 -0.00000000000E+00 -0.00000000000E+00 -0.16945810293E+03  0.16945810293E+03  0.00000000000E+00 0.  1.
         -6    2    1    2    0  503  0.96848731805E+01  0.12545550967E+03 -0.78926392923E+02  0.23041605603E+03  0.17615136020E+03 0.  0.
        -24    2    3    3    0    0  0.40503317061E+02  0.21851647703E+02  0.12114456607E+02  0.89015691882E+02  0.75226459056E+02 0.  0.
          6    2    1    2  501    0 -0.96848731805E+01 -0.12545550967E+03  0.76089052903E+03  0.79046428594E+03  0.17333928725E+03 0.  0.
         24    2    5    5    0    0 -0.68859941619E+02 -0.97418709174E+02  0.59160467275E+03  0.60889462426E+03  0.80774242023E+02 0.  0.
          5    1    5    5  501    0  0.59175068439E+02 -0.28036800501E+02  0.16928585627E+03  0.18156966168E+03  0.47000000000E+01 0. -1.
        -11    1    6    6    0    0 -0.80290076251E+02 -0.72138066020E+02  0.36581131290E+03  0.38140308541E+03  0.00000000000E+00 0.  1.
         12    1    6    6    0    0  0.11430134632E+02 -0.25280643154E+02  0.22579335985E+03  0.22749153885E+03  0.00000000000E+00 0. -1.
         -5    1    3    3    0  503 -0.30818443880E+02  0.10360386197E+03 -0.91040849531E+02  0.14140036415E+03  0.47000000000E+01 0.  1.
         11    1    4    4    0    0 -0.14335362099E+02  0.15977474443E+02  0.24413608445E+02  0.32508561540E+02  0.00000000000E+00 0. -1.
        -12    1    4    4    0    0  0.54838679160E+02  0.58741732606E+01 -0.12299151838E+02  0.56507130342E+02  0.00000000000E+00 0.  1.
</event>
<event>
12    1  0.8406581E-002  0.2150877E+03  0.7818608E-02  0.1137935E+00
         21   -1    0    0  503  502  0.00000000000E+00  0.00000000000E+00  0.10681980816E+03  0.10681980816E+03  0.00000000000E+00 0.  1.
         21   -1    0    0  501  503 -0.00000000000E+00 -0.00000000000E+00 -0.21190359747E+04  0.21190359747E+04  0.00000000000E+00 0. -1.
          6    2    1    2  501    0 -0.12280144954E+03  0.29393412381E+02 -0.20006668003E+04  0.20121954121E+04  0.17412226155E+03 0.  0.
         24    2    3    3    0    0 -0.70851995853E+02  0.13792098435E+02 -0.18288000822E+04  0.18319111767E+04  0.78604016852E+02 0.  0.
         -6    2    1    2    0  502  0.12280144954E+03 -0.29393412381E+02 -0.11549366286E+02  0.21366037081E+03  0.17196859449E+03 0.  0.
        -24    2    5    5    0    0  0.13492311666E+03  0.33344701504E+01 -0.47144067113E+02  0.16358920310E+03  0.79520426350E+02 0.  0.
          5    1    3    3  501    0 -0.51949453685E+02  0.15601313946E+02 -0.17186671811E+03  0.18028423539E+03  0.47000000000E+01 0. -1.
        -13    1    4    4    0    0  0.37805828243E+01 -0.23118122291E+02 -0.42050546046E+03  0.42115743215E+03  0.00000000000E+00 0.  1.
         14    1    4    4    0    0 -0.74632578677E+02  0.36910220726E+02 -0.14082946217E+04  0.14107537445E+04  0.00000000000E+00 0. -1.
         -5    1    5    5    0  502 -0.12121667118E+02 -0.32727882531E+02  0.35594700827E+02  0.50071167708E+02  0.47000000000E+01 0.  1.
         13    1    6    6    0    0  0.33495494370E+02  0.30519644593E+02 -0.36227352923E+02  0.58015669857E+02  0.00000000000E+00 0. -1.
        -14    1    6    6    0    0  0.10142762229E+03 -0.27185174443E+02 -0.10916714190E+02  0.10557353324E+03  0.00000000000E+00 0.  1.
</event>
<event>
12    1  0.8406581E-002  0.2075375E+03  0.7818608E-02  0.1143734E+00
         21   -1    0    0  503  502  0.00000000000E+00  0.00000000000E+00  0.74169072224E+03  0.74169072224E+03  0.00000000000E+00 0. -1.
         21   -1    0    0  501  503 -0.00000000000E+00 -0.00000000000E+00 -0.96991809171E+02  0.96991809171E+02  0.00000000000E+00 0. -1.
          6    2    1    2  501    0 -0.28540717700E+02  0.11229797799E+03  0.56225367058E+02  0.21501882307E+03  0.17218128222E+03 0.  0.
         24    2    3    3    0    0  0.49239616873E+02  0.42817243798E+02  0.41097554434E+02  0.10952809559E+03  0.77778779283E+02 0.  0.
         -6    2    1    2    0  502  0.28540717700E+02 -0.11229797799E+03  0.58847354601E+03  0.62366370834E+03  0.17096753585E+03 0.  0.
        -24    2    5    5    0    0  0.28194965338E+02 -0.68243026893E+02  0.16459725582E+03  0.19747811772E+03  0.80332332009E+02 0.  0.
          5    1    3    3  501    0 -0.77780334574E+02  0.69480734192E+02  0.15127812623E+02  0.10549072748E+03  0.47000000000E+01 0. -1.
        -11    1    4    4    0    0  0.27776474255E+02  0.10409395017E+02  0.59528094489E+02  0.66509262965E+02  0.00000000000E+00 0.  1.
         12    1    4    4    0    0  0.21463142618E+02  0.32407848782E+02 -0.18430540055E+02  0.43018832625E+02  0.00000000000E+00 0. -1.
         -5    1    5    5    0  502  0.34575236208E+00 -0.44054951097E+02  0.42387629019E+03  0.42618559062E+03  0.47000000000E+01 0.  1.
         11    1    6    6    0    0 -0.23555858247E+02 -0.34167363924E+02  0.36861518211E+02  0.55507285469E+02  0.00000000000E+00 0. -1.
        -12    1    6    6    0    0  0.51750823585E+02 -0.34075662969E+02  0.12773573761E+03  0.14197083225E+03  0.00000000000E+00 0.  1.
</event>
<event>
12    1  0.8406581E-002  0.1946438E+03  0.7818608E-02  0.1155145E+00
         21   -1    0    0  503  502  0.00000000000E+00  0.00000000000E+00  0.16863624004E+03  0.16863624004E+03  0.00000000000E+00 0.  1.
         21   -1    0    0  501  503 -0.00000000000E+00 -0.00000000000E+00 -0.22055357104E+03  0.22055357104E+03  0.00000000000E+00 0. -1.
          6    2    1    2  501    0  0.13742925607E+02 -0.89973108403E+02 -0.30065331489E+02  0.19695209377E+03  0.17205282573E+03 0.  0.
         24    2    3    3    0    0 -0.15834376382E+02 -0.83237536372E+01  0.39963783084E+02  0.85293682466E+02  0.73197649964E+02 0.  0.
         -6    2    1    2    0  502 -0.13742925607E+02  0.89973108403E+02 -0.21851999510E+02  0.19223771731E+03  0.16791010045E+03 0.  0.
        -24    2    5    5    0    0 -0.19298883335E+02  0.10989474500E+03 -0.58709017890E+02  0.14971395836E+03  0.80735485818E+02 0.  0.
          5    1    3    3  501    0  0.29577301989E+02 -0.81649354766E+02 -0.70029114574E+02  0.11165841130E+03  0.47000000000E+01 0. -1.
        -13    1    4    4    0    0 -0.28204355636E+02 -0.34890828065E+02  0.31402989432E+02  0.54763156458E+02  0.00000000000E+00 0.  1.
         14    1    4    4    0    0  0.12369979254E+02  0.26567074428E+02  0.85607936519E+01  0.30530526009E+02  0.00000000000E+00 0. -1.
         -5    1    5    5    0  502  0.55559577284E+01 -0.19921636598E+02  0.36857018380E+02  0.42523758946E+02  0.47000000000E+01 0.  1.
         11    1    6    6    0    0  0.26044378378E+02  0.46385499441E+02 -0.46647489494E+02  0.70752473311E+02  0.00000000000E+00 0. -1.
        -12    1    6    6    0    0 -0.45343261713E+02  0.63509245560E+02 -0.12061528396E+02  0.78961485052E+02  0.00000000000E+00 0.  1.
</event>
<event>
12    1  0.8406581E-002  0.2258283E+03  0.7818608E-02  0.1129667E+00
         21   -1    0    0  503  502  0.00000000000E+00  0.00000000000E+00  0.12677350428E+03  0.12677350428E+03  0.00000000000E+00 0.  1.
         21   -1    0    0  501  503 -0.00000000000E+00 -0.00000000000E+00 -0.40416472091E+03  0.40416472091E+03  0.00000000000E+00 0.  1.
          6    2    1    2  501    0  0.61579809650E+02  0.13083558609E+03 -0.15943079104E+03  0.27643554262E+03  0.17346010650E+03 0.  0.
         24    2    3    3    0    0  0.76390142069E+02  0.13440409165E+03 -0.18091051045E+03  0.24968580385E+03  0.75594141288E+02 0.  0.
         -6    2    1    2    0  502 -0.61579809650E+02 -0.13083558609E+03 -0.11796042559E+03  0.25450268256E+03  0.17305181271E+03 0.  0.
        -24    2    5    5    0    0 -0.65906642005E+02 -0.50139805667E+02 -0.42793831845E+00  0.11179141454E+03  0.75096282606E+02 0.  0.
          5    1    3    3  501    0 -0.14810332419E+02 -0.35685055680E+01  0.21479719406E+02  0.26749738767E+02  0.47000000000E+01 0. -1.
        -11    1    4    4    0    0  0.64822291713E+01  0.80850382403E+02 -0.10972599586E+03  0.13644998276E+03  0.00000000000E+00 0.  1.
         12    1    4    4    0    0  0.69907912897E+02  0.53553709252E+02 -0.71184514591E+02  0.11323582109E+03  0.00000000000E+00 0. -1.
         -5    1    5    5    0  502  0.43268323553E+01 -0.80695780420E+02 -0.11753248727E+03  0.14271126802E+03  0.47000000000E+01 0.  1.
         11    1    6    6    0    0 -0.44487777692E+02  0.11759962107E+02  0.36743549860E+01  0.46162321836E+02  0.00000000000E+00 0. -1.
        -12    1    6    6    0    0 -0.21418864313E+02 -0.61899767774E+02 -0.41022933045E+01  0.65629092705E+02  0.00000000000E+00 0.  1.
</event>
<event>
12    1  0.8406581E-002  0.2881852E+03  0.7818608E-02  0.1091548E+00
         21   -1    0    0  503  502  0.00000000000E+00  0.00000000000E+00  0.64791215827E+02  0.64791215827E+02  0.00000000000E+00 0. -1.
         21   -1    0    0  501  503 -0.00000000000E+00 -0.00000000000E+00 -0.15285172110E+04  0.15285172110E+04  0.00000000000E+00 0.  1.
          6    2    1    2  501    0  0.85947415889E+02  0.21494472205E+03 -0.10552714064E+04  0.10934225607E+04  0.16848431174E+03 0.  0.
         24    2    3    3    0    0  0.72926775265E+02  0.81695501816E+02 -0.74739695219E+03  0.75766422303E+03  0.58825174481E+02 0.  0.
         -6    2    1    2    0  502 -0.85947415889E+02 -0.21494472205E+03 -0.40845458879E+03  0.49988586611E+03  0.17164654441E+03 0.  0.
        -24    2    5    5    0    0  0.21385272328E+02 -0.77871899088E+02 -0.14979104775E+03  0.18805549201E+03  0.80038412954E+02 0.  0.
          5    1    3    3  501    0  0.13020640624E+02  0.13324922023E+03 -0.30787445422E+03  0.33575833770E+03  0.47000000000E+01 0. -1.
        -11    1    4    4    0    0  0.20821505065E+02  0.62785954201E+02 -0.32653668260E+03  0.33316935064E+03  0.00000000000E+00 0.  1.
         12    1    4    4    0    0  0.52105270201E+02  0.18909547616E+02 -0.42086026959E+03  0.42449487239E+03  0.00000000000E+00 0. -1.
         -5    1    5    5    0  502 -0.10733268822E+03 -0.13707282296E+03 -0.25866354104E+03  0.31183037411E+03  0.47000000000E+01 0.  1.
         11    1    6    6    0    0  0.29905912068E+02  0.15500605535E+00 -0.18727069984E+02  0.35285843531E+02  0.00000000000E+00 0. -1.
        -12    1    6    6    0    0 -0.85206397403E+01 -0.78026905144E+02 -0.13106397776E+03  0.15276964848E+03  0.00000000000E+00 0.  1.
</event>
<event>
12    1  0.8406581E-002  0.2008896E+03  0.7818608E-02  0.1149010E+00
         21   -1    0    0  501  502  0.00000000000E+00  0.00000000000E+00  0.23423023475E+03  0.23423023475E+03  0.00000000000E+00 0. -1.
         21   -1    0    0  502  503 -0.00000000000E+00 -0.00000000000E+00 -0.22565736731E+03  0.22565736731E+03  0.00000000000E+00 0. -1.
         -6    2    1    2    0  503 -0.75598134029E+02  0.68898977733E+02 -0.10761300887E+03  0.22789733330E+03  0.17290022513E+03 0.  0.
        -24    2    3    3    0    0 -0.37942874607E+02  0.60487602729E+01 -0.12522821464E+03  0.15239598317E+03  0.77885690035E+02 0.  0.
          6    2    1    2  501    0  0.75598134029E+02 -0.68898977733E+02  0.11618587631E+03  0.23199026876E+03  0.17279519653E+03 0.  0.
         24    2    5    5    0    0  0.22658522505E+02  0.48977007016E+01  0.11362563111E+03  0.14101116637E+03  0.80224490535E+02 0.  0.
          5    1    5    5  501    0  0.52939611524E+02 -0.73796678434E+02  0.25602451958E+01  0.90979102390E+02  0.47000000000E+01 0. -1.
        -13    1    6    6    0    0 -0.13535486497E+02  0.44671727359E+01  0.10200344075E+03  0.10299449962E+03  0.00000000000E+00 0.  1.
         14    1    6    6    0    0  0.36194009002E+02  0.43052796566E+00  0.11622190358E+02  0.38016666749E+02  0.00000000000E+00 0. -1.
         -5    1    3    3    0  503 -0.37655259423E+02  0.62850217460E+02  0.17615205771E+02  0.75501350129E+02  0.47000000000E+01 0.  1.
         13    1    4    4    0    0  0.13990713170E+02  0.10958802123E+02 -0.84128727996E+02  0.85985337548E+02  0.00000000000E+00 0. -1.
        -14    1    4    4    0    0 -0.51933587777E+02 -0.49100418504E+01 -0.41099486642E+02  0.66410645627E+02  0.00000000000E+00 0.  1.
</event>
<event>
12    1  0.8406581E-002  0.1933328E+03  0.7818608E-02  0.1155655E+00
         21   -1    0    0  501  502  0.00000000000E+00  0.00000000000E+00  0.19320161093E+03  0.19320161093E+03  0.00000000000E+00 0.  1.
         21   -1    0    0  502  503 -0.00000000000E+00 -0.00000000000E+00 -0.39448648144E+03  0.39448648144E+03  0.00000000000E+00 0.  1.
         -6    2    1    2    0  503  0.35354327752E+02 -0.81127225900E+02 -0.31088895352E+03  0.36610039319E+03  0.17188950290E+03 0.  0.
        -24    2    3    3    0    0  0.37440021734E+02 -0.17812169910E+02 -0.28184182761E+03  0.29625075499E+03  0.81305998642E+02 0.  0.
          6    2    1    2  501    0 -0.35354327752E+02  0.81127225900E+02  0.10960408300E+03  0.22158769918E+03  0.17104531020E+03 0.  0.
         24    2    5    5    0    0 -0.58558223834E+02  0.56487227780E+02  0.71896424594E+01  0.11362308491E+03  0.78985074450E+02 0.  0.
          5    1    5    5  501    0  0.23203896081E+02  0.24639998120E+02  0.10241444055E+03  0.10796461426E+03  0.47000000000E+01 0. -1.
        -11    1    6    6    0    0 -0.42799584888E+02  0.57482074984E+02  0.36428562911E+02  0.80392994762E+02  0.00000000000E+00 0.  1.
         12    1    6    6    0    0 -0.15758638945E+02 -0.99484720322E+00 -0.29238920452E+02  0.33230090152E+02  0.00000000000E+00 0. -1.
         -5    1    3    3    0  503 -0.20856939813E+01 -0.63315055990E+02 -0.29047125905E+02  0.69849638208E+02  0.47000000000E+01 0.  1.
         11    1    4    4    0    0  0.31693421412E+02  0.26990328499E+02 -0.89972846320E+02  0.99136591974E+02  0.00000000000E+00 0. -1.
        -12    1    4    4    0    0  0.57466003216E+01 -0.44802498409E+02 -0.19186898129E+03  0.19711416301E+03  0.00000000000E+00 0.  1.
</event>
<event>
12    1  0.8406581E-002  0.1762130E+03  0.7818608E-02  0.1171577E+00
         21   -1    0    0  503  502  0.00000000000E+00  0.00000000000E+00  0.29570277713E+03  0.29570277713E+03  0.00000000000E+00 0. -1.
         21   -1    0    0  501  503 -0.00000000000E+00 -0.00000000000E+00 -0.17558223115E+03  0.17558223115E+03  0.00000000000E+00 0. -1.
          6    2    1    2  501    0 -0.41224881562E+02 -0.29203961429E+01 -0.89457089590E+02  0.19761985754E+03  0.17129803748E+03 0.  0.
         24    2    3    3    0    0 -0.66484234267E+02  0.41015218130E+02 -0.23799297041E+02  0.11454513923E+03  0.80322978383E+02 0.  0.
         -6    2    1    2    0  502  0.41224881562E+02  0.29203961429E+01  0.20957763557E+03  0.27366515074E+03  0.17106083662E+03 0.  0.
        -24    2    5    5    0    0  0.64417857863E+02  0.55132466753E+02  0.11341436602E+03  0.16171212989E+03  0.78094463521E+02 0.  0.
          5    1    3    3  501    0  0.25259352705E+02 -0.43935614273E+02 -0.65657792549E+02  0.83074718315E+02  0.47000000000E+01 0. -1.
        -13    1    4    4    0    0 -0.24719827637E+02  0.13020926489E+02  0.29940831588E+02  0.40952018280E+02  0.00000000000E+00 0.  1.
         14    1    4    4    0    0 -0.41764406630E+02  0.27994291641E+02 -0.53740128628E+02  0.73593120946E+02  0.00000000000E+00 0. -1.
         -5    1    5    5    0  502 -0.23192976300E+02 -0.52212070610E+02  0.96163269548E+02  0.11195302085E+03  0.47000000000E+01 0.  1.
         13    1    6    6    0    0 -0.17258230749E+02  0.14757090476E+02  0.13171901193E+02  0.26251042435E+02  0.00000000000E+00 0. -1.
        -14    1    6    6    0    0  0.81676088612E+02  0.40375376277E+02  0.10024246482E+03  0.13546108745E+03  0.00000000000E+00 0.  1.
</event>
<event>
12    1  0.8406581E-002  0.1754829E+03  0.7818608E-02  0.1172415E+00
         21   -1    0    0  503  502  0.00000000000E+00  0.00000000000E+00  0.78329575267E+02  0.78329575267E+02  0.00000000000E+00 0.  1.
         21   -1    0    0  501  503 -0.00000000000E+00 -0.00000000000E+00 -0.75054544702E+03  0.75054544702E+03  0.00000000000E+00 0.  1.
          6    2    1    2  501    0 -0.36087228006E+02 -0.20831592146E+01 -0.62303186482E+03  0.64727348313E+03  0.17171962558E+03 0.  0.
         24    2    3    3    0    0 -0.78647380155E+02  0.26959007296E+02 -0.51247892331E+03  0.52521260954E+03  0.79381609340E+02 0.  0.
         -6    2    1    2    0  502  0.36087228006E+02  0.20831592146E+01 -0.49184006933E+02  0.18160153915E+03  0.17103632628E+03 0.  0.
        -24    2    5    5    0    0  0.44471808491E+02 -0.50377933237E+02 -0.10142076639E+01  0.10973439108E+03  0.86746354737E+02 0.  0.
          5    1    3    3  501    0  0.42560152149E+02 -0.29042166510E+02 -0.11055294151E+03  0.12206087360E+03  0.47000000000E+01 0. -1.
        -11    1    4    4    0    0 -0.32930388033E+02  0.44431296198E+02 -0.37959143325E+03  0.38359901816E+03  0.00000000000E+00 0.  1.
         12    1    4    4    0    0 -0.45716992122E+02 -0.17472288903E+02 -0.13288749007E+03  0.14161359138E+03  0.00000000000E+00 0. -1.
         -5    1    5    5    0  502 -0.83845804851E+01  0.52461092451E+02 -0.48169799269E+02  0.71867148077E+02  0.47000000000E+01 0.  1.
         11    1    6    6    0    0  0.33477052971E+02  0.18040269180E+02 -0.11317006353E+02  0.39676681068E+02  0.00000000000E+00 0. -1.
        -12    1    6    6    0    0  0.10994755520E+02 -0.68418202417E+02  0.10302798689E+02  0.70057710009E+02  0.00000000000E+00 0.  1.
</event>
<event>
12    1  0.8406581E-002  0.1885843E+03  0.7818608E-02  0.1160134E+00
         21   -1    0    0  503  502  0.00000000000E+00  0.00000000000E+00  0.61082990980E+02  0.61082990980E+02  0.00000000000E+00 0. -1.
         21   -1    0    0  501  503 -0.00000000000E+00 -0.00000000000E+00 -0.97472241690E+03  0.97472241690E+03  0.00000000000E+00 0. -1.
          6    2    1    2  501    0 -0.77622686334E+02  0.13542703321E+02 -0.12476053406E+03  0.22469879824E+03  0.16945699403E+03 0.  0.
         24    2    3    3    0    0  0.13578657626E+02  0.33219791936E+02 -0.79500648386E+02  0.12089407674E+03  0.83708363841E+02 0.  0.
         -6    2    1    2    0  502  0.77622686334E+02 -0.13542703321E+02 -0.78887889187E+03  0.81110660964E+03  0.17133400107E+03 0.  0.
        -24    2    5    5    0    0 -0.31525137897E+01 -0.24628145357E+02 -0.20925332941E+03  0.22575594326E+03  0.81008062318E+02 0.  0.
          5    1    3    3  501    0 -0.91201343959E+02 -0.19677088614E+02 -0.45259885672E+02  0.10380472151E+03  0.47000000000E+01 0. -1.
        -13    1    4    4    0    0 -0.35100744118E+02  0.88846803155E+01 -0.37694029733E+02  0.52267003544E+02  0.00000000000E+00 0.  1.
         14    1    4    4    0    0  0.48679401744E+02  0.24335111620E+02 -0.41806618653E+02  0.68627073192E+02  0.00000000000E+00 0. -1.
         -5    1    5    5    0  502  0.80775200123E+02  0.11085442035E+02 -0.57962556245E+03  0.58535066638E+03  0.47000000000E+01 0.  1.
         11    1    6    6    0    0  0.10903844701E+02  0.19436292871E+02 -0.14433958548E+03  0.14604992039E+03  0.00000000000E+00 0. -1.
        -12    1    6    6    0    0 -0.14056358490E+02 -0.44064438228E+02 -0.64913743934E+02  0.79706022871E+02  0.00000000000E+00 0.  1.
</event>
<event>
12    1  0.8406581E-002  0.1836650E+03  0.7818608E-02  0.1166950E+00
         21   -1    0    0  503  502  0.00000000000E+00  0.00000000000E+00  0.37623679548E+03  0.37623679548E+03  0.00000000000E+00 0.  1.
         21   -1    0    0  501  503 -0.00000000000E+00 -0.00000000000E+00 -0.11198529572E+03  0.11198529572E+03  0.00000000000E+00 0.  1.
          6    2    1    2  501    0  0.51742225896E+02 -0.34970169209E+02  0.25013727633E+03  0.30401555771E+03  0.16111061927E+03 0.  0.
         24    2    3    3    0    0  0.36261734207E+02  0.38196584986E+02  0.11905530407E+03  0.15302683960E+03  0.80431062027E+02 0.  0.
         -6    2    1    2    0  502 -0.51742225896E+02  0.34970169209E+02  0.14114223425E+02  0.18420653349E+03  0.17272135075E+03 0.  0.
        -24    2    5    5    0    0 -0.60590629390E+01  0.36261658366E+01 -0.54787531885E+02  0.95668746024E+02  0.78108731863E+02 0.  0.
          5    1    3    3  501    0  0.15480491689E+02 -0.73166754195E+02  0.13108197226E+03  0.15098871810E+03  0.47000000000E+01 0. -1.
        -11    1    4    4    0    0  0.42014391466E+02 -0.78697971432E+01  0.28830756758E+02  0.51559241001E+02  0.00000000000E+00 0.  1.
         12    1    4    4    0    0 -0.57526572588E+01  0.46066382129E+02  0.90224547314E+02  0.10146759860E+03  0.00000000000E+00 0. -1.
         -5    1    5    5    0  502 -0.45683162957E+02  0.31344003372E+02  0.68901755310E+02  0.88537787470E+02  0.47000000000E+01 0.  1.
         13    1    6    6    0    0  0.19807724449E+02  0.32927861581E+02 -0.19879799134E+02  0.43264262732E+02  0.00000000000E+00 0. -1.
        -14    1    6    6    0    0 -0.25866787388E+02 -0.29301695744E+02 -0.34907732751E+02  0.52404483292E+02  0.00000000000E+00 0.  1.
</event>
<event>
12    1  0.8406581E-002  0.2387214E+03  0.7818608E-02  0.1120674E+00
         21   -1    0    0  503  502  0.00000000000E+00  0.00000000000E+00  0.13845108585E+04  0.13845108585E+04  0.00000000000E+00 0.  1.
         21   -1    0    0  501  503 -0.00000000000E+00 -0.00000000000E+00 -0.41043597892E+03  0.41043597892E+03  0.00000000000E+00 0.  1.
          6    2    1    2  501    0 -0.12202133564E+03  0.11121492479E+03 -0.36426067161E+03  0.43551549386E+03  0.17242372998E+03 0.  0.
         24    2    3    3    0    0 -0.13088134995E+03  0.13799108597E+03 -0.28269978168E+03  0.34908788584E+03  0.75971823123E+02 0.  0.
         -6    2    1    2    0  502  0.12202133564E+03 -0.11121492479E+03  0.13383355512E+04  0.13594313436E+04  0.17220210338E+03 0.  0.
        -24    2    5    5    0    0  0.62321263352E+02 -0.76873942886E+02  0.42433184432E+03  0.44282441152E+03  0.79008875311E+02 0.  0.
          5    1    3    3  501    0  0.88600143068E+01 -0.26776161180E+02 -0.81560889934E+02  0.86427608019E+02  0.47000000000E+01 0. -1.
        -13    1    4    4    0    0 -0.36952829423E+01  0.35904548694E+02 -0.87955990023E+02  0.95073907639E+02  0.00000000000E+00 0.  1.
         14    1    4    4    0    0 -0.12718606701E+03  0.10208653727E+03 -0.19474379166E+03  0.25401397820E+03  0.00000000000E+00 0. -1.
         -5    1    5    5    0  502  0.59700072292E+02 -0.34340981902E+02  0.91400370689E+03  0.91660693205E+03  0.47000000000E+01 0.  1.
         11    1    6    6    0    0  0.28555897909E+01 -0.10566856429E+02  0.21568480459E+03  0.21596237584E+03  0.00000000000E+00 0. -1.
        -12    1    6    6    0    0  0.59465673561E+02 -0.66307086457E+02  0.20864703973E+03  0.22686203568E+03  0.00000000000E+00 0.  1.
</event>
<event>
12    1  0.8406581E-002  0.2144120E+03  0.7818608E-02  0.1138652E+00
         21   -1    0    0  501  502  0.00000000000E+00  0.00000000000E+00  0.95262391548E+03  0.95262391548E+03  0.00000000000E+00 0. -1.
         21   -1    0    0  502  503 -0.00000000000E+00 -0.00000000000E+00 -0.49625059225E+02  0.49625059225E+02  0.00000000000E+00 0. -1.
         -6    2    1    2    0  503  0.87690389690E+02  0.85119876635E+02  0.55444014285E+03  0.59445469469E+03  0.17617466955E+03 0.  0.
        -24    2    3    3    0    0  0.41832107068E+02  0.60547827659E+02  0.52153743734E+03  0.53271778753E+03  0.79818406294E+02 0.  0.
          6    2    1    2  501    0 -0.87690389690E+02 -0.85119876635E+02  0.34855871340E+03  0.40779428001E+03  0.17282361031E+03 0.  0.
         24    2    5    5    0    0  0.21691512701E+02 -0.36612258326E+02  0.16043604595E+03  0.18479289523E+03  0.81226289497E+02 0.  0.
          5    1    5    5  501    0 -0.10938190239E+03 -0.48507618309E+02  0.18812266745E+03  0.22300138478E+03  0.47000000000E+01 0. -1.
        -13    1    6    6    0    0  0.38098142329E+01 -0.41089397321E+01 -0.94049229184E+01  0.10947631950E+02  0.00000000000E+00 0.  1.
         14    1    6    6    0    0  0.17881698468E+02 -0.32503318594E+02  0.16984096887E+03  0.17384526328E+03  0.00000000000E+00 0. -1.
         -5    1    3    3    0  503  0.45858282622E+02  0.24572048976E+02  0.32902705509E+02  0.61736907161E+02  0.47000000000E+01 0.  1.
         13    1    4    4    0    0  0.35976721093E+02  0.76978484015E+02  0.34454655966E+03  0.35486947352E+03  0.00000000000E+00 0. -1.
        -14    1    4    4    0    0  0.58553859749E+01 -0.16430656357E+02  0.17699087768E+03  0.17784831401E+03  0.00000000000E+00 0.  1.
</event>
<event>
12    1  0.8406581E-002  0.2851051E+03  0.7818608E-02  0.1092943E+00
         21   -1    0    0  501  502  0.00000000000E+00  0.00000000000E+00  0.25743596891E+03  0.25743596891E+03  0.00000000000E+00 0. -1.
         21   -1    0    0  502  503 -0.00000000000E+00 -0.00000000000E+00 -0.33012433324E+03  0.33012433324E+03  0.00000000000E+00 0.  1.
         -6    2    1    2    0  503  0.14100968051E+03 -0.17854508185E+03  0.25133504981E+02  0.28621081788E+03  0.17182218410E+03 0.  0.
        -24    2    3    3    0    0  0.13482522546E+03 -0.19537267027E+03 -0.56430357083E+01  0.25028449504E+03  0.79133829018E+02 0.  0.
          6    2    1    2  501    0 -0.14100968051E+03  0.17854508185E+03 -0.97821869308E+02  0.30134948427E+03  0.17169833227E+03 0.  0.
         24    2    5    5    0    0 -0.15446005473E+03  0.92152245542E+02 -0.57335808001E+02  0.20488267188E+03  0.79621413532E+02 0.  0.
          5    1    5    5  501    0  0.13450374220E+02  0.86392836311E+02 -0.40486061307E+02  0.96466812390E+02  0.47000000000E+01 0. -1.
        -11    1    6    6    0    0 -0.97682449407E+02  0.74869832741E+02 -0.10377666787E+01  0.12307895733E+03  0.00000000000E+00 0.  1.
         12    1    6    6    0    0 -0.56777605324E+02  0.17282412801E+02 -0.56298041323E+02  0.81803714557E+02  0.00000000000E+00 0. -1.
         -5    1    3    3    0  503  0.61844550510E+01  0.16827588420E+02  0.30776540689E+02  0.35926322844E+02  0.47000000000E+01 0.  1.
         11    1    4    4    0    0  0.68465833982E+01 -0.40105279416E+02 -0.25624122675E+02  0.48082271204E+02  0.00000000000E+00 0. -1.
        -12    1    4    4    0    0  0.12797864206E+03 -0.15526739086E+03  0.19981086967E+02  0.20220222384E+03  0.00000000000E+00 0.  1.
</event>
<event>
12    1  0.8406581E-002  0.3051724E+03  0.7818608E-02  0.1082888E+00
         21   -1    0    0  503  502  0.00000000000E+00  0.00000000000E+00  0.45284360325E+03  0.45284360325E+03  0.00000000000E+00 0.  1.
         21   -1    0    0  501  503 -0.00000000000E+00 -0.00000000000E+00 -0.35823487170E+03  0.35823487170E+03  0.00000000000E+00 0.  1.
          6    2    1    2  501    0 -0.98538405859E+01 -0.25148027961E+03  0.31301769845E+03  0.43716157639E+03  0.17259992792E+03 0.  0.
         24    2    3    3    0    0 -0.49286244898E+02 -0.15945466807E+03  0.27233601776E+03  0.32899172461E+03  0.78827172906E+02 0.  0.
         -6    2    1    2    0  502  0.98538405859E+01  0.25148027961E+03 -0.21840896690E+03  0.37391689856E+03  0.16962293772E+03 0.  0.
        -24    2    5    5    0    0 -0.12761592736E+02  0.41893512478E+02 -0.63456132019E+02  0.11224813501E+03  0.81578419236E+02 0.  0.
          5    1    3    3  501    0  0.39432404312E+02 -0.92025611542E+02  0.40681680698E+02  0.10816985178E+03  0.47000000000E+01 0. -1.
        -13    1    4    4    0    0 -0.70451902623E+00 -0.12083961360E+03  0.20010795429E+03  0.23376462935E+03  0.00000000000E+00 0.  1.
         14    1    4    4    0    0 -0.48581725872E+02 -0.38615054465E+02  0.72228063462E+02  0.95227095259E+02  0.00000000000E+00 0. -1.
         -5    1    5    5    0  502  0.22615433322E+02  0.20958676713E+03 -0.15495283488E+03  0.26166876355E+03  0.47000000000E+01 0.  1.
         13    1    6    6    0    0 -0.17810944400E+02  0.37123820998E+02 -0.82376025689E+02  0.92093525474E+02  0.00000000000E+00 0. -1.
        -14    1    6    6    0    0  0.50493516638E+01  0.47696914796E+01  0.18919893669E+02  0.20154609535E+02  0.00000000000E+00 0.  1.
</event>
<event>
12    1  0.8406581E-002  0.1852813E+03  0.7818608E-02  0.1162814E+00
         21   -1    0    0  503  502  0.00000000000E+00  0.00000000000E+00  0.32708333107E+03  0.32708333107E+03  0.00000000000E+00 0.  1.
         21   -1    0    0  501  503 -0.00000000000E+00 -0.00000000000E+00 -0.10789898456E+03  0.10789898456E+03  0.00000000000E+00 0.  1.
          6    2    1    2  501    0 -0.52653741028E+02  0.43416809267E+02  0.73249833685E+02  0.19913059809E+03  0.17213373053E+03 0.  0.
         24    2    3    3    0    0 -0.17750145946E+02 -0.26396254131E+02 -0.60816064084E+01  0.87740777375E+02  0.81545252250E+02 0.  0.
         -6    2    1    2    0  502  0.52653741028E+02 -0.43416809267E+02  0.14593451282E+03  0.23585171754E+03  0.17225479634E+03 0.  0.
        -24    2    5    5    0    0  0.47003848070E+02 -0.93005485143E+02  0.92084624678E+02  0.16227958614E+03  0.83640325058E+02 0.  0.
          5    1    3    3  501    0 -0.34903595082E+02  0.69813063399E+02  0.79331440093E+02  0.11138982071E+03  0.47000000000E+01 0. -1.
        -13    1    4    4    0    0 -0.14385261985E+02  0.15248051228E+02 -0.32233825364E+02  0.38450725952E+02  0.00000000000E+00 0.  1.
         14    1    4    4    0    0 -0.33648839618E+01 -0.41644305359E+02  0.26152218956E+02  0.49290051423E+02  0.00000000000E+00 0. -1.
         -5    1    5    5    0  502  0.56498929589E+01  0.49588675876E+02  0.53849888146E+02  0.73572131401E+02  0.47000000000E+01 0.  1.
         13    1    6    6    0    0 -0.97246220253E+01  0.60718621595E+01  0.30449529564E+02  0.32536281814E+02  0.00000000000E+00 0. -1.
        -14    1    6    6    0    0  0.56728470095E+02 -0.99077347303E+02  0.61635095114E+02  0.12974330433E+03  0.00000000000E+00 0.  1.
</event>
<event>
12    1  0.8406581E-002  0.2452874E+03  0.7818608E-02  0.1116457E+00
         21   -1    0    0  501  502  0.00000000000E+00  0.00000000000E+00  0.91064267249E+03  0.91064267249E+03  0.00000000000E+00 0.  1.
         21   -1    0    0  502  503 -0.00000000000E+00 -0.00000000000E+00 -0.78196633530E+02  0.78196633530E+02  0.00000000000E+00 0. -1.
         -6    2    1    2    0  503 -0.17322325799E+03  0.33258040126E+00  0.21909623176E+03  0.32826083620E+03  0.17246915693E+03 0.  0.
        -24    2    3    3    0    0 -0.70938474732E+02  0.55058250994E+02  0.62637369035E+02  0.13343131679E+03  0.76267936255E+02 0.  0.
          6    2    1    2  501    0  0.17322325799E+03 -0.33258040126E+00  0.61334980720E+03  0.66057846982E+03  0.17366496791E+03 0.  0.
         24    2    5    5    0    0  0.10393117808E+03  0.65411731881E+02  0.42888266158E+03  0.45279510969E+03  0.77477025666E+02 0.  0.
          5    1    5    5  501    0  0.69292079913E+02 -0.65744312282E+02  0.18446714561E+03  0.20778336013E+03  0.47000000000E+01 0. -1.
        -11    1    6    6    0    0  0.94971761696E+02  0.33595871213E+02  0.38437223756E+03  0.39735416833E+03  0.00000000000E+00 0.  1.
         12    1    6    6    0    0  0.89594163823E+01  0.31815860668E+02  0.44510424023E+02  0.55440941358E+02  0.00000000000E+00 0. -1.
         -5    1    3    3    0  503 -0.10228478326E+03 -0.54725670593E+02  0.15645886273E+03  0.19482951941E+03  0.47000000000E+01 0.  1.
         11    1    4    4    0    0  0.93937338824E+00  0.43595796831E+02  0.33672747344E+02  0.55093827580E+02  0.00000000000E+00 0. -1.
        -12    1    4    4    0    0 -0.71877848121E+02  0.11462454163E+02  0.28964621691E+02  0.78337489209E+02  0.00000000000E+00 0.  1.
</event>
<event>
12    1  0.8406581E-002  0.2347488E+03  0.7818608E-02  0.1124397E+00
         21   -1    0    0  503  502  0.00000000000E+00  0.00000000000E+00  0.31417723702E+03  0.31417723702E+03  0.00000000000E+00 0.  1.
         21   -1    0    0  501  503 -0.00000000000E+00 -0.00000000000E+00 -0.21091125928E+03  0.21091125928E+03  0.00000000000E+00 0.  1.
          6    2    1    2  501    0 -0.87952855676E+02 -0.13651345294E+03 -0.62175157448E+02  0.24284303221E+03  0.16951507436E+03 0.  0.
         24    2    3    3    0    0  0.35951987649E+00 -0.10727059065E+03 -0.65358970116E+02  0.14964191991E+03  0.81325274959E+02 0.  0.
         -6    2    1    2    0  502  0.87952855676E+02  0.13651345294E+03  0.16544113518E+03  0.28224546409E+03  0.16099722088E+03 0.  0.
        -24    2    5    5    0    0  0.13497341831E+02  0.97931639725E+02  0.15139604533E+03  0.19708952242E+03  0.78426609073E+02 0.  0.
          5    1    3    3  501    0 -0.88312375552E+02 -0.29242862292E+02  0.31838126679E+01  0.93201112299E+02  0.47000000000E+01 0. -1.
        -13    1    4    4    0    0 -0.22113347025E+02 -0.57491412067E+02  0.35660449087E+01  0.61700723289E+02  0.00000000000E+00 0.  1.
         14    1    4    4    0    0  0.22472866901E+02 -0.49779178582E+02 -0.68925015025E+02  0.87941196621E+02  0.00000000000E+00 0. -1.
         -5    1    5    5    0  502  0.74455513845E+02  0.38581813216E+02  0.14045089859E+02  0.85155941672E+02  0.47000000000E+01 0.  1.
         13    1    6    6    0    0 -0.20323536983E+02 -0.20901426277E+01  0.28487917887E+02  0.35056758511E+02  0.00000000000E+00 0. -1.
        -14    1    6    6    0    0  0.33820878815E+02  0.10002178235E+03  0.12290812744E+03  0.16203276391E+03  0.00000000000E+00 0.  1.
</event>
<event>
12    1  0.8406581E-002  0.1935495E+03  0.7818608E-02  0.1155321E+00
         21   -1    0    0  501  502  0.00000000000E+00  0.00000000000E+00  0.10129672511E+03  0.10129672511E+03  0.00000000000E+00 0. -1.
         21   -1    0    0  502  503 -0.00000000000E+00 -0.00000000000E+00 -0.36971247255E+03  0.36971247255E+03  0.00000000000E+00 0. -1.
         -6    2    1    2    0  503  0.62698908441E+02  0.62770427388E+02 -0.13045759697E+03  0.23332480088E+03  0.17190112979E+03 0.  0.
        -24    2    3    3    0    0  0.34771618414E+02  0.54287664590E+02 -0.16033503763E+03  0.19129335725E+03  0.82034189588E+02 0.  0.
          6    2    1    2  501    0 -0.62698908441E+02 -0.62770427388E+02 -0.13795815047E+03  0.23768439678E+03  0.17201785232E+03 0.  0.
         24    2    5    5    0    0 -0.80113701033E+01 -0.97630159846E+02 -0.10674903162E+03  0.16555931865E+03  0.80116802710E+02 0.  0.
          5    1    5    5  501    0 -0.54687538338E+02  0.34859732458E+02 -0.31209118849E+02  0.72125078134E+02  0.47000000000E+01 0. -1.
        -11    1    6    6    0    0  0.12393439712E+02 -0.95100290746E+00 -0.50193503671E+02  0.51709666072E+02  0.00000000000E+00 0.  1.
         12    1    6    6    0    0 -0.20404809816E+02 -0.96679156939E+02 -0.56555527952E+02  0.11384965258E+03  0.00000000000E+00 0. -1.
         -5    1    3    3    0  503  0.27927290027E+02  0.84827627986E+01  0.29877440659E+02  0.42031443626E+02  0.47000000000E+01 0.  1.
         13    1    4    4    0    0 -0.81212473323E+01  0.23781467553E+02 -0.29047898379E+01  0.25297246120E+02  0.00000000000E+00 0. -1.
        -14    1    4    4    0    0  0.42892865746E+02  0.30506197036E+02 -0.15743024780E+03  0.16599611113E+03  0.00000000000E+00 0.  1.
</event>
<event>
12    1  0.8406581E-002  0.2752389E+03  0.7818608E-02  0.1098489E+00
         21   -1    0    0  501  502  0.00000000000E+00  0.00000000000E+00  0.10666811582E+03  0.10666811582E+03  0.00000000000E+00 0. -1.
         21   -1    0    0  502  503 -0.00000000000E+00 -0.00000000000E+00 -0.87582028653E+03  0.87582028653E+03  0.00000000000E+00 0.  1.
         -6    2    1    2    0  503 -0.11874412763E+03  0.17765940173E+03 -0.60090941101E+03  0.66094521122E+03  0.17347455469E+03 0.  0.
        -24    2    3    3    0    0 -0.99203072065E+02  0.20466432126E+03 -0.52467031813E+03  0.57760489796E+03  0.81361793954E+02 0.  0.
          6    2    1    2  501    0  0.11874412763E+03 -0.17765940173E+03 -0.16824275970E+03  0.32154319113E+03  0.17152657725E+03 0.  0.
         24    2    5    5    0    0  0.75907715872E+02 -0.18004219538E+03 -0.83755816387E+02  0.22667080596E+03  0.78660307962E+02 0.  0.
          5    1    5    5  501    0  0.42836411759E+02  0.23827936551E+01 -0.84486943309E+02  0.94872385169E+02  0.47000000000E+01 0. -1.
        -11    1    6    6    0    0 -0.98871137857E+01 -0.42368388937E+02 -0.38908940223E+02  0.58367294175E+02  0.00000000000E+00 0.  1.
         12    1    6    6    0    0  0.85794829657E+02 -0.13767380645E+03 -0.44846876164E+02  0.16830351179E+03  0.00000000000E+00 0. -1.
         -5    1    3    3    0  503 -0.19541055566E+02 -0.27004919530E+02 -0.76239092886E+02  0.83340313267E+02  0.47000000000E+01 0.  1.
         11    1    4    4    0    0 -0.50855935271E+02  0.31144990398E+02 -0.10202599922E+03  0.11817631360E+03  0.00000000000E+00 0. -1.
        -12    1    4    4    0    0 -0.48347136794E+02  0.17351933086E+03 -0.42264431891E+03  0.45942858436E+03  0.00000000000E+00 0.  1.
</event>
<event>
12    1  0.8406581E-002  0.2885584E+03  0.7818608E-02  0.1091322E+00
         21   -1    0    0  503  502  0.00000000000E+00  0.00000000000E+00  0.13105925485E+03  0.13105925485E+03  0.00000000000E+00 0. -1.
         21   -1    0    0  501  503 -0.00000000000E+00 -0.00000000000E+00 -0.64663466457E+03  0.64663466457E+03  0.00000000000E+00 0. -1.
          6    2    1    2  501    0  0.13071400408E+03 -0.19104207326E+03 -0.31616837622E+03  0.42693882114E+03  0.16950247861E+03 0.  0.
         24    2    3    3    0    0  0.15051966338E+03 -0.11055585714E+03 -0.23603121075E+03  0.31155099503E+03  0.80464423451E+02 0.  0.
         -6    2    1    2    0  502 -0.13071400408E+03  0.19104207326E+03 -0.19940703349E+03  0.35075509828E+03  0.17228682291E+03 0.  0.
        -24    2    5    5    0    0 -0.10042184094E+03  0.39583550292E+02 -0.98837508178E+02  0.16638151354E+03  0.79136283937E+02 0.  0.
          5    1    3    3  501    0 -0.19805659301E+02 -0.80486216115E+02 -0.80137165474E+02  0.11538782611E+03  0.47000000000E+01 0. -1.
        -13    1    4    4    0    0  0.10240486756E+02  0.11364177249E+02 -0.32550431682E+02  0.35965854588E+02  0.00000000000E+00 0.  1.
         14    1    4    4    0    0  0.14027917662E+03 -0.12192003439E+03 -0.20348077907E+03  0.27558514044E+03  0.00000000000E+00 0. -1.
         -5    1    5    5    0  502 -0.30292163139E+02  0.15145852297E+03 -0.10056952531E+03  0.18437358474E+03  0.47000000000E+01 0.  1.
         13    1    6    6    0    0 -0.23881015966E+02  0.51129305022E+02 -0.42372995885E+02  0.70568970064E+02  0.00000000000E+00 0. -1.
        -14    1    6    6    0    0 -0.76540824971E+02 -0.11545754730E+02 -0.56464512293E+02  0.95812543479E+02  0.00000000000E+00 0.  1.
</event>
<event>
12    1  0.8406581E-002  0.1834489E+03  0.7818608E-02  0.1164517E+00
         21   -1    0    0  503  502  0.00000000000E+00  0.00000000000E+00  0.60749478371E+03  0.60749478371E+03  0.00000000000E+00 0. -1.
         21   -1    0    0  501  503 -0.00000000000E+00 -0.00000000000E+00 -0.15647922039E+03  0.15647922039E+03  0.00000000000E+00 0. -1.
          6    2    1    2  501    0 -0.33655276112E+02  0.50895719496E+02 -0.81535376069E+02  0.20071206160E+03  0.17295740010E+03 0.  0.
         24    2    3    3    0    0 -0.79157471766E+02  0.37205093716E+02 -0.94693519145E+02  0.15118318343E+03  0.78989670530E+02 0.  0.
         -6    2    1    2    0  502  0.33655276112E+02 -0.50895719496E+02  0.53255093939E+03  0.56326194249E+03  0.17300422232E+03 0.  0.
        -24    2    5    5    0    0 -0.23066364542E+01 -0.96619465036E+02  0.35202923142E+03  0.37354083900E+03  0.79167777727E+02 0.  0.
          5    1    3    3  501    0  0.45502195654E+02  0.13690625780E+02  0.13158143076E+02  0.49528878170E+02  0.47000000000E+01 0. -1.
        -11    1    4    4    0    0 -0.32735398461E+02  0.12520563514E+02  0.78770182617E+01  0.35922391900E+02  0.00000000000E+00 0.  1.
         12    1    4    4    0    0 -0.46422073305E+02  0.24684530202E+02 -0.10257053741E+03  0.11526079153E+03  0.00000000000E+00 0. -1.
         -5    1    5    5    0  502  0.35961912566E+02  0.45723745540E+02  0.18052170797E+03  0.18972110349E+03  0.47000000000E+01 0.  1.
         13    1    6    6    0    0  0.77956941909E+01 -0.54070541862E+02  0.30281734555E+03  0.30770560786E+03  0.00000000000E+00 0. -1.
        -14    1    6    6    0    0 -0.10102330645E+02 -0.42548923174E+02  0.49211885873E+02  0.65835231137E+02  0.00000000000E+00 0.  1.
</event>
<event>
12    1  0.8406581E-002  0.1914906E+03  0.7818608E-02  0.1157153E+00
         21   -1    0    0  503  502  0.00000000000E+00  0.00000000000E+00  0.12777140295E+03  0.12777140295E+03  0.00000000000E+00 0. -1.
         21   -1    0    0  501  503 -0.00000000000E+00 -0.00000000000E+00 -0.54246468424E+03  0.54246468424E+03  0.00000000000E+00 0. -1.
          6    2    1    2  501    0  0.35077282524E+02 -0.81115127897E+02 -0.43737773159E+03  0.47740654040E+03  0.16972815030E+03 0.  0.
         24    2    3    3    0    0  0.36027037075E+02  0.14190581314E+02 -0.27907195557E+03  0.29256366398E+03  0.78822719424E+02 0.  0.
         -6    2    1    2    0  502 -0.35077282524E+02  0.81115127897E+02  0.22684450308E+02  0.19282954678E+03  0.16987810366E+03 0.  0.
        -24    2    5    5    0    0  0.17344412236E+02  0.98555059802E+02 -0.10084727266E+02  0.12842384591E+03  0.79856458885E+02 0.  0.
          5    1    3    3  501    0 -0.94975455124E+00 -0.95305709212E+02 -0.15830577602E+03  0.18484287642E+03  0.47000000000E+01 0. -1.
        -13    1    4    4    0    0  0.55809872259E+02  0.20436858210E+01 -0.12709357656E+03  0.13882253310E+03  0.00000000000E+00 0.  1.
         14    1    4    4    0    0 -0.19782835184E+02  0.12146895493E+02 -0.15197837901E+03  0.15374113088E+03  0.00000000000E+00 0. -1.
         -5    1    5    5    0  502 -0.52421694760E+02 -0.17439931905E+02  0.32769177574E+02  0.64405700875E+02  0.47000000000E+01 0.  1.
         11    1    6    6    0    0  0.39995876341E+02  0.18243873726E+02  0.25213693396E+01  0.44032560182E+02  0.00000000000E+00 0. -1.
        -12    1    6    6    0    0 -0.22651464105E+02  0.80311186076E+02 -0.12606096605E+02  0.84391285727E+02  0.00000000000E+00 0.  1.
</event>
<event>
12    1  0.8406581E-002  0.2379012E+03  0.7818608E-02  0.1121309E+00
         21   -1    0    0  501  502  0.00000000000E+00  0.00000000000E+00  0.18627239749E+03  0.18627239749E+03  0.00000000000E+00 0.  1.
         21   -1    0    0  502  503 -0.00000000000E+00 -0.00000000000E+00 -0.30836805086E+03  0.30836805086E+03  0.00000000000E+00 0. -1.
         -6    2    1    2    0  503 -0.16386633661E+03 -0.22587995074E+01 -0.93575655069E+02  0.25503579214E+03  0.17155049869E+03 0.  0.
        -24    2    3    3    0    0 -0.83407761009E+02 -0.47368591335E+02 -0.10125897842E+03  0.16235570170E+03  0.83098466425E+02 0.  0.
          6    2    1    2  501    0  0.16386633661E+03  0.22587995074E+01 -0.28519998300E+02  0.23960465622E+03  0.17245208764E+03 0.  0.
         24    2    5    5    0    0  0.12215218576E+03  0.63925052307E+02 -0.48010139730E+01  0.16132645151E+03  0.83639735907E+02 0.  0.
          5    1    5    5  501    0  0.41714150842E+02 -0.61666252800E+02 -0.23718984327E+02  0.78278204708E+02  0.47000000000E+01 0. -1.
        -13    1    6    6    0    0 -0.86501475978E+01  0.20154605119E+02 -0.80324647062E+01  0.23357089935E+02  0.00000000000E+00 0.  1.
         14    1    6    6    0    0  0.13080233336E+03  0.43770447188E+02  0.32314507332E+01  0.13796936158E+03  0.00000000000E+00 0. -1.
         -5    1    3    3    0  503 -0.80458575597E+02  0.45109791828E+02  0.76833233489E+01  0.92680090438E+02  0.47000000000E+01 0.  1.
         11    1    4    4    0    0 -0.94239372306E+02 -0.49631308600E+02 -0.10604530267E+03  0.15029947540E+03  0.00000000000E+00 0. -1.
        -12    1    4    4    0    0  0.10831611297E+02  0.22627172649E+01  0.47863242561E+01  0.12056226300E+02  0.00000000000E+00 0.  1.
</event>
<event>
12    1  0.8406581E-002  0.1982522E+03  0.7818608E-02  0.1151397E+00
         21   -1    0    0  501  502  0.00000000000E+00  0.00000000000E+00  0.25149056461E+03  0.25149056461E+03  0.00000000000E+00 0. -1.
         21   -1    0    0  502  503 -0.00000000000E+00 -0.00000000000E+00 -0.17058553563E+03  0.17058553563E+03  0.00000000000E+00 0. -1.
         -6    2    1    2    0  503 -0.36876299299E+02 -0.90166986291E+02  0.10299647320E+03  0.22341038654E+03  0.17266725358E+03 0.  0.
        -24    2    3    3    0    0 -0.77314273627E+02 -0.12380212411E+02  0.72153339045E+02  0.13035448462E+03  0.75202531604E+02 0.  0.
          6    2    1    2  501    0  0.36876299299E+02  0.90166986291E+02 -0.22091444216E+02  0.19866571369E+03  0.17172678015E+03 0.  0.
         24    2    5    5    0    0 -0.10053168350E+02 -0.68160497773E+01 -0.39963349178E+02  0.89351582827E+02  0.78988045600E+02 0.  0.
          5    1    5    5  501    0  0.46929467649E+02  0.96983036069E+02  0.17871904962E+02  0.10931413086E+03  0.47000000000E+01 0. -1.
        -13    1    6    6    0    0  0.31480332290E+02  0.53387211891E+01 -0.32271451236E+02  0.45397795430E+02  0.00000000000E+00 0.  1.
         14    1    6    6    0    0 -0.41533500639E+02 -0.12154770966E+02 -0.76918979420E+01  0.43953787397E+02  0.00000000000E+00 0. -1.
         -5    1    3    3    0  503  0.40437974329E+02 -0.77786773881E+02  0.30843134151E+02  0.93055901924E+02  0.47000000000E+01 0.  1.
         13    1    4    4    0    0 -0.49797679597E+02 -0.11963549653E+02 -0.20057586586E+01  0.51253863087E+02  0.00000000000E+00 0. -1.
        -14    1    4    4    0    0 -0.27516594031E+02 -0.41666275727E+00  0.74159097704E+02  0.79100621534E+02  0.00000000000E+00 0.  1.
</event>
<event>
12    1  0.8406581E-002  0.2769718E+03  0.7818608E-02  0.1097359E+00
         21   -1    0    0  501  502  0.00000000000E+00  0.00000000000E+00  0.12793946254E+04  0.12793946254E+04  0.00000000000E+00 0.  1.
         21   -1    0    0  502  503 -0.00000000000E+00 -0.00000000000E+00 -0.22937690947E+03  0.22937690947E+03  0.00000000000E+00 0.  1.
         -6    2    1    2    0  503 -0.14997565372E+03  0.15727585449E+03 -0.12332639144E+03  0.30318764852E+03  0.17171185245E+03 0.  0.
        -24    2    3    3    0    0 -0.99083396220E+02  0.17952102064E+03 -0.11044648555E+03  0.24597880946E+03  0.79131739991E+02 0.  0.
          6    2    1    2  501    0  0.14997565372E+03 -0.15727585449E+03  0.11733441074E+04  0.12055838864E+04  0.17166164865E+03 0.  0.
         24    2    5    5    0    0  0.99014726561E+02 -0.19546462684E+02  0.48682973515E+03  0.50352229736E+03  0.79658851605E+02 0.  0.
          5    1    5    5  501    0  0.50960927164E+02 -0.13772939181E+03  0.68651437226E+03  0.70206158903E+03  0.47000000000E+01 0. -1.
        -13    1    6    6    0    0  0.15375694971E+02 -0.18679995865E+02  0.27058560725E+03  0.27166509731E+03  0.00000000000E+00 0.  1.
         14    1    6    6    0    0  0.83639031589E+02 -0.86646681857E+00  0.21624412789E+03  0.23185720006E+03  0.00000000000E+00 0. -1.
         -5    1    3    3    0  503 -0.50892257504E+02 -0.22245166145E+02 -0.12879905884E+02  0.57208839057E+02  0.47000000000E+01 0.  1.
         13    1    4    4    0    0  0.47341912461E+00  0.34032784892E+02  0.61929902569E+01  0.34594908606E+02  0.00000000000E+00 0. -1.
        -14    1    4    4    0    0 -0.99556815345E+02  0.14548823575E+03 -0.11663947581E+03  0.21138390085E+03  0.00000000000E+00 0.  1.
</event>
<event>
12    1  0.8406581E-002  0.1760024E+03  0.7818608E-02  0.1172086E+00
         21   -1    0    0  503  502  0.00000000000E+00  0.00000000000E+00  0.20435783239E+03  0.20435783239E+03  0.00000000000E+00 0. -1.
         21   -1    0    0  501  503 -0.00000000000E+00 -0.00000000000E+00 -0.20733895002E+03  0.20733895002E+03  0.00000000000E+00 0. -1.
          6    2    1    2  501    0 -0.30301281843E+01 -0.30630462696E+02 -0.10941057424E+03  0.20723782378E+03  0.17329003125E+03 0.  0.
         24    2    3    3    0    0 -0.10609774774E+02  0.46689338205E+02 -0.35907844587E+02  0.10018389382E+03  0.80342875574E+02 0.  0.
         -6    2    1    2    0  502  0.30301281843E+01  0.30630462696E+02  0.10642945660E+03  0.20445895862E+03  0.17183954611E+03 0.  0.
        -24    2    5    5    0    0 -0.41518373100E+02  0.82026479942E+01 -0.51552091767E-01  0.86781981047E+02  0.75763123205E+02 0.  0.
          5    1    3    3  501    0  0.75796465900E+01 -0.77319800902E+02 -0.73502729652E+02  0.10705392996E+03  0.47000000000E+01 0. -1.
        -13    1    4    4    0    0 -0.24538958856E+02  0.19712962767E+02  0.19483053861E+02  0.37018249426E+02  0.00000000000E+00 0.  1.
         14    1    4    4    0    0  0.13929184081E+02  0.26976375438E+02 -0.55390898448E+02  0.63165644395E+02  0.00000000000E+00 0. -1.
         -5    1    5    5    0  502  0.44548501285E+02  0.22427814702E+02  0.10648100869E+03  0.11767697758E+03  0.47000000000E+01 0.  1.
         13    1    6    6    0    0 -0.33358208456E+02 -0.29450748582E+02  0.12569918574E+02  0.46239804459E+02  0.00000000000E+00 0. -1.
        -14    1    6    6    0    0 -0.81601646448E+01  0.37653396576E+02 -0.12621470666E+02  0.40542176588E+02  0.00000000000E+00 0.  1.
</event>
<event>
12    1  0.8406581E-002  0.3958675E+03  0.7818608E-02  0.1045238E+00
         21   -1    0    0  503  502  0.00000000000E+00  0.00000000000E+00  0.87859610027E+03  0.87859610027E+03  0.00000000000E+00 0.  1.
         21   -1    0    0  501  503 -0.00000000000E+00 -0.00000000000E+00 -0.60323429739E+03  0.60323429739E+03  0.00000000000E+00 0. -1.
          6    2    1    2  501    0 -0.41937262468E+02  0.35368782828E+03 -0.48420036334E+03  0.62529915497E+03  0.17232303240E+03 0.  0.
         24    2    3    3    0    0 -0.42709603574E+02  0.13744211361E+03 -0.29738903836E+03  0.33949613406E+03  0.78121316382E+02 0.  0.
         -6    2    1    2    0  502  0.41937262468E+02 -0.35368782828E+03  0.75956216622E+03  0.85653124269E+03  0.17279256782E+03 0.  0.
        -24    2    5    5    0    0  0.29786914548E+02 -0.25568645640E+03  0.67359091834E+03  0.72551580349E+03  0.79910146997E+02 0.  0.
          5    1    3    3  501    0  0.77234110564E+00  0.21624571467E+03 -0.18681132498E+03  0.28580302091E+03  0.47000000000E+01 0. -1.
        -11    1    4    4    0    0 -0.33341778164E+02  0.18648683273E+02 -0.11888624066E+03  0.12487347908E+03  0.00000000000E+00 0.  1.
         12    1    4    4    0    0 -0.93678254096E+01  0.11879343034E+03 -0.17850279770E+03  0.21462265498E+03  0.00000000000E+00 0. -1.
         -5    1    5    5    0  502  0.12150347920E+02 -0.98001371877E+02  0.85971247886E+02  0.13101543920E+03  0.47000000000E+01 0.  1.
         11    1    6    6    0    0 -0.31699450802E+01 -0.17052655507E+02  0.11117034203E+02  0.20601700442E+02  0.00000000000E+00 0. -1.
        -12    1    6    6    0    0  0.32956859628E+02 -0.23863380089E+03  0.66247388413E+03  0.70491410305E+03  0.00000000000E+00 0.  1.
</event>
<event>
12    1  0.8406581E-002  0.2139060E+03  0.7818608E-02  0.1139847E+00
         21   -1    0    0  503  502  0.00000000000E+00  0.00000000000E+00  0.79819212607E+02  0.79819212607E+02  0.00000000000E+00 0. -1.
         21   -1    0    0  501  503 -0.00000000000E+00 -0.00000000000E+00 -0.58182463897E+03  0.58182463897E+03  0.00000000000E+00 0. -1.
          6    2    1    2  501    0  0.35445786089E+02 -0.11973162044E+03 -0.32568735630E+03  0.38965118599E+03  0.17367707967E+03 0.  0.
         24    2    3    3    0    0 -0.54036908562E+02 -0.52615815644E+02 -0.19094118666E+03  0.21446470212E+03  0.62033540534E+02 0.  0.
         -6    2    1    2    0  502 -0.35445786089E+02  0.11973162044E+03 -0.17631807006E+03  0.27199266559E+03  0.16522676423E+03 0.  0.
        -24    2    5    5    0    0 -0.21613233759E+02  0.10799143861E+03 -0.51845896395E+02  0.14611739641E+03  0.80827061523E+02 0.  0.
          5    1    3    3  501    0  0.89482694651E+02 -0.67115804798E+02 -0.13474616965E+03  0.17518648387E+03  0.47000000000E+01 0. -1.
        -11    1    4    4    0    0 -0.91658320080E+01 -0.28987817023E+01  0.23531570702E+01  0.98971086664E+01  0.00000000000E+00 0.  1.
         12    1    4    4    0    0 -0.44871076554E+02 -0.49717033942E+02 -0.19329434373E+03  0.20456759346E+03  0.00000000000E+00 0. -1.
         -5    1    5    5    0  502 -0.13832552330E+02  0.11740181832E+02 -0.12447217367E+03  0.12587526918E+03  0.47000000000E+01 0.  1.
         13    1    6    6    0    0 -0.30729498170E+01  0.10843354432E+03 -0.62029578768E+02  0.12495977431E+03  0.00000000000E+00 0. -1.
        -14    1    6    6    0    0 -0.18540283942E+02 -0.44210571069E+00  0.10183682373E+02  0.21157622097E+02  0.00000000000E+00 0.  1.
</event>
<event>
12    1  0.8406581E-002  0.2439084E+03  0.7818608E-02  0.1117368E+00
         21   -1    0    0  503  502  0.00000000000E+00  0.00000000000E+00  0.86039310161E+02  0.86039310161E+02  0.00000000000E+00 0.  1.
         21   -1    0    0  501  503 -0.00000000000E+00 -0.00000000000E+00 -0.69132480305E+03  0.69132480305E+03  0.00000000000E+00 0. -1.
          6    2    1    2  501    0  0.81929298857E+02  0.15159422083E+03 -0.32549442702E+03  0.40618444844E+03  0.17130664417E+03 0.  0.
         24    2    3    3    0    0  0.10959160109E+03  0.16144933818E+03 -0.26349810684E+03  0.33742428543E+03  0.79672380778E+02 0.  0.
         -6    2    1    2    0  502 -0.81929298857E+02 -0.15159422083E+03 -0.27979106587E+03  0.37117966477E+03  0.17262121885E+03 0.  0.
        -24    2    5    5    0    0 -0.28348213629E+01 -0.13246025619E+03 -0.22369678877E+03  0.27223168401E+03  0.80722244707E+02 0.  0.
          5    1    3    3  501    0 -0.27662302233E+02 -0.98551173457E+01 -0.61996320178E+02  0.68760163019E+02  0.47000000000E+01 0. -1.
        -13    1    4    4    0    0  0.29512815068E+02  0.47585894678E+02 -0.14205352867E+03  0.15269128539E+03  0.00000000000E+00 0.  1.
         14    1    4    4    0    0  0.80078786022E+02  0.11386344350E+03 -0.12144457817E+03  0.18473300004E+03  0.00000000000E+00 0. -1.
         -5    1    5    5    0  502 -0.79094477494E+02 -0.19133964640E+02 -0.56094277106E+02  0.98947980762E+02  0.47000000000E+01 0.  1.
         11    1    6    6    0    0 -0.26958532911E+02 -0.12227535251E+03 -0.20440491757E+03  0.23970689321E+03  0.00000000000E+00 0. -1.
        -12    1    6    6    0    0  0.24123711548E+02 -0.10184903682E+02 -0.19291871198E+02  0.32524790794E+02  0.00000000000E+00 0.  1.
</event>
<event>
12    1  0.8406581E-002  0.2480389E+03  0.7818608E-02  0.1114590E+00
         21   -1    0    0  503  502  0.00000000000E+00  0.00000000000E+00  0.12996751709E+03  0.12996751709E+03  0.00000000000E+00 0.  1.
         21   -1    0    0  501  503 -0.00000000000E+00 -0.00000000000E+00 -0.49135184954E+03  0.49135184954E+03  0.00000000000E+00 0.  1.
          6    2    1    2  501    0  0.17003393787E+03 -0.56841481119E+02 -0.24096967988E+03  0.34581739794E+03  0.17140826144E+03 0.  0.
         24    2    3    3    0    0  0.43095865154E+02 -0.15092423627E+02 -0.17220330604E+03  0.19546061466E+03  0.80410437304E+02 0.  0.
         -6    2    1    2    0  502 -0.17003393787E+03  0.56841481119E+02 -0.12041465257E+03  0.27550196869E+03  0.17105306836E+03 0.  0.
        -24    2    5    5    0    0 -0.86280487032E+02  0.29952423174E+02  0.62440281389E+01  0.12122243874E+03  0.79463335376E+02 0.  0.
          5    1    3    3  501    0  0.12693807271E+03 -0.41749057492E+02 -0.68766373844E+02  0.15035678328E+03  0.47000000000E+01 0. -1.
        -13    1    4    4    0    0  0.40927969644E+02 -0.21759677113E+02 -0.35010712458E+02  0.58089002694E+02  0.00000000000E+00 0.  1.
         14    1    4    4    0    0  0.21678955104E+01  0.66672534858E+01 -0.13719259358E+03  0.13737161196E+03  0.00000000000E+00 0. -1.
         -5    1    5    5    0  502 -0.83753450836E+02  0.26889057945E+02 -0.12665868071E+03  0.15427952995E+03  0.47000000000E+01 0.  1.
         13    1    6    6    0    0  0.88608519273E+01 -0.10410591876E+02  0.11319144089E+02  0.17748750462E+02  0.00000000000E+00 0. -1.
        -14    1    6    6    0    0 -0.95141338960E+02  0.40363015050E+02 -0.50751159496E+01  0.10347368827E+03  0.00000000000E+00 0.  1.
</event>
<event>
12    1  0.8406581E-002  0.1725710E+03  0.7818608E-02  0.1175763E+00
         21   -1    0    0  503  502  0.00000000000E+00  0.00000000000E+00  0.24212493393E+03  0.24212493393E+03  0.00000000000E+00 0.  1.
         21   -1    0    0  501  503 -0.00000000000E+00 -0.00000000000E+00 -0.13853402579E+03  0.13853402579E+03  0.00000000000E+00 0.  1.
          6    2    1    2  501    0 -0.13868225888E+02 -0.48460443265E+01 -0.15387257020E+02  0.17104850912E+03  0.16972039641E+03 0.  0.
         24    2    3    3    0    0 -0.66348495045E+02 -0.16068845449E+02  0.16693605169E+02  0.10834761890E+03  0.82463322019E+02 0.  0.
         -6    2    1    2    0  502  0.13868225888E+02  0.48460443265E+01  0.11897816516E+03  0.20961045060E+03  0.17194454159E+03 0.  0.
        -24    2    5    5    0    0  0.55935819374E+02 -0.19018701132E+02  0.12582206305E+03  0.16053767367E+03  0.80315790700E+02 0.  0.
          5    1    3    3  501    0  0.52480269157E+02  0.11222801123E+02 -0.32080862190E+02  0.62700890222E+02  0.47000000000E+01 0. -1.
        -13    1    4    4    0    0 -0.92553847401E+01 -0.12926962762E+02  0.42676323525E+02  0.45541597496E+02  0.00000000000E+00 0.  1.
         14    1    4    4    0    0 -0.57093110305E+02 -0.31418826875E+01 -0.25982718355E+02  0.62806021401E+02  0.00000000000E+00 0. -1.
         -5    1    5    5    0  502 -0.42067593486E+02  0.23864745458E+02 -0.68438978891E+01  0.49072776932E+02  0.47000000000E+01 0.  1.
         11    1    6    6    0    0 -0.19294688141E+02  0.63125500863E+01  0.24237752769E+02  0.31616482067E+02  0.00000000000E+00 0. -1.
        -12    1    6    6    0    0  0.75230507514E+02 -0.25331251218E+02  0.10158431028E+03  0.12892119161E+03  0.00000000000E+00 0.  1.
</event>
<event>
12    1  0.8406581E-002  0.1931861E+03  0.7818608E-02  0.1155712E+00
         21   -1    0    0  501  502  0.00000000000E+00  0.00000000000E+00  0.12389014265E+03  0.12389014265E+03  0.00000000000E+00 0. -1.
         21   -1    0    0  502  503 -0.00000000000E+00 -0.00000000000E+00 -0.50090487362E+03  0.50090487362E+03  0.00000000000E+00 0. -1.
         -6    2    1    2    0  503  0.88260236950E+02 -0.74585756244E+01 -0.38594204423E+03  0.43140276252E+03  0.17120625639E+03 0.  0.
        -24    2    3    3    0    0  0.11594510596E+03 -0.40543702926E+02 -0.27763782698E+03  0.31472812476E+03  0.82969693886E+02 0.  0.
          6    2    1    2  501    0 -0.88260236950E+02  0.74585756244E+01  0.89273132679E+01  0.19339225375E+03  0.17168391629E+03 0.  0.
         24    2    5    5    0    0 -0.30699069961E+02  0.66066576051E+02  0.25126826137E+02  0.10953105965E+03  0.77836175837E+02 0.  0.
          5    1    5    5  501    0 -0.57561166989E+02 -0.58608000426E+02 -0.16199512869E+02  0.83861194103E+02  0.47000000000E+01 0. -1.
        -11    1    6    6    0    0 -0.43248272695E+02  0.41507331255E+02  0.45488427378E+02  0.75249376505E+02  0.00000000000E+00 0.  1.
         12    1    6    6    0    0  0.12549202734E+02  0.24559244796E+02 -0.20361601241E+02  0.34281683146E+02  0.00000000000E+00 0. -1.
         -5    1    3    3    0  503 -0.27684869012E+02  0.33085127301E+02 -0.10830421725E+03  0.11667463775E+03  0.47000000000E+01 0.  1.
         13    1    4    4    0    0  0.38866373939E+02  0.25458054084E+02 -0.96508549610E+02  0.10711025949E+03  0.00000000000E+00 0. -1.
        -14    1    4    4    0    0  0.77078732023E+02 -0.66001757010E+02 -0.18112927737E+03  0.20761786527E+03  0.00000000000E+00 0.  1.
</event>
<event>
12    1  0.8406581E-002  0.2037924E+03  0.7818608E-02  0.1146678E+00
         21   -1    0    0  501  502  0.00000000000E+00  0.00000000000E+00  0.18935163424E+03  0.18935163424E+03  0.00000000000E+00 0.  1.
         21   -1    0    0  502  503 -0.00000000000E+00 -0.00000000000E+00 -0.22141590394E+03  0.22141590394E+03  0.00000000000E+00 0.  1.
         -6    2    1    2    0  503  0.10393291362E+03 -0.49787774741E+02  0.62498151277E+01  0.20340479545E+03  0.16749202243E+03 0.  0.
        -24    2    3    3    0    0  0.13233729132E+03 -0.10891438979E+02  0.28906376764E+01  0.15489595418E+03  0.79703316856E+02 0.  0.
          6    2    1    2  501    0 -0.10393291362E+03  0.49787774741E+02 -0.38314084826E+02  0.20736274273E+03  0.16807874622E+03 0.  0.
         24    2    5    5    0    0 -0.48126747372E+02 -0.12018376167E+02 -0.71216719713E+02  0.11770226167E+03  0.79507081809E+02 0.  0.
          5    1    5    5  501    0 -0.55806166246E+02  0.61806150908E+02  0.32902634887E+02  0.89660481058E+02  0.47000000000E+01 0. -1.
        -11    1    6    6    0    0 -0.20689242768E+02  0.50605754081E+01  0.14718989273E+02  0.25890207319E+02  0.00000000000E+00 0.  1.
         12    1    6    6    0    0 -0.27437504604E+02 -0.17078951575E+02 -0.85935708985E+02  0.91812054354E+02  0.00000000000E+00 0. -1.
         -5    1    3    3    0  503 -0.28404377703E+02 -0.38896335762E+02  0.33591774512E+01  0.48508841272E+02  0.47000000000E+01 0.  1.
         11    1    4    4    0    0  0.40806791065E+02  0.24007739510E+02 -0.24323633678E+02  0.53227858389E+02  0.00000000000E+00 0. -1.
        -12    1    4    4    0    0  0.91530500257E+02 -0.34899178489E+02  0.27214271354E+02  0.10166809579E+03  0.00000000000E+00 0.  1.
</event>
<event>
12    1  0.8406581E-002  0.2269570E+03  0.7818608E-02  0.1129367E+00
         21   -1    0    0  501  502  0.00000000000E+00  0.00000000000E+00  0.97591771279E+03  0.97591771279E+03  0.00000000000E+00 0.  1.
         21   -1    0    0  502  503 -0.00000000000E+00 -0.00000000000E+00 -0.75241436951E+02  0.75241436951E+02  0.00000000000E+00 0.  1.
         -6    2    1    2    0  503  0.14433753999E+03  0.29097871084E+02  0.16073783024E+03  0.27811173594E+03  0.17271211899E+03 0.  0.
        -24    2    3    3    0    0  0.41136652205E+01  0.99696610094E+01  0.36887230156E+02  0.89990273535E+02  0.81371157053E+02 0.  0.
          6    2    1    2  501    0 -0.14433753999E+03 -0.29097871084E+02  0.73993844560E+03  0.77304741380E+03  0.16856271579E+03 0.  0.
         24    2    5    5    0    0 -0.11093490393E+03  0.25489339833E+02  0.32406903166E+03  0.35225654040E+03  0.78151606594E+02 0.  0.
          5    1    5    5  501    0 -0.33402636059E+02 -0.54587210917E+02  0.41586941393E+03  0.42079087340E+03  0.47000000000E+01 0. -1.
        -13    1    6    6    0    0 -0.97118585897E+02 -0.74510190953E+01  0.27363359193E+03  0.29045288782E+03  0.00000000000E+00 0.  1.
         14    1    6    6    0    0 -0.13816318037E+02  0.32940358928E+02  0.50435439737E+02  0.61803652577E+02  0.00000000000E+00 0. -1.
         -5    1    3    3    0  503  0.14022387477E+03  0.19128210074E+02  0.12385060008E+03  0.18812146241E+03  0.47000000000E+01 0.  1.
         13    1    4    4    0    0 -0.32893192973E+02  0.16084451496E+02  0.37589363560E+02  0.52475060522E+02  0.00000000000E+00 0. -1.
        -14    1    4    4    0    0  0.37006858194E+02 -0.61147904869E+01 -0.70213340451E+00  0.37515213013E+02  0.00000000000E+00 0.  1.
</event>
<event>
12    1  0.8406581E-002  0.2553114E+03  0.7818608E-02  0.1110098E+00
         21   -1    0    0  503  502  0.00000000000E+00  0.00000000000E+00  0.16719446003E+04  0.16719446003E+04  0.00000000000E+00 0. -1.
         21   -1    0    0  501  503 -0.00000000000E+00 -0.00000000000E+00 -0.41306885449E+02  0.41306885449E+02  0.00000000000E+00 0.  1.
          6    2    1    2  501    0  0.31459140393E+01  0.18753975845E+03  0.10238334811E+04  0.10551866725E+04  0.17321333395E+03 0.  0.
         24    2    3    3    0    0 -0.65210765411E+02  0.10950187868E+03  0.64431442402E+03  0.66171577017E+03  0.80520668979E+02 0.  0.
         -6    2    1    2    0  502 -0.31459140393E+01 -0.18753975845E+03  0.60680423381E+03  0.65806481329E+03  0.17221167948E+03 0.  0.
        -24    2    5    5    0    0 -0.21298218975E+02 -0.45535904720E+02  0.39734044486E+03  0.40430947930E+03  0.55313589457E+02 0.  0.
          5    1    3    3  501    0  0.68356679451E+02  0.78037879770E+02  0.37951905707E+03  0.39347090234E+03  0.47000000000E+01 0. -1.
        -11    1    4    4    0    0 -0.40857356814E+02  0.96105914482E+02  0.32894429100E+03  0.34512319103E+03  0.00000000000E+00 0.  1.
         12    1    4    4    0    0 -0.24353408597E+02  0.13395964199E+02  0.31537013302E+03  0.31659257914E+03  0.00000000000E+00 0. -1.
         -5    1    5    5    0  502  0.18152304936E+02 -0.14200385373E+03  0.20946378895E+03  0.25375533399E+03  0.47000000000E+01 0.  1.
         11    1    6    6    0    0 -0.51492112259E+01 -0.47166343089E+02  0.36553911168E+03  0.36860550792E+03  0.00000000000E+00 0. -1.
        -12    1    6    6    0    0 -0.16149007749E+02  0.16304383687E+01  0.31801333175E+02  0.35703971379E+02  0.00000000000E+00 0.  1.
</event>
<event>
12    1  0.8406581E-002  0.1887127E+03  0.7818608E-02  0.1159723E+00
         21   -1    0    0  501  502  0.00000000000E+00  0.00000000000E+00  0.22174669393E+03  0.22174669393E+03  0.00000000000E+00 0. -1.
         21   -1    0    0  502  503 -0.00000000000E+00 -0.00000000000E+00 -0.17395256803E+03  0.17395256803E+03  0.00000000000E+00 0. -1.
         -6    2    1    2    0  503  0.59729091766E+02  0.52835009777E+02 -0.31623744672E+02  0.19134405644E+03  0.17103620683E+03 0.  0.
        -24    2    3    3    0    0 -0.22099939588E+02  0.23775107495E+02 -0.55271096215E+02  0.10122327344E+03  0.78342797649E+02 0.  0.
          6    2    1    2  501    0 -0.59729091766E+02 -0.52835009777E+02  0.79417870571E+02  0.20435520551E+03  0.17057183001E+03 0.  0.
         24    2    5    5    0    0 -0.49909164539E+02 -0.85681134168E+01 -0.18277509684E+02  0.96547662144E+02  0.80143910765E+02 0.  0.
          5    1    5    5  501    0 -0.98199272265E+01 -0.44266896360E+02  0.97695380255E+02  0.10780754337E+03  0.47000000000E+01 0. -1.
        -13    1    6    6    0    0 -0.19338810751E+02  0.34833173477E+02  0.15688421282E+01  0.39872306697E+02  0.00000000000E+00 0.  1.
         14    1    6    6    0    0 -0.30570353788E+02 -0.43401286894E+02 -0.19846351812E+02  0.56675355447E+02  0.00000000000E+00 0. -1.
         -5    1    3    3    0  503  0.81829031354E+02  0.29059902282E+02  0.23647351543E+02  0.90120782997E+02  0.47000000000E+01 0.  1.
         13    1    4    4    0    0 -0.96125554320E+01  0.52509401008E+02 -0.37051086738E+02  0.64980161931E+02  0.00000000000E+00 0. -1.
        -14    1    4    4    0    0 -0.12487384156E+02 -0.28734293512E+02 -0.18220009478E+02  0.36243111512E+02  0.00000000000E+00 0.  1.
</event>
<event>
12    1  0.8406581E-002  0.2360587E+03  0.7818608E-02  0.1122647E+00
         21   -1    0    0  501  502  0.00000000000E+00  0.00000000000E+00  0.23579181227E+03  0.23579181227E+03  0.00000000000E+00 0. -1.
         21   -1    0    0  502  503 -0.00000000000E+00 -0.00000000000E+00 -0.23515192878E+03  0.23515192878E+03  0.00000000000E+00 0. -1.
         -6    2    1    2    0  503  0.15011601196E+03  0.57956150452E+02  0.10677636814E+01  0.23488460914E+03  0.17110203701E+03 0.  0.
        -24    2    3    3    0    0  0.13798757107E+03  0.59107298997E+02 -0.52984600890E+02  0.17927730443E+03  0.82454480687E+02 0.  0.
          6    2    1    2  501    0 -0.15011601196E+03 -0.57956150452E+02 -0.42788018500E+00  0.23605913191E+03  0.17271363077E+03 0.  0.
         24    2    5    5    0    0 -0.13299505726E+03  0.16658424697E+02  0.19091648461E+02  0.15691645118E+03  0.79329018910E+02 0.  0.
          5    1    5    5  501    0 -0.17120954702E+02 -0.74614575149E+02 -0.19519528646E+02  0.79142680730E+02  0.47000000000E+01 0. -1.
        -11    1    6    6    0    0 -0.20482061289E+02 -0.26457527264E+02  0.14137465349E+02  0.36323319095E+02  0.00000000000E+00 0.  1.
         12    1    6    6    0    0 -0.11251299597E+03  0.43115951961E+02  0.49541831121E+01  0.12059313208E+03  0.00000000000E+00 0. -1.
         -5    1    3    3    0  503  0.12128440886E+02 -0.11511485450E+01  0.54052364572E+02  0.55607304710E+02  0.47000000000E+01 0.  1.
         13    1    4    4    0    0  0.74534866259E+02  0.28913501562E+02 -0.70793382415E+02  0.10678548522E+03  0.00000000000E+00 0. -1.
        -14    1    4    4    0    0  0.63452704815E+02  0.30193797435E+02  0.17808781525E+02  0.72491819203E+02  0.00000000000E+00 0.  1.
</event>
<event>
12    1  0.8406581E-002  0.2317337E+03  0.7818608E-02  0.1126059E+00
         21   -1    0    0  503  502  0.00000000000E+00  0.00000000000E+00  0.15784982445E+03  0.15784982445E+03  0.00000000000E+00 0. -1.
         21   -1    0    0  501  503 -0.00000000000E+00 -0.00000000000E+00 -0.38930328797E+03  0.38930328797E+03  0.00000000000E+00 0.  1.
          6    2    1    2  501    0  0.14383053538E+03  0.58064713248E+02 -0.12700896887E+02  0.22847900732E+03  0.16728003519E+03 0.  0.
         24    2    3    3    0    0  0.12630933790E+03 -0.11292943054E+02 -0.33776369916E+02  0.15375456412E+03  0.80112691999E+02 0.  0.
         -6    2    1    2    0  502 -0.14383053538E+03 -0.58064713248E+02 -0.21875256663E+03  0.31867410510E+03  0.17216784259E+03 0.  0.
        -24    2    5    5    0    0 -0.32575955346E+02 -0.78307561107E+02 -0.11063984384E+03  0.16215635755E+03  0.82826579414E+02 0.  0.
          5    1    3    3  501    0  0.17521197476E+02  0.69357656302E+02  0.21075473029E+02  0.74724443204E+02  0.47000000000E+01 0. -1.
        -13    1    4    4    0    0  0.10940800867E+03  0.17345028924E+02 -0.68843088361E+01  0.11098808989E+03  0.00000000000E+00 0.  1.
         14    1    4    4    0    0  0.16901329229E+02 -0.28637971978E+02 -0.26892061080E+02  0.42766474227E+02  0.00000000000E+00 0. -1.
         -5    1    5    5    0  502 -0.11125458003E+03  0.20242847859E+02 -0.10811272279E+03  0.15651774754E+03  0.47000000000E+01 0.  1.
         11    1    6    6    0    0 -0.57670731039E+02 -0.32340071875E+02 -0.59243913438E+02  0.88778571439E+02  0.00000000000E+00 0. -1.
        -12    1    6    6    0    0  0.25094775693E+02 -0.45967489232E+02 -0.51395930401E+02  0.73377786115E+02  0.00000000000E+00 0.  1.
</event>
<event>
12    1  0.8406581E-002  0.2034676E+03  0.7818608E-02  0.1150938E+00
         21   -1    0    0  503  502  0.00000000000E+00  0.00000000000E+00  0.79666448784E+02  0.79666448784E+02  0.00000000000E+00 0. -1.
         21   -1    0    0  501  503 -0.00000000000E+00 -0.00000000000E+00 -0.76680609100E+03  0.76680609100E+03  0.00000000000E+00 0.  1.
          6    2    1    2  501    0  0.35617363921E+02  0.60263701241E+02 -0.59523369354E+03  0.62321085017E+03  0.17084584733E+03 0.  0.
         24    2    3    3    0    0  0.79068507403E+02  0.58813219142E+02 -0.52828814599E+03  0.54324897110E+03  0.79500036482E+02 0.  0.
         -6    2    1    2    0  502 -0.35617363921E+02 -0.60263701241E+02 -0.91905948680E+02  0.22326168961E+03  0.19104650833E+03 0.  0.
        -24    2    5    5    0    0  0.17023245340E+02 -0.10504801489E+03 -0.46105217718E+02  0.14021672920E+03  0.78804592086E+02 0.  0.
          5    1    3    3  501    0 -0.43451143482E+02  0.14504820988E+01 -0.66945547546E+02  0.79961879070E+02  0.47000000000E+01 0. -1.
        -13    1    4    4    0    0  0.95549229017E+02  0.51474153319E+02 -0.45768563940E+03  0.47037792055E+03  0.00000000000E+00 0.  1.
         14    1    4    4    0    0 -0.16480721614E+02  0.73390658230E+01 -0.70602506586E+02  0.72871050550E+02  0.00000000000E+00 0. -1.
         -5    1    5    5    0  502 -0.52640609261E+02  0.44784313649E+02 -0.45800730962E+02  0.83044960407E+02  0.47000000000E+01 0.  1.
         11    1    6    6    0    0  0.39937419373E+02 -0.44625726008E+02  0.15772423574E+01  0.59907767288E+02  0.00000000000E+00 0. -1.
        -12    1    6    6    0    0 -0.22914174034E+02 -0.60422288882E+02 -0.47682460075E+02  0.80308961917E+02  0.00000000000E+00 0.  1.
</event>
<event>
12    1  0.8406581E-002  0.1752257E+03  0.7818608E-02  0.1173322E+00
         21   -1    0    0  503  502  0.00000000000E+00  0.00000000000E+00  0.41444193162E+03  0.41444193162E+03  0.00000000000E+00 0. -1.
         21   -1    0    0  501  503 -0.00000000000E+00 -0.00000000000E+00 -0.35415816206E+03  0.35415816206E+03  0.00000000000E+00 0. -1.
          6    2    1    2  501    0 -0.89207704839E+01 -0.31237142219E+01 -0.31248958140E+03  0.35669717741E+03  0.17173759096E+03 0.  0.
         24    2    3    3    0    0 -0.10927866724E+00 -0.13528709318E+02 -0.51356793159E+02  0.95166434649E+02  0.78968931629E+02 0.  0.
         -6    2    1    2    0  502  0.89207704839E+01  0.31237142219E+01  0.37277335097E+03  0.41190291627E+03  0.17497057897E+03 0.  0.
        -24    2    5    5    0    0  0.35626243152E+01  0.70216258782E+02  0.20385599399E+03  0.23000931343E+03  0.80025012898E+02 0.  0.
          5    1    3    3  501    0 -0.88114918166E+01  0.10404995096E+02 -0.26113278824E+03  0.26153074276E+03  0.47000000000E+01 0. -1.
        -13    1    4    4    0    0  0.37328730037E+02 -0.72412887139E+01 -0.40782016744E+02  0.55758795164E+02  0.00000000000E+00 0.  1.
         14    1    4    4    0    0 -0.37438008704E+02 -0.62874206039E+01 -0.10574776414E+02  0.39407639485E+02  0.00000000000E+00 0. -1.
         -5    1    5    5    0  502  0.53581461687E+01 -0.67092544560E+02  0.16891735698E+03  0.18189360284E+03  0.47000000000E+01 0.  1.
         11    1    6    6    0    0 -0.21440820188E+02  0.72289615911E+02  0.11372119284E+03  0.13644781801E+03  0.00000000000E+00 0. -1.
        -12    1    6    6    0    0  0.25003444503E+02 -0.20733571290E+01  0.90134801146E+02  0.93561495415E+02  0.00000000000E+00 0.  1.
</event>
<event>
12    1  0.8406581E-002  0.1773254E+03  0.7818608E-02  0.1170682E+00
         21   -1    0    0  501  502  0.00000000000E+00  0.00000000000E+00  0.15731442678E+03  0.15731442678E+03  0.00000000000E+00 0.  1.
         21   -1    0    0  502  503 -0.00000000000E+00 -0.00000000000E+00 -0.20451766813E+03  0.20451766813E+03  0.00000000000E+00 0.  1.
         -6    2    1    2    0  503  0.11971395182E+01  0.41406053011E+02  0.68988064261E+01  0.17745956268E+03  0.17241928108E+03 0.  0.
        -24    2    3    3    0    0  0.51786681146E+02  0.66062156461E+02  0.25923827372E+02  0.11786705828E+03  0.78578175983E+02 0.  0.
          6    2    1    2  501    0 -0.11971395182E+01 -0.41406053011E+02 -0.54102047771E+02  0.18437253222E+03  0.17131930626E+03 0.  0.
         24    2    5    5    0    0  0.60397304068E+02 -0.19501995189E+02 -0.48801302272E+01  0.10240576825E+03  0.80218224514E+02 0.  0.
          5    1    5    5  501    0 -0.61594443586E+02 -0.21904057822E+02 -0.49221917544E+02  0.81966763975E+02  0.47000000000E+01 0. -1.
        -11    1    6    6    0    0  0.67825147408E+02 -0.31978803811E+02 -0.23693829791E+02  0.78640270118E+02  0.00000000000E+00 0.  1.
         12    1    6    6    0    0 -0.74278433396E+01  0.12476808622E+02  0.18813699564E+02  0.23765498129E+02  0.00000000000E+00 0. -1.
         -5    1    3    3    0  503 -0.50589541628E+02 -0.24656103450E+02 -0.19025020946E+02  0.59592504407E+02  0.47000000000E+01 0.  1.
         11    1    4    4    0    0  0.44200822567E+01  0.29280788471E+02 -0.25337955229E+02  0.38973243076E+02  0.00000000000E+00 0. -1.
        -12    1    4    4    0    0  0.47366598890E+02  0.36781367990E+02  0.51261782601E+02  0.78893815201E+02  0.00000000000E+00 0.  1.
</event>
<event>
12    1  0.8406581E-002  0.2024543E+03  0.7818608E-02  0.1148289E+00
         21   -1    0    0  503  502  0.00000000000E+00  0.00000000000E+00  0.38823135824E+02  0.38823135824E+02  0.00000000000E+00 0.  1.
         21   -1    0    0  501  503 -0.00000000000E+00 -0.00000000000E+00 -0.11166634654E+04  0.11166634654E+04  0.00000000000E+00 0.  1.
          6    2    1    2  501    0  0.88174420531E+02 -0.58039109690E+02 -0.68594036717E+03  0.71438193022E+03  0.16936377485E+03 0.  0.
         24    2    3    3    0    0  0.55508026527E+02  0.26708123090E+02 -0.46540489545E+03  0.47582969057E+03  0.77573918712E+02 0.  0.
         -6    2    1    2    0  502 -0.88174420531E+02  0.58039109690E+02 -0.39189996242E+03  0.44110467102E+03  0.17275556013E+03 0.  0.
        -24    2    5    5    0    0  0.18215903166E+02  0.68887910423E+01 -0.11962652163E+03  0.14430478450E+03  0.78320441664E+02 0.  0.
          5    1    3    3  501    0  0.32666394004E+02 -0.84747232781E+02 -0.22053547171E+03  0.23855223966E+03  0.47000000000E+01 0. -1.
        -13    1    4    4    0    0  0.65942694815E+02 -0.43800918961E+01 -0.32412300711E+03  0.33079200103E+03  0.00000000000E+00 0.  1.
         14    1    4    4    0    0 -0.10434668288E+02  0.31088214986E+02 -0.14128188834E+03  0.14503768954E+03  0.00000000000E+00 0. -1.
         -5    1    5    5    0  502 -0.10639032370E+03  0.51150318648E+02 -0.27227344080E+03  0.29679988652E+03  0.47000000000E+01 0.  1.
         11    1    6    6    0    0 -0.13222254576E+02  0.21214929226E+02 -0.10295093158E+03  0.10594241621E+03  0.00000000000E+00 0. -1.
        -12    1    6    6    0    0  0.31438157743E+02 -0.14326138184E+02 -0.16675590043E+02  0.38362368290E+02  0.00000000000E+00 0.  1.
</event>
<event>
12    1  0.8406581E-002  0.1755909E+03  0.7818608E-02  0.1172814E+00
         21   -1    0    0  503  502  0.00000000000E+00  0.00000000000E+00  0.75321892660E+02  0.75321892660E+02  0.00000000000E+00 0.  1.
         21   -1    0    0  501  503 -0.00000000000E+00 -0.00000000000E+00 -0.83006922383E+03  0.83006922383E+03  0.00000000000E+00 0.  1.
          6    2    1    2  501    0 -0.55568585057E+01  0.17788168103E+02 -0.70062637199E+03  0.72164875978E+03  0.17190788742E+03 0.  0.
         24    2    3    3    0    0 -0.30306474850E+02 -0.16607310202E+02 -0.18617417580E+03  0.20543296710E+03  0.79671795946E+02 0.  0.
         -6    2    1    2    0  502  0.55568585057E+01 -0.17788168103E+02 -0.54120959174E+02  0.18374235671E+03  0.17459919194E+03 0.  0.
        -24    2    5    5    0    0  0.43025799467E+02  0.40841773861E+02 -0.56141323592E+02  0.11397443067E+03  0.79492469576E+02 0.  0.
          5    1    3    3  501    0  0.24749616345E+02  0.34395478305E+02 -0.51445219620E+03  0.51621579268E+03  0.47000000000E+01 0. -1.
        -13    1    4    4    0    0 -0.44933074229E+02  0.18012169392E+02 -0.11882366912E+03  0.12830621087E+03  0.00000000000E+00 0.  1.
         14    1    4    4    0    0  0.14626599379E+02 -0.34619479595E+02 -0.67350506680E+02  0.77126756232E+02  0.00000000000E+00 0. -1.
         -5    1    5    5    0  502 -0.37468940961E+02 -0.58629941964E+02  0.20203644176E+01  0.69767926040E+02  0.47000000000E+01 0.  1.
         11    1    6    6    0    0  0.40862295723E+02  0.34619753374E+02 -0.76043696572E+02  0.93010205482E+02  0.00000000000E+00 0. -1.
        -12    1    6    6    0    0  0.21635037437E+01  0.62220204868E+01  0.19902372980E+02  0.20964225185E+02  0.00000000000E+00 0.  1.
</event>
<event>
12    1  0.8406581E-002  0.2160366E+03  0.7818608E-02  0.1137010E+00
         21   -1    0    0  501  502  0.00000000000E+00  0.00000000000E+00  0.13330490454E+03  0.13330490454E+03  0.00000000000E+00 0.  1.
         21   -1    0    0  502  503 -0.00000000000E+00 -0.00000000000E+00 -0.37148819965E+03  0.37148819965E+03  0.00000000000E+00 0. -1.
         -6    2    1    2    0  503 -0.34568212190E+02  0.12395007858E+03 -0.18107474623E+03  0.28133572137E+03  0.17263586279E+03 0.  0.
        -24    2    3    3    0    0  0.57782470897E+01  0.14730991210E+03 -0.13157056371E+03  0.21317214836E+03  0.79987206847E+02 0.  0.
          6    2    1    2  501    0  0.34568212190E+02 -0.12395007858E+03 -0.57108548881E+02  0.22345738282E+03  0.17353164641E+03 0.  0.
         24    2    5    5    0    0  0.12856536324E+02  0.63739798471E+01 -0.39779128334E+02  0.90122631571E+02  0.79585121253E+02 0.  0.
          5    1    5    5  501    0  0.21711675866E+02 -0.13032405843E+03 -0.17329420546E+02  0.13333475125E+03  0.47000000000E+01 0. -1.
        -13    1    6    6    0    0 -0.18267476557E+02  0.73497073144E+01 -0.52813989404E+02  0.56365205350E+02  0.00000000000E+00 0.  1.
         14    1    6    6    0    0  0.31124012881E+02 -0.97572746727E+00  0.13034861070E+02  0.33757426221E+02  0.00000000000E+00 0. -1.
         -5    1    3    3    0  503 -0.40346459280E+02 -0.23359833517E+02 -0.49504182520E+02  0.68163573009E+02  0.47000000000E+01 0.  1.
         13    1    4    4    0    0 -0.30590117057E+02  0.64962535967E+02 -0.86745779862E+02  0.11260868823E+03  0.00000000000E+00 0. -1.
        -14    1    4    4    0    0  0.36368364147E+02  0.82347376129E+02 -0.44824783852E+02  0.10056346013E+03  0.00000000000E+00 0.  1.
</event>
<event>
12    1  0.8406581E-002  0.2363322E+03  0.7818608E-02  0.1122660E+00
         21   -1    0    0  503  502  0.00000000000E+00  0.00000000000E+00  0.52666897460E+02  0.52666897460E+02  0.00000000000E+00 0.  1.
         21   -1    0    0  501  503 -0.00000000000E+00 -0.00000000000E+00 -0.11169899251E+04  0.11169899251E+04  0.00000000000E+00 0.  1.
          6    2    1    2  501    0 -0.83022803440E+02 -0.13609977073E+03 -0.67783208189E+03  0.71785044094E+03  0.17446200401E+03 0.  0.
         24    2    3    3    0    0 -0.71665291322E+02 -0.16633531274E+03 -0.51452678426E+03  0.55131548571E+03  0.80047503494E+02 0.  0.
         -6    2    1    2    0  502  0.83022803440E+02  0.13609977073E+03 -0.38649094570E+03  0.45180638157E+03  0.17128287080E+03 0.  0.
        -24    2    5    5    0    0  0.84735681962E+02  0.21173101628E+02 -0.16950553345E+03  0.20621356336E+03  0.78507781869E+02 0.  0.
          5    1    3    3  501    0 -0.11357512118E+02  0.30235542013E+02 -0.16330529763E+03  0.16653495523E+03  0.47000000000E+01 0. -1.
        -11    1    4    4    0    0  0.27958406904E+01 -0.25198194737E+02 -0.16687355960E+03  0.16878847898E+03  0.00000000000E+00 0.  1.
         12    1    4    4    0    0 -0.74461132012E+02 -0.14113711801E+03 -0.34765322466E+03  0.38252700673E+03  0.00000000000E+00 0. -1.
         -5    1    5    5    0  502 -0.17128785218E+01  0.11492666910E+03 -0.21698541225E+03  0.24559281820E+03  0.47000000000E+01 0.  1.
         13    1    6    6    0    0  0.79971213985E+02  0.18928247944E+02 -0.74075770998E+02  0.11063857142E+03  0.00000000000E+00 0. -1.
        -14    1    6    6    0    0  0.47644679761E+01  0.22448536834E+01 -0.95429762455E+02  0.95574991945E+02  0.00000000000E+00 0.  1.
</event>
<event>
12    1  0.8406581E-002  0.1892552E+03  0.7818608E-02  0.1159199E+00
         21   -1    0    0  503  502  0.00000000000E+00  0.00000000000E+00  0.27554543395E+03  0.27554543395E+03  0.00000000000E+00 0. -1.
         21   -1    0    0  501  503 -0.00000000000E+00 -0.00000000000E+00 -0.14556857387E+03  0.14556857387E+03  0.00000000000E+00 0. -1.
          6    2    1    2  501    0  0.77978453750E+02 -0.24396055141E+02 -0.42823776470E+01  0.18930360142E+03  0.17070942562E+03 0.  0.
         24    2    3    3    0    0  0.10124804325E+03 -0.20645351763E+02 -0.50993249547E+02  0.13677230480E+03  0.73681443039E+02 0.  0.
         -6    2    1    2    0  502 -0.77978453750E+02  0.24396055141E+02  0.13425923773E+03  0.23181040640E+03  0.17039575947E+03 0.  0.
        -24    2    5    5    0    0  0.27463183783E+01  0.53366523517E+02  0.10272174258E+03  0.14030914700E+03  0.79242490087E+02 0.  0.
          5    1    3    3  501    0 -0.23269589501E+02 -0.37507033782E+01  0.46710871900E+02  0.52531296624E+02  0.47000000000E+01 0. -1.
        -11    1    4    4    0    0 -0.62760599522E+01  0.12212879015E+02 -0.10441514329E+02  0.17250175763E+02  0.00000000000E+00 0.  1.
         12    1    4    4    0    0  0.10752410320E+03 -0.32858230778E+02 -0.40551735218E+02  0.11952212903E+03  0.00000000000E+00 0. -1.
         -5    1    5    5    0  502 -0.80724772128E+02 -0.28970468376E+02  0.31537495147E+02  0.91501259408E+02  0.47000000000E+01 0.  1.
         13    1    6    6    0    0 -0.14769929826E+02 -0.12836100616E+02  0.37010157227E+01  0.19915165665E+02  0.00000000000E+00 0. -1.
        -14    1    6    6    0    0  0.17516248205E+02  0.66202624133E+02  0.99020726858E+02  0.12039398133E+03  0.00000000000E+00 0.  1.
</event>
<event>
12    1  0.8406581E-002  0.1764825E+03  0.7818608E-02  0.1171573E+00
         21   -1    0    0  501  502  0.00000000000E+00  0.00000000000E+00  0.90226951871E+02  0.90226951871E+02  0.00000000000E+00 0.  1.
         21   -1    0    0  502  503 -0.00000000000E+00 -0.00000000000E+00 -0.43302805469E+03  0.43302805469E+03  0.00000000000E+00 0.  1.
         -6    2    1    2    0  503 -0.36347393409E+02 -0.13328021130E+02 -0.29140311614E+03  0.34067851077E+03  0.17218392042E+03 0.  0.
        -24    2    3    3    0    0 -0.55549805996E+02  0.14197241816E+02 -0.29069693538E+03  0.30678217704E+03  0.79518886345E+02 0.  0.
          6    2    1    2  501    0  0.36347393409E+02  0.13328021130E+02 -0.51397986679E+02  0.18257649579E+03  0.17086150715E+03 0.  0.
         24    2    5    5    0    0  0.71571833414E+02  0.34495023427E+02 -0.75125148717E+02  0.13489136836E+03  0.78990248180E+02 0.  0.
          5    1    5    5  501    0 -0.35224440005E+02 -0.21167002297E+02  0.23727162038E+02  0.47685127433E+02  0.47000000000E+01 0. -1.
        -13    1    6    6    0    0  0.79838228659E+02  0.29763596588E+02 -0.32465356126E+02  0.91181213995E+02  0.00000000000E+00 0.  1.
         14    1    6    6    0    0 -0.82663952450E+01  0.47314268395E+01 -0.42659792591E+02  0.43710154360E+02  0.00000000000E+00 0. -1.
         -5    1    3    3    0  503  0.19202412587E+02 -0.27525262946E+02 -0.70618075650E+00  0.33896333734E+02  0.47000000000E+01 0.  1.
         11    1    4    4    0    0 -0.17807792205E+02 -0.10551441040E+02 -0.10948114421E+02  0.23416053907E+02  0.00000000000E+00 0. -1.
        -12    1    4    4    0    0 -0.37742013791E+02  0.24748682856E+02 -0.27974882096E+03  0.28336612313E+03  0.00000000000E+00 0.  1.
</event>
<event>
12    1  0.8406581E-002  0.2367810E+03  0.7818608E-02  0.1122182E+00
         21   -1    0    0  503  502  0.00000000000E+00  0.00000000000E+00  0.11898012698E+03  0.11898012698E+03  0.00000000000E+00 0. -1.
         21   -1    0    0  501  503 -0.00000000000E+00 -0.00000000000E+00 -0.47354761409E+03  0.47354761409E+03  0.00000000000E+00 0.  1.
          6    2    1    2  501    0  0.12636958064E+03  0.10140774615E+03 -0.20815641520E+03  0.31526863613E+03  0.17266272860E+03 0.  0.
         24    2    3    3    0    0  0.13832859442E+02  0.73914198618E+01 -0.61006027330E+02  0.10747328036E+03  0.87079214132E+02 0.  0.
         -6    2    1    2    0  502 -0.12636958064E+03 -0.10140774615E+03 -0.14641107190E+03  0.27725910494E+03  0.17083210298E+03 0.  0.
        -24    2    5    5    0    0 -0.75548188132E+02 -0.11795956129E+03 -0.46820643368E+02  0.16413474870E+03  0.71596482135E+02 0.  0.
          5    1    3    3  501    0  0.11253672120E+03  0.94016326288E+02 -0.14715038787E+03  0.20779535576E+03  0.47000000000E+01 0. -1.
        -13    1    4    4    0    0 -0.14177541244E+02  0.82984725889E+01 -0.74556015312E+02  0.76344395618E+02  0.00000000000E+00 0.  1.
         14    1    4    4    0    0  0.28010400686E+02 -0.90705272714E+00  0.13549987983E+02  0.31128884747E+02  0.00000000000E+00 0. -1.
         -5    1    5    5    0  502 -0.50821392507E+02  0.16551815141E+02 -0.99590428532E+02  0.11312435625E+03  0.47000000000E+01 0.  1.
         11    1    6    6    0    0 -0.81445309073E+02 -0.69563551344E+02 -0.42343960515E+02  0.11517567902E+03  0.00000000000E+00 0. -1.
        -12    1    6    6    0    0  0.58971209411E+01 -0.48396009946E+02 -0.44766828533E+01  0.48959069675E+02  0.00000000000E+00 0.  1.
</event>
<event>
12    1  0.8406581E-002  0.2334385E+03  0.7818608E-02  0.1124352E+00
         21   -1    0    0  501  502  0.00000000000E+00  0.00000000000E+00  0.39678681347E+03  0.39678681347E+03  0.00000000000E+00 0.  1.
         21   -1    0    0  502  503 -0.00000000000E+00 -0.00000000000E+00 -0.36291129279E+03  0.36291129279E+03  0.00000000000E+00 0.  1.
         -6    2    1    2    0  503  0.98947956363E+02  0.12181572735E+03 -0.28277109102E+03  0.36667835876E+03  0.17281134038E+03 0.  0.
        -24    2    3    3    0    0  0.10600176317E+03  0.28229374059E+02 -0.13205265931E+03  0.18906558508E+03  0.79212494458E+02 0.  0.
          6    2    1    2  501    0 -0.98947956363E+02 -0.12181572735E+03  0.31664661171E+03  0.39301974750E+03  0.17195835460E+03 0.  0.
         24    2    5    5    0    0 -0.52405045494E+02 -0.10579970585E+03  0.10812318501E+03  0.17871420632E+03  0.79424667781E+02 0.  0.
          5    1    5    5  501    0 -0.46542910869E+02 -0.16016021500E+02  0.20852342670E+03  0.21430554118E+03  0.47000000000E+01 0. -1.
        -13    1    6    6    0    0 -0.24675491838E+02  0.43695169702E+01  0.36980733035E+02  0.44671547900E+02  0.00000000000E+00 0.  1.
         14    1    6    6    0    0 -0.27729553656E+02 -0.11016922282E+03  0.71142451974E+02  0.13404265842E+03  0.00000000000E+00 0. -1.
         -5    1    3    3    0  503 -0.70538068087E+01  0.93586353292E+02 -0.15071843172E+03  0.17761277368E+03  0.47000000000E+01 0.  1.
         13    1    4    4    0    0  0.16813593582E+02 -0.21778735383E+02 -0.87285659053E+01  0.28865171172E+02  0.00000000000E+00 0. -1.
        -14    1    4    4    0    0  0.89188169589E+02  0.50008109442E+02 -0.12332409340E+03  0.16020041391E+03  0.00000000000E+00 0.  1.
</event>
<event>
12    1  0.8406581E-002  0.1993645E+03  0.7818608E-02  0.1150553E+00
         21   -1    0    0  503  502  0.00000000000E+00  0.00000000000E+00  0.35896640806E+03  0.35896640806E+03  0.00000000000E+00 0.  1.
         21   -1    0    0  501  503 -0.00000000000E+00 -0.00000000000E+00 -0.11792250056E+03  0.11792250056E+03  0.00000000000E+00 0.  1.
          6    2    1    2  501    0 -0.80020013402E+02  0.60728369323E+02  0.18195231720E+03  0.26895141442E+03  0.17069587048E+03 0.  0.
         24    2    3    3    0    0 -0.12132670992E+03  0.35780246661E+02  0.13644709554E+03  0.20245730040E+03  0.79816990749E+02 0.  0.
         -6    2    1    2    0  502  0.80020013402E+02 -0.60728369323E+02  0.59091590300E+02  0.20793749421E+03  0.17220641123E+03 0.  0.
        -24    2    5    5    0    0 -0.46239004798E+01  0.12874992171E+01 -0.10896575369E+02  0.81719454918E+02  0.80847361413E+02 0.  0.
          5    1    3    3  501    0  0.41306696514E+02  0.24948122663E+02  0.45505221657E+02  0.66494114020E+02  0.47000000000E+01 0. -1.
        -13    1    4    4    0    0 -0.96924447987E+02  0.28467834582E+02  0.14398819962E+03  0.17589021534E+03  0.00000000000E+00 0.  1.
         14    1    4    4    0    0 -0.24402261929E+02  0.73124120791E+01 -0.75411040770E+01  0.26567085056E+02  0.00000000000E+00 0. -1.
         -5    1    5    5    0  502  0.84643913882E+02 -0.62015868540E+02  0.69988165669E+02  0.12621803929E+03  0.47000000000E+01 0.  1.
         11    1    6    6    0    0  0.23502983228E+02  0.15165858910E+02 -0.33066722181E+02  0.43310525428E+02  0.00000000000E+00 0. -1.
        -12    1    6    6    0    0 -0.28126883708E+02 -0.13878359693E+02  0.22170146811E+02  0.38408929490E+02  0.00000000000E+00 0.  1.
</event>
<event>
12    1  0.8406581E-002  0.2139111E+03  0.7818608E-02  0.1138515E+00
         21   -1    0    0  501  502  0.00000000000E+00  0.00000000000E+00  0.30837286640E+03  0.30837286640E+03  0.00000000000E+00 0. -1.
         21   -1    0    0  502  503 -0.00000000000E+00 -0.00000000000E+00 -0.15037289319E+03  0.15037289319E+03  0.00000000000E+00 0.  1.
         -6    2    1    2    0  503  0.22918929853E+02 -0.12518367067E+03  0.52418286363E+02  0.22023990924E+03  0.17193519747E+03 0.  0.
        -24    2    3    3    0    0 -0.21532080706E+02 -0.12928369409E+03  0.72308144239E+02  0.17114409498E+03  0.82969449004E+02 0.  0.
          6    2    1    2  501    0 -0.22918929853E+02  0.12518367067E+03  0.10558168684E+03  0.23850585035E+03  0.17187588343E+03 0.  0.
         24    2    5    5    0    0 -0.76212544706E+02  0.11626582594E+03  0.76485187022E+02  0.17695559738E+03  0.78340317570E+02 0.  0.
          5    1    5    5  501    0  0.53293614853E+02  0.89178447333E+01  0.29096499822E+02  0.61550252970E+02  0.47000000000E+01 0. -1.
        -13    1    6    6    0    0 -0.87751282140E+02  0.10278313761E+03  0.82356707119E+02  0.15826335047E+03  0.00000000000E+00 0.  1.
         14    1    6    6    0    0  0.11538737434E+02  0.13482688330E+02 -0.58715200977E+01  0.18692246907E+02  0.00000000000E+00 0. -1.
         -5    1    3    3    0  503  0.44451010559E+02  0.41000234129E+01 -0.19889857875E+02  0.49095814262E+02  0.47000000000E+01 0.  1.
         11    1    4    4    0    0 -0.37401658861E+02 -0.67589954760E+02  0.74615772769E+02  0.10740018443E+03  0.00000000000E+00 0. -1.
        -12    1    4    4    0    0  0.15869578155E+02 -0.61693739325E+02 -0.23076285309E+01  0.63743910550E+02  0.00000000000E+00 0.  1.
</event>
<event>
12    1  0.8406581E-002  0.1869447E+03  0.7818608E-02  0.1161720E+00
         21   -1    0    0  501  502  0.00000000000E+00  0.00000000000E+00  0.28605787097E+04  0.28605787097E+04  0.00000000000E+00 0. -1.
         21   -1    0    0  502  503 -0.00000000000E+00 -0.00000000000E+00 -0.26405171623E+02  0.26405171623E+02  0.00000000000E+00 0. -1.
         -6    2    1    2    0  503 -0.52222800330E+02 -0.41243238941E+02  0.35759513033E+03  0.40351280859E+03  0.17469998231E+03 0.  0.
        -24    2    3    3    0    0  0.31501721672E+02  0.22069614237E+02  0.13121000004E+03  0.15393189950E+03  0.70707419921E+02 0.  0.
          6    2    1    2  501    0  0.52222800330E+02  0.41243238941E+02  0.24765784077E+04  0.24834710727E+04  0.17251009767E+03 0.  0.
         24    2    5    5    0    0  0.14678224771E+01  0.19626737763E+02  0.54504595469E+03  0.55114525961E+03  0.79363978762E+02 0.  0.
          5    1    5    5  501    0  0.50754977853E+02  0.21616501178E+02  0.19315324530E+04  0.19323258131E+04  0.47000000000E+01 0. -1.
        -11    1    6    6    0    0  0.94282012494E+01  0.49730093937E+02  0.33248059047E+03  0.33631133829E+03  0.00000000000E+00 0.  1.
         12    1    6    6    0    0 -0.79603787723E+01 -0.30103356174E+02  0.21256536422E+03  0.21483392132E+03  0.00000000000E+00 0. -1.
         -5    1    3    3    0  503 -0.83724522002E+02 -0.63312853179E+02  0.22638513029E+03  0.24958090909E+03  0.47000000000E+01 0.  1.
         13    1    4    4    0    0  0.13430159431E+01  0.32582017383E+02  0.20063344900E+02  0.38287456917E+02  0.00000000000E+00 0. -1.
        -14    1    4    4    0    0  0.30158705729E+02 -0.10512403146E+02  0.11114665514E+03  0.11564444258E+03  0.00000000000E+00 0.  1.
</event>
<event>
12    1  0.8406581E-002  0.2930255E+03  0.7818608E-02  0.1088825E+00
         21   -1    0    0  503  502  0.00000000000E+00  0.00000000000E+00  0.13491556191E+04  0.13491556191E+04  0.00000000000E+00 0.  1.
         21   -1    0    0  501  503 -0.00000000000E+00 -0.00000000000E+00 -0.66779473796E+02  0.66779473796E+02  0.00000000000E+00 0. -1.
          6    2    1    2  501    0  0.53251729732E+02 -0.23084211657E+03  0.48627086088E+03  0.56773525679E+03  0.17245330429E+03 0.  0.
         24    2    3    3    0    0  0.16567134829E+02 -0.79337460768E+02  0.93452538458E+02  0.14509150058E+03  0.75823900978E+02 0.  0.
         -6    2    1    2    0  502 -0.53251729732E+02  0.23084211657E+03  0.79610528446E+03  0.84819983614E+03  0.17185897875E+03 0.  0.
        -24    2    5    5    0    0  0.23969290542E+02  0.91587285500E+02  0.24991816044E+03  0.27925567509E+03  0.81005477572E+02 0.  0.
          5    1    3    3  501    0  0.36684594903E+02 -0.15150465581E+03  0.39281832242E+03  0.42264375621E+03  0.47000000000E+01 0. -1.
        -11    1    4    4    0    0 -0.12060960691E+02 -0.55526289052E+02  0.91620995261E+02  0.10781021436E+03  0.00000000000E+00 0.  1.
         12    1    4    4    0    0  0.28628095520E+02 -0.23811171716E+02  0.18315431973E+01  0.37281286218E+02  0.00000000000E+00 0. -1.
         -5    1    5    5    0  502 -0.77221020274E+02  0.13925483107E+03  0.54618712402E+03  0.56894416105E+03  0.47000000000E+01 0.  1.
         11    1    6    6    0    0 -0.13054435965E+02 -0.85330452534E+01  0.17168003523E+02  0.23194212740E+02  0.00000000000E+00 0. -1.
        -12    1    6    6    0    0  0.37023726507E+02  0.10012033075E+03  0.23275015692E+03  0.25606146235E+03  0.00000000000E+00 0.  1.
</event>
<event>
12    1  0.8406581E-002  0.2579673E+03  0.7818608E-02  0.1108537E+00
         21   -1    0    0  501  502  0.00000000000E+00  0.00000000000E+00  0.10653722123E+04  0.10653722123E+04  0.00000000000E+00 0.  1.
         21   -1    0    0  502  503 -0.00000000000E+00 -0.00000000000E+00 -0.13934617933E+03  0.13934617933E+03  0.00000000000E+00 0.  1.
         -6    2    1    2    0  503 -0.11572821024E+03  0.15237489665E+03  0.15256141314E+02  0.25841805513E+03  0.17302026932E+03 0.  0.
        -24    2    3    3    0    0 -0.12813262596E+03  0.60970710062E+02  0.23531352952E+02  0.16568637779E+03  0.82236572710E+02 0.  0.
          6    2    1    2  501    0  0.11572821024E+03 -0.15237489665E+03  0.91076989165E+03  0.94630033650E+03  0.17138087275E+03 0.  0.
         24    2    5    5    0    0 -0.18165085018E+01 -0.84553174491E+02  0.50962662939E+03  0.52279761661E+03  0.80283918222E+02 0.  0.
          5    1    5    5  501    0  0.11754471874E+03 -0.67821722161E+02  0.40114326226E+03  0.42350271989E+03  0.47000000000E+01 0. -1.
        -13    1    6    6    0    0  0.37091861155E+02 -0.54039836394E+02  0.24650116427E+03  0.25506652871E+03  0.00000000000E+00 0.  1.
         14    1    6    6    0    0 -0.38908369657E+02 -0.30513338097E+02  0.26312546513E+03  0.26773108790E+03  0.00000000000E+00 0. -1.
         -5    1    3    3    0  503  0.12404415724E+02  0.91404186590E+02 -0.82752116388E+01  0.92731677345E+02  0.47000000000E+01 0.  1.
         11    1    4    4    0    0 -0.83168464302E+00  0.19133113284E+02  0.25230859237E+02  0.31675921156E+02  0.00000000000E+00 0. -1.
        -12    1    4    4    0    0 -0.12730094132E+03  0.41837596778E+02 -0.16995062842E+01  0.13401045663E+03  0.00000000000E+00 0.  1.
</event>
<event>
12    1  0.8406581E-002  0.1922475E+03  0.7818608E-02  0.1156497E+00
         21   -1    0    0  503  502  0.00000000000E+00  0.00000000000E+00  0.62156951426E+03  0.62156951426E+03  0.00000000000E+00 0. -1.
         21   -1    0    0  501  503 -0.00000000000E+00 -0.00000000000E+00 -0.76399607249E+02  0.76399607249E+02  0.00000000000E+00 0. -1.
          6    2    1    2  501    0 -0.74187914251E+02  0.46202533538E+02  0.10782500803E+03  0.22023524546E+03  0.17099359713E+03 0.  0.
         24    2    3    3    0    0 -0.91295395834E+02  0.33968714989E+02  0.13680295666E+03  0.18412231497E+03  0.75480163098E+02 0.  0.
         -6    2    1    2    0  502  0.74187914251E+02 -0.46202533538E+02  0.43734489897E+03  0.47773387604E+03  0.17123251716E+03 0.  0.
        -24    2    5    5    0    0  0.25122580954E+02 -0.72651005819E+02  0.38679057251E+03  0.40233653828E+03  0.79739766310E+02 0.  0.
          5    1    3    3  501    0  0.17107481584E+02  0.12233818548E+02 -0.28977948623E+02  0.36112930493E+02  0.47000000000E+01 0. -1.
        -13    1    4    4    0    0 -0.85171424504E+01 -0.20351189872E+02  0.39844321879E+02  0.45544293064E+02  0.00000000000E+00 0.  1.
         14    1    4    4    0    0 -0.82778253384E+02  0.54319904861E+02  0.96958634777E+02  0.13857802191E+03  0.00000000000E+00 0. -1.
         -5    1    5    5    0  502  0.49065333297E+02  0.26448472281E+02  0.50554326463E+02  0.75397337762E+02  0.47000000000E+01 0.  1.
         13    1    6    6    0    0  0.26041873793E+02  0.81401346903E+01  0.63715057925E+02  0.69311251538E+02  0.00000000000E+00 0. -1.
        -14    1    6    6    0    0 -0.91929283892E+00 -0.80791140509E+02  0.32307551459E+03  0.33302528674E+03  0.00000000000E+00 0.  1.
</event>
<event>
12    1  0.8406581E-002  0.2022835E+03  0.7818608E-02  0.1148218E+00
         21   -1    0    0  503  502  0.00000000000E+00  0.00000000000E+00  0.27895290888E+02  0.27895290888E+02  0.00000000000E+00 0. -1.
         21   -1    0    0  501  503 -0.00000000000E+00 -0.00000000000E+00 -0.15273956040E+04  0.15273956040E+04  0.00000000000E+00 0. -1.
          6    2    1    2  501    0 -0.95986292656E+02 -0.38360183213E+02 -0.92434442730E+03  0.94621944994E+03  0.17387856434E+03 0.  0.
         24    2    3    3    0    0 -0.48947364216E+02 -0.20812872582E+02 -0.20773220059E+03  0.22783533098E+03  0.76988640429E+02 0.  0.
         -6    2    1    2    0  502  0.95986292656E+02  0.38360183213E+02 -0.57515588583E+03  0.60907144496E+03  0.17169408851E+03 0.  0.
        -24    2    5    5    0    0  0.13343628209E+03  0.19331930951E+02 -0.48353459892E+03  0.50816987755E+03  0.79069280737E+02 0.  0.
          5    1    3    3  501    0 -0.47038928441E+02 -0.17547310630E+02 -0.71661222671E+03  0.71838411896E+03  0.47000000000E+01 0. -1.
        -11    1    4    4    0    0 -0.11864020400E+02 -0.36335623591E+02 -0.16415754349E+03  0.16854889975E+03  0.00000000000E+00 0.  1.
         12    1    4    4    0    0 -0.37083343815E+02  0.15522751009E+02 -0.43574657094E+02  0.59286431232E+02  0.00000000000E+00 0. -1.
         -5    1    5    5    0  502 -0.37449989434E+02  0.19028252262E+02 -0.91621286905E+02  0.10090156742E+03  0.47000000000E+01 0.  1.
         11    1    6    6    0    0  0.82894860360E+02  0.71243460779E+01 -0.40846383013E+03  0.41685131006E+03  0.00000000000E+00 0. -1.
        -12    1    6    6    0    0  0.50541421731E+02  0.12207584873E+02 -0.75070768797E+02  0.91318567480E+02  0.00000000000E+00 0.  1.
</event>
<event>
12    1  0.8406581E-002  0.2353073E+03  0.7818608E-02  0.1123394E+00
         21   -1    0    0  501  502  0.00000000000E+00  0.00000000000E+00  0.61252390785E+02  0.61252390785E+02  0.00000000000E+00 0.  1.
         21   -1    0    0  502  503 -0.00000000000E+00 -0.00000000000E+00 -0.10854647117E+04  0.10854647117E+04  0.00000000000E+00 0. -1.
         -6    2    1    2    0  503  0.14051249287E+01  0.15756355469E+03 -0.75502471415E+03  0.79084248836E+03  0.17476061993E+03 0.  0.
        -24    2    3    3    0    0 -0.16911567320E+02  0.17638625066E+03 -0.59074095850E+03  0.62440620185E+03  0.97519815030E+02 0.  0.
          6    2    1    2  501    0 -0.14051249287E+01 -0.15756355469E+03 -0.26918760675E+03  0.35587461411E+03  0.17133745999E+03 0.  0.
         24    2    5    5    0    0  0.19691568559E+01 -0.38363195710E+02 -0.19815494354E+03  0.21699394374E+03  0.79657878514E+02 0.  0.
          5    1    5    5  501    0 -0.33742817845E+01 -0.11920035898E+03 -0.71032663209E+02  0.13888067036E+03  0.47000000000E+01 0. -1.
        -11    1    6    6    0    0  0.17404323866E+01  0.80425915522E+00  0.74493315033E+01  0.76921048828E+01  0.00000000000E+00 0.  1.
         12    1    6    6    0    0  0.22872446934E+00 -0.39167454866E+02 -0.20560427504E+03  0.20930183886E+03  0.00000000000E+00 0. -1.
         -5    1    3    3    0  503  0.18316692249E+02 -0.18822695973E+02 -0.16428375565E+03  0.16643628651E+03  0.47000000000E+01 0.  1.
         13    1    4    4    0    0  0.14773084516E+02  0.10657886689E+03 -0.46375962873E+03  0.47607803156E+03  0.00000000000E+00 0. -1.
        -14    1    4    4    0    0 -0.31684651836E+02  0.69807383768E+02 -0.12698132977E+03  0.14832817029E+03  0.00000000000E+00 0.  1.
</event>
<event>
12    1  0.8406581E-002  0.2033058E+03  0.7818608E-02  0.1147006E+00
         21   -1    0    0  503  502  0.00000000000E+00  0.00000000000E+00  0.17399914060E+03  0.17399914060E+03  0.00000000000E+00 0. -1.
         21   -1    0    0  501  503 -0.00000000000E+00 -0.00000000000E+00 -0.27053906976E+03  0.27053906976E+03  0.00000000000E+00 0. -1.
          6    2    1    2  501    0  0.20701375607E+02  0.10568599834E+03 -0.12605158799E+03  0.23910160730E+03  0.17228609516E+03 0.  0.
         24    2    3    3    0    0  0.33542023332E+02  0.60219739555E+02 -0.13527992292E+01  0.10567019856E+03  0.80080437287E+02 0.  0.
         -6    2    1    2    0  502 -0.20701375607E+02 -0.10568599834E+03  0.29511658823E+02  0.20543660305E+03  0.17243892447E+03 0.  0.
        -24    2    5    5    0    0 -0.69870231179E+02 -0.82056659574E+02  0.54932632593E+02  0.14506907937E+03  0.80076832353E+02 0.  0.
          5    1    3    3  501    0 -0.12840647726E+02  0.45466258782E+02 -0.12469878876E+03  0.13343140875E+03  0.47000000000E+01 0. -1.
        -11    1    4    4    0    0  0.37696194668E+02  0.74763651183E+02 -0.15276657990E+02  0.85111590926E+02  0.00000000000E+00 0.  1.
         12    1    4    4    0    0 -0.41541713359E+01 -0.14543911628E+02  0.13923858761E+02  0.20558607631E+02  0.00000000000E+00 0. -1.
         -5    1    5    5    0  502  0.49168855572E+02 -0.23629338763E+02 -0.25420973769E+02  0.60367523687E+02  0.47000000000E+01 0.  1.
         11    1    6    6    0    0  0.77519290300E+01 -0.49419506043E+02  0.22147189705E+02  0.54707202387E+02  0.00000000000E+00 0. -1.
        -12    1    6    6    0    0 -0.77622160209E+02 -0.32637153531E+02  0.32785442887E+02  0.90361876981E+02  0.00000000000E+00 0.  1.
</event>
<event>
12    1  0.8406581E-002  0.1736367E+03  0.7818608E-02  0.1175316E+00
         21   -1    0    0  501  502  0.00000000000E+00  0.00000000000E+00  0.43892190381E+03  0.43892190381E+03  0.00000000000E+00 0. -1.
         21   -1    0    0  502  503 -0.00000000000E+00 -0.00000000000E+00 -0.15204122843E+03  0.15204122843E+03  0.00000000000E+00 0. -1.
         -6    2    1    2    0  503  0.53334127730E+01 -0.15033790639E+02 -0.76872434049E+02  0.18989225400E+03  0.17290239113E+03 0.  0.
        -24    2    3    3    0    0  0.23431977506E+02 -0.70594481661E+02 -0.71657911470E+02  0.13103794508E+03  0.80643960495E+02 0.  0.
          6    2    1    2  501    0 -0.53334127730E+01  0.15033790639E+02  0.36375310943E+03  0.40107087824E+03  0.16818758753E+03 0.  0.
         24    2    5    5    0    0  0.25903703048E+02 -0.47236009038E+02  0.22037046514E+03  0.24159060347E+03  0.83070063182E+02 0.  0.
          5    1    5    5  501    0 -0.31237115821E+02  0.62269799677E+02  0.14338264429E+03  0.15948027477E+03  0.47000000000E+01 0. -1.
        -11    1    6    6    0    0  0.20389255478E+02  0.20953103813E+02  0.48852451278E+02  0.56932559175E+02  0.00000000000E+00 0.  1.
         12    1    6    6    0    0  0.55144475698E+01 -0.68189112851E+02  0.17151801386E+03  0.18465804429E+03  0.00000000000E+00 0. -1.
         -5    1    3    3    0  503 -0.18098564733E+02  0.55560691022E+02 -0.52145225789E+01  0.58854308916E+02  0.47000000000E+01 0.  1.
         13    1    4    4    0    0  0.48319378619E+02 -0.36939073415E+02 -0.18896569133E+02  0.63689385457E+02  0.00000000000E+00 0. -1.
        -14    1    4    4    0    0 -0.24887401113E+02 -0.33655408246E+02 -0.52761342337E+02  0.67348559625E+02  0.00000000000E+00 0.  1.
</event>
<event>
12    1  0.8406581E-002  0.2296609E+03  0.7818608E-02  0.1127052E+00
         21   -1    0    0  501  502  0.00000000000E+00  0.00000000000E+00  0.11908115224E+04  0.11908115224E+04  0.00000000000E+00 0.  1.
         21   -1    0    0  502  503 -0.00000000000E+00 -0.00000000000E+00 -0.46588269665E+02  0.46588269665E+02  0.00000000000E+00 0.  1.
         -6    2    1    2    0  503 -0.11025639145E+03 -0.10383559140E+03  0.43039630734E+03  0.48783719788E+03  0.17264370354E+03 0.  0.
        -24    2    3    3    0    0 -0.50103903706E+02 -0.96406207135E+02  0.39348185795E+03  0.41671558299E+03  0.83781541090E+02 0.  0.
          6    2    1    2  501    0  0.11025639145E+03  0.10383559140E+03  0.71382694545E+03  0.74956259423E+03  0.17133847416E+03 0.  0.
         24    2    5    5    0    0  0.12226442895E+03  0.50174814233E+02  0.63473004088E+03  0.65311529109E+03  0.78811522556E+02 0.  0.
          5    1    5    5  501    0 -0.12008037508E+02  0.53660777169E+02  0.79096904563E+02  0.96447303138E+02  0.47000000000E+01 0. -1.
        -13    1    6    6    0    0  0.64523764890E+02  0.57372504137E+02  0.26172917718E+03  0.27560312526E+03  0.00000000000E+00 0.  1.
         14    1    6    6    0    0  0.57740664065E+02 -0.71976899043E+01  0.37300086371E+03  0.37751216583E+03  0.00000000000E+00 0. -1.
         -5    1    3    3    0  503 -0.60152487740E+02 -0.74293842665E+01  0.36914449386E+02  0.71121614896E+02  0.47000000000E+01 0.  1.
         11    1    4    4    0    0 -0.63665889193E+02 -0.81718479017E+02  0.23296634641E+03  0.25495994552E+03  0.00000000000E+00 0. -1.
        -12    1    4    4    0    0  0.13561985487E+02 -0.14687728119E+02  0.16051551154E+03  0.16175563747E+03  0.00000000000E+00 0.  1.
</event>
<event>
12    1  0.8406581E-002  0.1774647E+03  0.7818608E-02  0.1170433E+00
         21   -1    0    0  501  502  0.00000000000E+00  0.00000000000E+00  0.66010177885E+03  0.66010177885E+03  0.00000000000E+00 0.  1.
         21   -1    0    0  502  503 -0.00000000000E+00 -0.00000000000E+00 -0.62853728782E+02  0.62853728782E+02  0.00000000000E+00 0.  1.
         -6    2    1    2    0  503  0.48614087738E+01 -0.40985341147E+02  0.11982589221E+03  0.21361706409E+03  0.17196096692E+03 0.  0.
        -24    2    3    3    0    0  0.24168862488E+01 -0.35815723907E+01  0.14707178966E+03  0.16703974627E+03  0.79079052350E+02 0.  0.
          6    2    1    2  501    0 -0.48614087738E+01  0.40985341147E+02  0.47742215786E+03  0.50933844354E+03  0.17259867255E+03 0.  0.
         24    2    5    5    0    0  0.12025901601E+02  0.90085312272E+02  0.37539713507E+03  0.39476452115E+03  0.81584510449E+02 0.  0.
          5    1    5    5  501    0 -0.16887310375E+02 -0.49099971124E+02  0.10202502280E+03  0.11457392239E+03  0.47000000000E+01 0. -1.
        -11    1    6    6    0    0 -0.31921972500E+02  0.53206224633E+02  0.23606030261E+03  0.24407863720E+03  0.00000000000E+00 0.  1.
         12    1    6    6    0    0  0.43947874101E+02  0.36879087639E+02  0.13933683246E+03  0.15068588395E+03  0.00000000000E+00 0. -1.
         -5    1    3    3    0  503  0.24445225250E+01 -0.37403768757E+02 -0.27245897451E+02  0.46577317822E+02  0.47000000000E+01 0.  1.
         13    1    4    4    0    0 -0.34356284814E+02  0.15339462300E+02  0.76244905020E+02  0.85023167145E+02  0.00000000000E+00 0. -1.
        -14    1    4    4    0    0  0.36773171063E+02 -0.18921034691E+02  0.70826884640E+02  0.82016579126E+02  0.00000000000E+00 0.  1.
</event>
<event>
12    1  0.8406581E-002  0.2626076E+03  0.7818608E-02  0.1106229E+00
         21   -1    0    0  503  502  0.00000000000E+00  0.00000000000E+00  0.16519023890E+04  0.16519023890E+04  0.00000000000E+00 0.  1.
         21   -1    0    0  501  503 -0.00000000000E+00 -0.00000000000E+00 -0.15351538417E+03  0.15351538417E+03  0.00000000000E+00 0. -1.
          6    2    1    2  501    0  0.17659773244E+03 -0.75178321190E+02 -0.21734505563E+02  0.26350544270E+03  0.17923222512E+03 0.  0.
         24    2    3    3    0    0  0.17153055992E+03 -0.22457208723E+02 -0.58464314500E+02  0.19888067344E+03  0.78793318162E+02 0.  0.
         -6    2    1    2    0  502 -0.17659773244E+03  0.75178321190E+02  0.15201215103E+04  0.15419123304E+04  0.17287477955E+03 0.  0.
        -24    2    5    5    0    0 -0.15390096403E+02  0.61962387880E+01  0.46259310392E+03  0.46993525511E+03  0.81064886056E+02 0.  0.
          5    1    3    3  501    0  0.50671725164E+01 -0.52721112468E+02  0.36729808937E+02  0.64624769258E+02  0.47000000000E+01 0. -1.
        -13    1    4    4    0    0  0.63709394522E+01  0.18778731534E+02 -0.72528378266E+01  0.21114764599E+02  0.00000000000E+00 0.  1.
         14    1    4    4    0    0  0.16515962047E+03 -0.41235940257E+02 -0.51211476673E+02  0.17776590884E+03  0.00000000000E+00 0. -1.
         -5    1    5    5    0  502 -0.16120763604E+03  0.68982082402E+02  0.10575284064E+04  0.10719770753E+04  0.47000000000E+01 0.  1.
         13    1    6    6    0    0 -0.16483335632E+02 -0.21034726715E+02  0.40841947246E+03  0.40929283596E+03  0.00000000000E+00 0. -1.
        -14    1    6    6    0    0  0.10932392286E+01  0.27230965503E+02  0.54173631467E+02  0.60642419151E+02  0.00000000000E+00 0.  1.
</event>
<event>
12    1  0.8406581E-002  0.1809915E+03  0.7818608E-02  0.1167190E+00
         21   -1    0    0  501  502  0.00000000000E+00  0.00000000000E+00  0.56578482987E+02  0.56578482987E+02  0.00000000000E+00 0. -1.
         21   -1    0    0  502  503 -0.00000000000E+00 -0.00000000000E+00 -0.73793457413E+03  0.73793457413E+03  0.00000000000E+00 0. -1.
         -6    2    1    2    0  503  0.55431882421E+02 -0.31861556566E+00 -0.52661586186E+03  0.55639026161E+03  0.17080123579E+03 0.  0.
        -24    2    3    3    0    0  0.51701747574E+02  0.63161652345E+02 -0.36814092239E+03  0.38556855702E+03  0.80454387036E+02 0.  0.
          6    2    1    2  501    0 -0.55431882421E+02  0.31861556566E+00 -0.15474022928E+03  0.23812279550E+03  0.17229373778E+03 0.  0.
         24    2    5    5    0    0 -0.55457173262E+02 -0.44460746854E+02 -0.16168999228E+03  0.19256424917E+03  0.76714277534E+02 0.  0.
          5    1    5    5  501    0  0.25290841312E-01  0.44779362419E+02  0.69497630011E+01  0.45558546334E+02  0.47000000000E+01 0. -1.
        -13    1    6    6    0    0 -0.56237864687E+02 -0.56132132888E+02 -0.90550767188E+02  0.12046972734E+03  0.00000000000E+00 0.  1.
         14    1    6    6    0    0  0.78069142429E+00  0.11671386034E+02 -0.71139225093E+02  0.72094521830E+02  0.00000000000E+00 0. -1.
         -5    1    3    3    0  503  0.37301348465E+01 -0.63480267910E+02 -0.15847493947E+03  0.17082170460E+03  0.47000000000E+01 0.  1.
         13    1    4    4    0    0 -0.18559685087E+02  0.11708850913E+02 -0.35656582423E+02  0.41868257312E+02  0.00000000000E+00 0. -1.
        -14    1    4    4    0    0  0.70261432661E+02  0.51452801431E+02 -0.33248433997E+03  0.34370029971E+03  0.00000000000E+00 0.  1.
</event>
<event>
12    1  0.8406581E-002  0.2399236E+03  0.7818608E-02  0.1120271E+00
         21   -1    0    0  503  502  0.00000000000E+00  0.00000000000E+00  0.71717129047E+02  0.71717129047E+02  0.00000000000E+00 0.  1.
         21   -1    0    0  501  503 -0.00000000000E+00 -0.00000000000E+00 -0.89632017115E+03  0.89632017115E+03  0.00000000000E+00 0.  1.
          6    2    1    2  501    0  0.15848209972E+03 -0.51578134405E+02 -0.57377769088E+03  0.62093978561E+03  0.16902218471E+03 0.  0.
         24    2    3    3    0    0  0.60294297929E+02 -0.37136298948E+02 -0.19546474456E+03  0.22979762938E+03  0.97908002933E+02 0.  0.
         -6    2    1    2    0  502 -0.15848209972E+03  0.51578134405E+02 -0.25082535122E+03  0.34709751459E+03  0.17258750805E+03 0.  0.
        -24    2    5    5    0    0 -0.25519674641E+02  0.85222530250E+01 -0.15847880052E+03  0.17951830695E+03  0.79921272058E+02 0.  0.
          5    1    3    3  501    0  0.98187801790E+02 -0.14441835457E+02 -0.37831294631E+03  0.39114215623E+03  0.47000000000E+01 0. -1.
        -11    1    4    4    0    0  0.72262095144E+02 -0.60243646011E+02 -0.16286351680E+03  0.18808410987E+03  0.00000000000E+00 0.  1.
         12    1    4    4    0    0 -0.11967797215E+02  0.23107347063E+02 -0.32601227760E+02  0.41713519510E+02  0.00000000000E+00 0. -1.
         -5    1    5    5    0  502 -0.13296242508E+03  0.43055881380E+02 -0.92346550704E+02  0.16757920763E+03  0.47000000000E+01 0.  1.
         11    1    6    6    0    0 -0.12873412636E+02  0.40065560973E+02 -0.12467145166E+03  0.13158246383E+03  0.00000000000E+00 0. -1.
        -12    1    6    6    0    0 -0.12646262006E+02 -0.31543307949E+02 -0.33807348862E+02  0.47935843125E+02  0.00000000000E+00 0.  1.
</event>
<event>
12    1  0.8406581E-002  0.1985068E+03  0.7818608E-02  0.1151217E+00
         21   -1    0    0  503  502  0.00000000000E+00  0.00000000000E+00  0.11041579958E+03  0.11041579958E+03  0.00000000000E+00 0. -1.
         21   -1    0    0  501  503 -0.00000000000E+00 -0.00000000000E+00 -0.51945292283E+03  0.51945292283E+03  0.00000000000E+00 0. -1.
          6    2    1    2  501    0 -0.37198447655E+02  0.90010920828E+02 -0.38201933834E+03  0.43051564154E+03  0.17297182537E+03 0.  0.
         24    2    3    3    0    0 -0.19994644337E+02  0.12456420544E+03 -0.34795908389E+03  0.37882336688E+03  0.80719218003E+02 0.  0.
         -6    2    1    2    0  502  0.37198447655E+02 -0.90010920828E+02 -0.27017784906E+02  0.19935308087E+03  0.17183131197E+03 0.  0.
        -24    2    5    5    0    0  0.80488714544E+02 -0.52156152796E+02 -0.15912210828E+01  0.13630047729E+03  0.96832797550E+02 0.  0.
          5    1    3    3  501    0 -0.17203803318E+02 -0.34553284616E+02 -0.34060254453E+02  0.51692274662E+02  0.47000000000E+01 0. -1.
        -13    1    4    4    0    0 -0.52595063388E+01  0.38634719825E+02 -0.30193863369E+02  0.49315042006E+02  0.00000000000E+00 0.  1.
         14    1    4    4    0    0 -0.14735137998E+02  0.85929485619E+02 -0.31776522052E+03  0.32950832488E+03  0.00000000000E+00 0. -1.
         -5    1    5    5    0  502 -0.43290266889E+02 -0.37854768032E+02 -0.25426563823E+02  0.63052603577E+02  0.47000000000E+01 0.  1.
         11    1    6    6    0    0  0.26556730690E+02 -0.53856724149E+02 -0.38132450088E+02  0.71132906807E+02  0.00000000000E+00 0. -1.
        -12    1    6    6    0    0  0.53931983854E+02  0.17005713533E+01  0.36541229005E+02  0.65167570482E+02  0.00000000000E+00 0.  1.
</event>
<event>
12    1  0.8406581E-002  0.1779288E+03  0.7818608E-02  0.1170606E+00
         21   -1    0    0  503  502  0.00000000000E+00  0.00000000000E+00  0.10004605863E+03  0.10004605863E+03  0.00000000000E+00 0. -1.
         21   -1    0    0  501  503 -0.00000000000E+00 -0.00000000000E+00 -0.40987530796E+03  0.40987530796E+03  0.00000000000E+00 0. -1.
          6    2    1    2  501    0 -0.29586002266E+02  0.29372696155E+02 -0.27917798285E+03  0.32937180915E+03  0.16972729818E+03 0.  0.
         24    2    3    3    0    0 -0.71269483525E+02 -0.11210238363E+02 -0.22689233944E+03  0.25101132364E+03  0.79508126435E+02 0.  0.
         -6    2    1    2    0  502  0.29586002266E+02 -0.29372696155E+02 -0.30651266481E+02  0.18054955744E+03  0.17297559292E+03 0.  0.
        -24    2    5    5    0    0 -0.51516866830E+02 -0.19458332745E+02 -0.13391723177E+02  0.96907750835E+02  0.78607630934E+02 0.  0.
          5    1    3    3  501    0  0.41683481259E+02  0.40582934518E+02 -0.52285643406E+02  0.78360485516E+02  0.47000000000E+01 0. -1.
        -13    1    4    4    0    0 -0.33701253544E+02  0.29188896055E+02 -0.56872534717E+02  0.72265146153E+02  0.00000000000E+00 0.  1.
         14    1    4    4    0    0 -0.37568229981E+02 -0.40399134418E+02 -0.17001980473E+03  0.17874617748E+03  0.00000000000E+00 0. -1.
         -5    1    5    5    0  502  0.81102869097E+02 -0.99143634104E+01 -0.17259543304E+02  0.83641806608E+02  0.47000000000E+01 0.  1.
         11    1    6    6    0    0 -0.32855938885E+02  0.26740802438E+02 -0.19636483827E+02  0.46692341258E+02  0.00000000000E+00 0. -1.
        -12    1    6    6    0    0 -0.18660927945E+02 -0.46199135183E+02  0.62447606499E+01  0.50215409577E+02  0.00000000000E+00 0.  1.
</event>
<event>
12    1  0.8406581E-002  0.3041234E+03  0.7818608E-02  0.1083331E+00
         21   -1    0    0  503  502  0.00000000000E+00  0.00000000000E+00  0.11677721390E+04  0.11677721390E+04  0.00000000000E+00 0.  1.
         21   -1    0    0  501  503 -0.00000000000E+00 -0.00000000000E+00 -0.33906342350E+03  0.33906342350E+03  0.00000000000E+00 0. -1.
          6    2    1    2  501    0 -0.21744440776E+03 -0.12360232077E+03 -0.24540835432E+03  0.39078931096E+03  0.17300699703E+03 0.  0.
         24    2    3    3    0    0 -0.15030210901E+03 -0.13423793948E+03 -0.23841069713E+03  0.32228922429E+03  0.80125746284E+02 0.  0.
         -6    2    1    2    0  502  0.21744440776E+03  0.12360232077E+03  0.10741170698E+04  0.11160462515E+04  0.17109106270E+03 0.  0.
        -24    2    5    5    0    0  0.84140196664E+02  0.24527117112E+02  0.26332897908E+03  0.28840784816E+03  0.78458801201E+02 0.  0.
          5    1    3    3  501    0 -0.67142298750E+02  0.10635618717E+02 -0.69976571905E+01  0.68500086665E+02  0.47000000000E+01 0. -1.
        -11    1    4    4    0    0  0.43227703930E+01 -0.78281137728E+01 -0.39181280192E+02  0.40188784836E+02  0.00000000000E+00 0.  1.
         12    1    4    4    0    0 -0.15462487940E+03 -0.12640982571E+03 -0.19922941694E+03  0.28210043945E+03  0.00000000000E+00 0. -1.
         -5    1    5    5    0  502  0.13330421110E+03  0.99075203655E+02  0.81078809069E+03  0.82763840334E+03  0.47000000000E+01 0.  1.
         13    1    6    6    0    0  0.90451208438E+01  0.14848152235E+02  0.34523296178E+01  0.17725699299E+02  0.00000000000E+00 0. -1.
        -14    1    6    6    0    0  0.75095075820E+02  0.96789648773E+01  0.25987664947E+03  0.27068214886E+03  0.00000000000E+00 0.  1.
</event>
<event>
12    1  0.8406581E-002  0.2391542E+03  0.7818608E-02  0.1120489E+00
         21   -1    0    0  503  502  0.00000000000E+00  0.00000000000E+00  0.33186130284E+03  0.33186130284E+03  0.00000000000E+00 0. -1.
         21   -1    0    0  501  503 -0.00000000000E+00 -0.00000000000E+00 -0.17285576864E+03  0.17285576864E+03  0.00000000000E+00 0. -1.
          6    2    1    2  501    0 -0.24385127082E+01 -0.16571475584E+03  0.59469085244E+02  0.24567607828E+03  0.17132669580E+03 0.  0.
         24    2    3    3    0    0 -0.17063839667E+02 -0.14885736779E+03  0.10111506151E+03  0.19819398629E+03  0.81282900822E+02 0.  0.
         -6    2    1    2    0  502  0.24385127082E+01  0.16571475584E+03  0.99536448953E+02  0.25904099319E+03  0.17241637056E+03 0.  0.
        -24    2    5    5    0    0  0.42470705317E+02  0.34989009833E+02  0.97585087004E+02  0.12222836612E+03  0.48876708751E+02 0.  0.
          5    1    3    3  501    0  0.14625326959E+02 -0.16857388048E+02 -0.41645976270E+02  0.47482091992E+02  0.47000000000E+01 0. -1.
        -11    1    4    4    0    0 -0.73331913769E+01  0.69723563001E+01  0.19610927454E+02  0.22067576300E+02  0.00000000000E+00 0.  1.
         12    1    4    4    0    0 -0.97306482903E+01 -0.15582972409E+03  0.81504134060E+02  0.17612640999E+03  0.00000000000E+00 0. -1.
         -5    1    5    5    0  502 -0.40032192609E+02  0.13072574601E+03  0.19513619492E+01  0.13681262708E+03  0.47000000000E+01 0.  1.
         11    1    6    6    0    0  0.45122091307E+02  0.36178602107E+02  0.10181594993E+03  0.11709561066E+03  0.00000000000E+00 0. -1.
        -12    1    6    6    0    0 -0.26513859905E+01 -0.11895922741E+01 -0.42308629301E+01  0.51327554571E+01  0.00000000000E+00 0.  1.
</event>
<event>
12    1  0.8406581E-002  0.3641389E+03  0.7818608E-02  0.1056975E+00
         21   -1    0    0  501  502  0.00000000000E+00  0.00000000000E+00  0.22717973195E+03  0.22717973195E+03  0.00000000000E+00 0. -1.
         21   -1    0    0  502  503 -0.00000000000E+00 -0.00000000000E+00 -0.74659116725E+03  0.74659116725E+03  0.00000000000E+00 0.  1.
         -6    2    1    2    0  503 -0.26813932050E+03 -0.17697796233E+03 -0.48731024568E+03  0.60821982297E+03  0.17099761156E+03 0.  0.
        -24    2    3    3    0    0 -0.12039966578E+03 -0.13374583148E+03 -0.19103827705E+03  0.27431086515E+03  0.79792233227E+02 0.  0.
          6    2    1    2  501    0  0.26813932050E+03  0.17697796233E+03 -0.32101189617E+02  0.36555107622E+03  0.17139780806E+03 0.  0.
         24    2    5    5    0    0  0.15380946523E+03  0.35402709620E+02 -0.49952314808E+02  0.18264229936E+03  0.77150970942E+02 0.  0.
          5    1    5    5  501    0  0.11432985527E+03  0.14157525270E+03  0.17851125191E+02  0.18290877687E+03  0.47000000000E+01 0. -1.
        -11    1    6    6    0    0  0.84964969166E+02 -0.23359438335E+00 -0.60643615838E+02  0.10438749299E+03  0.00000000000E+00 0.  1.
         12    1    6    6    0    0  0.68844496063E+02  0.35636304004E+02  0.10691301030E+02  0.78254806363E+02  0.00000000000E+00 0. -1.
         -5    1    3    3    0  503 -0.14773965471E+03 -0.43232130843E+02 -0.29627196864E+03  0.33390895782E+03  0.47000000000E+01 0.  1.
         11    1    4    4    0    0 -0.71465234305E+02 -0.46922787218E+02 -0.42600284060E+02  0.95518646748E+02  0.00000000000E+00 0. -1.
        -12    1    4    4    0    0 -0.48934431477E+02 -0.86823044264E+02 -0.14843799299E+03  0.17879221840E+03  0.00000000000E+00 0.  1.
</event>
<event>
12    1  0.8406581E-002  0.2412259E+03  0.7818608E-02  0.1119021E+00
         21   -1    0    0  501  502  0.00000000000E+00  0.00000000000E+00  0.57836231638E+03  0.57836231638E+03  0.00000000000E+00 0. -1.
         21   -1    0    0  502  503 -0.00000000000E+00 -0.00000000000E+00 -0.17855675149E+03  0.17855675149E+03  0.00000000000E+00 0.  1.
         -6    2    1    2    0  503  0.15026651138E+03  0.76067902677E+02 -0.50374385434E+02  0.24618239935E+03  0.17234223156E+03 0.  0.
        -24    2    3    3    0    0  0.15311901553E+03  0.84521247431E+02 -0.85371879684E+02  0.20976110858E+03  0.78243789822E+02 0.  0.
          6    2    1    2  501    0 -0.15026651138E+03 -0.76067902677E+02  0.45017995032E+03  0.51073666852E+03  0.17269512627E+03 0.  0.
         24    2    5    5    0    0 -0.52877475093E+00 -0.67687506907E+01  0.16824528846E+03  0.18403649130E+03  0.74275550835E+02 0.  0.
          5    1    5    5  501    0 -0.14973773663E+03 -0.69299151987E+02  0.28193466186E+03  0.32670017722E+03  0.47000000000E+01 0. -1.
        -13    1    6    6    0    0  0.51585599276E+01 -0.20556141544E+02  0.16778169002E+03  0.16911493488E+03  0.00000000000E+00 0.  1.
         14    1    6    6    0    0 -0.56873346785E+01  0.13787390853E+02  0.46359844075E+00  0.14921556413E+02  0.00000000000E+00 0. -1.
         -5    1    3    3    0  503 -0.28525041514E+01 -0.84533447535E+01  0.34997494250E+02  0.36421290769E+02  0.47000000000E+01 0.  1.
         13    1    4    4    0    0  0.27290038552E+02 -0.65742037051E+01 -0.38218535386E+02  0.47419645777E+02  0.00000000000E+00 0. -1.
        -14    1    4    4    0    0  0.12582897698E+03  0.91095451136E+02 -0.47153344298E+02  0.16234146280E+03  0.00000000000E+00 0.  1.
</event>
<event>
12    1  0.8406581E-002  0.1866709E+03  0.7818608E-02  0.1162213E+00
         21   -1    0    0  501  502  0.00000000000E+00  0.00000000000E+00  0.14035088935E+03  0.14035088935E+03  0.00000000000E+00 0.  1.
         21   -1    0    0  502  503 -0.00000000000E+00 -0.00000000000E+00 -0.24812066840E+03  0.24812066840E+03  0.00000000000E+00 0.  1.
         -6    2    1    2    0  503 -0.19160342513E+02  0.59302506773E+02 -0.78699073966E+02  0.20258229657E+03  0.17596061095E+03 0.  0.
        -24    2    3    3    0    0  0.93202578342E+01  0.51036049215E+02  0.23173905371E+02  0.96376492419E+02  0.77845056845E+02 0.  0.
          6    2    1    2  501    0  0.19160342513E+02 -0.59302506773E+02 -0.29070705086E+02  0.18588926119E+03  0.17270149245E+03 0.  0.
         24    2    5    5    0    0  0.68880691846E+02 -0.21493513714E+02  0.15214290292E+02  0.10917626418E+03  0.80507522569E+02 0.  0.
          5    1    5    5  501    0 -0.49720349334E+02 -0.37808993060E+02 -0.44284995378E+02  0.76712997006E+02  0.47000000000E+01 0. -1.
        -13    1    6    6    0    0  0.40472705938E+02 -0.33498986773E+02  0.42826013598E+02  0.67781188256E+02  0.00000000000E+00 0.  1.
         14    1    6    6    0    0  0.28407985909E+02  0.12005473059E+02 -0.27611723306E+02  0.41395075923E+02  0.00000000000E+00 0. -1.
         -5    1    3    3    0  503 -0.28480600347E+02  0.82664575583E+01 -0.10187297934E+03  0.10620580415E+03  0.47000000000E+01 0.  1.
         11    1    4    4    0    0  0.39276468950E+02  0.24722677413E+02  0.30910159778E+02  0.55761005812E+02  0.00000000000E+00 0. -1.
        -12    1    4    4    0    0 -0.29956211116E+02  0.26313371802E+02 -0.77362544073E+01  0.40615486606E+02  0.00000000000E+00 0.  1.
</event>
<event>
12    1  0.8406581E-002  0.2895526E+03  0.7818608E-02  0.1090883E+00
         21   -1    0    0  501  502  0.00000000000E+00  0.00000000000E+00  0.36184225930E+03  0.36184225930E+03  0.00000000000E+00 0.  1.
         21   -1    0    0  502  503 -0.00000000000E+00 -0.00000000000E+00 -0.23700061028E+03  0.23700061028E+03  0.00000000000E+00 0. -1.
         -6    2    1    2    0  503  0.22924578818E+03  0.40912747667E+02  0.10771038666E+02  0.28975288876E+03  0.17208497015E+03 0.  0.
        -24    2    3    3    0    0  0.23099148859E+03  0.29140305878E+02  0.47523233352E+02  0.25083693226E+03  0.80339801168E+02 0.  0.
          6    2    1    2  501    0 -0.22924578818E+03 -0.40912747667E+02  0.11407061036E+03  0.30908998082E+03  0.16821720416E+03 0.  0.
         24    2    5    5    0    0 -0.13338497299E+03 -0.75582111842E+02  0.11176612882E+03  0.20701813682E+03  0.82828948879E+02 0.  0.
          5    1    5    5  501    0 -0.95860815191E+02  0.34669364175E+02  0.23044815379E+01  0.10207184399E+03  0.47000000000E+01 0. -1.
        -11    1    6    6    0    0 -0.11186172957E+03 -0.83619984530E+02  0.63208176102E+02  0.15329912551E+03  0.00000000000E+00 0.  1.
         12    1    6    6    0    0 -0.21523243418E+02  0.80378726873E+01  0.48557952716E+02  0.53719011314E+02  0.00000000000E+00 0. -1.
         -5    1    3    3    0  503 -0.17457004098E+01  0.11772441789E+02 -0.36752194686E+02  0.38915956494E+02  0.47000000000E+01 0.  1.
         13    1    4    4    0    0  0.76291406227E+02 -0.11019119850E+02  0.48378338258E+02  0.91006940828E+02  0.00000000000E+00 0. -1.
        -14    1    4    4    0    0  0.15470008236E+03  0.40159425728E+02 -0.85510490558E+00  0.15982999144E+03  0.00000000000E+00 0.  1.
</event>
<event>
12    1  0.8406581E-002  0.2255064E+03  0.7818608E-02  0.1130005E+00
         21   -1    0    0  503  502  0.00000000000E+00  0.00000000000E+00  0.10261491069E+03  0.10261491069E+03  0.00000000000E+00 0.  1.
         21   -1    0    0  501  503 -0.00000000000E+00 -0.00000000000E+00 -0.76470398833E+03  0.76470398833E+03  0.00000000000E+00 0.  1.
          6    2    1    2  501    0 -0.76982716177E+02  0.12345750399E+03 -0.58882301149E+03  0.63020910782E+03  0.17112243230E+03 0.  0.
         24    2    3    3    0    0  0.90735480491E+01  0.79563099289E+02 -0.20065637290E+03  0.23017432347E+03  0.79401657137E+02 0.  0.
         -6    2    1    2    0  502  0.76982716177E+02 -0.12345750399E+03 -0.73266066156E+02  0.23710979120E+03  0.17229347856E+03 0.  0.
        -24    2    5    5    0    0  0.40980036549E+02 -0.15098267840E+03 -0.77154097488E+02  0.19138195554E+03  0.78734779947E+02 0.  0.
          5    1    3    3  501    0 -0.86056264227E+02  0.43894404702E+02 -0.38816663859E+03  0.40003478435E+03  0.47000000000E+01 0. -1.
        -13    1    4    4    0    0 -0.10006358406E+02  0.85088390152E+02 -0.18805254310E+03  0.20664926884E+03  0.00000000000E+00 0.  1.
         14    1    4    4    0    0  0.19079906455E+02 -0.55252908635E+01 -0.12603829800E+02  0.23525054625E+02  0.00000000000E+00 0. -1.
         -5    1    5    5    0  502  0.36002679628E+02  0.27525174414E+02  0.38880313319E+01  0.45727835665E+02  0.47000000000E+01 0.  1.
         11    1    6    6    0    0 -0.17737376755E+02 -0.35292442147E+02 -0.40484666562E+02  0.56561287410E+02  0.00000000000E+00 0. -1.
        -12    1    6    6    0    0  0.58717413304E+02 -0.11569023626E+03 -0.36669430926E+02  0.13482066813E+03  0.00000000000E+00 0.  1.
</event>
<event>
12    1  0.8406581E-002  0.1885341E+03  0.7818608E-02  0.1160118E+00
         21   -1    0    0  501  502  0.00000000000E+00  0.00000000000E+00  0.78510544680E+02  0.78510544680E+02  0.00000000000E+00 0. -1.
         21   -1    0    0  502  503 -0.00000000000E+00 -0.00000000000E+00 -0.44942212111E+03  0.44942212111E+03  0.00000000000E+00 0. -1.
         -6    2    1    2    0  503  0.77055773803E+02 -0.12008221934E+02 -0.19036462698E+03  0.26792495802E+03  0.17164877586E+03 0.  0.
        -24    2    3    3    0    0  0.74393210552E+02  0.46227417023E+02 -0.12391974268E+03  0.17940664615E+03  0.95704326938E+02 0.  0.
          6    2    1    2  501    0 -0.77055773803E+02  0.12008221934E+02 -0.18054694945E+03  0.26000770777E+03  0.17007356489E+03 0.  0.
         24    2    5    5    0    0 -0.50154468918E+02 -0.35224944619E+02 -0.17854640849E+03  0.20541151384E+03  0.80986434407E+02 0.  0.
          5    1    5    5  501    0 -0.26901304886E+02  0.47233166552E+02 -0.20005409586E+01  0.54596193926E+02  0.47000000000E+01 0. -1.
        -13    1    6    6    0    0  0.18066867903E+02 -0.24061996020E+02 -0.35494324807E+02  0.46532122902E+02  0.00000000000E+00 0.  1.
         14    1    6    6    0    0 -0.68221336821E+02 -0.11162948599E+02 -0.14305208368E+03  0.15887939094E+03  0.00000000000E+00 0. -1.
         -5    1    3    3    0  503  0.26625632512E+01 -0.58235638956E+02 -0.66444884302E+02  0.88518311877E+02  0.47000000000E+01 0.  1.
         13    1    4    4    0    0  0.95352839857E+02  0.25022028206E+02 -0.10535211520E+03  0.14428213383E+03  0.00000000000E+00 0. -1.
        -14    1    4    4    0    0 -0.20959629305E+02  0.21205388816E+02 -0.18567627479E+02  0.35124512319E+02  0.00000000000E+00 0.  1.
</event>
<event>
12    1  0.8406581E-002  0.2256456E+03  0.7818608E-02  0.1129838E+00
         21   -1    0    0  503  502  0.00000000000E+00  0.00000000000E+00  0.10027213990E+04  0.10027213990E+04  0.00000000000E+00 0. -1.
         21   -1    0    0  501  503 -0.00000000000E+00 -0.00000000000E+00 -0.25154968870E+03  0.25154968870E+03  0.00000000000E+00 0. -1.
          6    2    1    2  501    0 -0.92354344409E+02 -0.11663546710E+03 -0.18476545377E+03  0.29164053738E+03  0.16965486441E+03 0.  0.
         24    2    3    3    0    0 -0.12085300059E+03 -0.10917637411E+03 -0.18834844850E+03  0.26159491667E+03  0.80198715448E+02 0.  0.
         -6    2    1    2    0  502  0.92354344409E+02  0.11663546710E+03  0.93593716404E+03  0.96263055029E+03  0.16895574629E+03 0.  0.
        -24    2    5    5    0    0  0.90670752930E+02  0.14012466547E+03  0.90234618849E+03  0.92133865571E+03  0.82341771304E+02 0.  0.
          5    1    3    3  501    0  0.28498656185E+02 -0.74590929860E+01  0.35829947250E+01  0.30045620708E+02  0.47000000000E+01 0. -1.
        -11    1    4    4    0    0 -0.33855391337E+02  0.80987302264E+01 -0.27582820652E+02  0.44413837360E+02  0.00000000000E+00 0.  1.
         12    1    4    4    0    0 -0.86997609257E+02 -0.11727510434E+03 -0.16076562785E+03  0.21718107931E+03  0.00000000000E+00 0. -1.
         -5    1    5    5    0  502  0.16835914792E+01 -0.23489198366E+02  0.33590975551E+02  0.41291894588E+02  0.47000000000E+01 0.  1.
         13    1    6    6    0    0 -0.68258763404E+00  0.25348246078E+02  0.46066782136E+02  0.52584673827E+02  0.00000000000E+00 0. -1.
        -14    1    6    6    0    0  0.91353340564E+02  0.11477641939E+03  0.85627940636E+03  0.86875398188E+03  0.00000000000E+00 0.  1.
</event>
<event>
12    1  0.8406581E-002  0.1949864E+03  0.7818608E-02  0.1154377E+00
         21   -1    0    0  501  502  0.00000000000E+00  0.00000000000E+00  0.25966028427E+03  0.25966028427E+03  0.00000000000E+00 0.  1.
         21   -1    0    0  502  503 -0.00000000000E+00 -0.00000000000E+00 -0.15261323733E+03  0.15261323733E+03  0.00000000000E+00 0. -1.
         -6    2    1    2    0  503 -0.49058005234E+02 -0.79345765225E+02  0.80876727128E+01  0.19361247467E+03  0.16946368803E+03 0.  0.
        -24    2    3    3    0    0 -0.88068900694E+02 -0.54195985314E+02  0.37293635746E+02  0.13857212883E+03  0.84368735482E+02 0.  0.
          6    2    1    2  501    0  0.49058005234E+02  0.79345765225E+02  0.98959374226E+02  0.21866104693E+03  0.17122282956E+03 0.  0.
         24    2    5    5    0    0  0.49206392952E+02  0.81509033719E+02  0.56811486688E+01  0.12523931973E+03  0.81164155092E+02 0.  0.
          5    1    5    5  501    0 -0.14838771836E+00 -0.21632684945E+01  0.93278225557E+02  0.93421727198E+02  0.47000000000E+01 0. -1.
        -11    1    6    6    0    0  0.69252555002E+01  0.44070934011E+02  0.39353578060E+02  0.59488742587E+02  0.00000000000E+00 0.  1.
         12    1    6    6    0    0  0.42281137452E+02  0.37438099708E+02 -0.33672429391E+02  0.65750577147E+02  0.00000000000E+00 0. -1.
         -5    1    3    3    0  503  0.39010895460E+02 -0.25149779911E+02 -0.29205963033E+02  0.55040345846E+02  0.47000000000E+01 0.  1.
         11    1    4    4    0    0 -0.44486653422E+02 -0.65182314118E+02 -0.18978651898E+01  0.78939206347E+02  0.00000000000E+00 0. -1.
        -12    1    4    4    0    0 -0.43582247272E+02  0.10986328804E+02  0.39191500936E+02  0.59632922480E+02  0.00000000000E+00 0.  1.
</event>
<event>
12    1  0.8406581E-002  0.1729397E+03  0.7818608E-02  0.1175034E+00
         21   -1    0    0  501  502  0.00000000000E+00  0.00000000000E+00  0.16375526897E+03  0.16375526897E+03  0.00000000000E+00 0. -1.
         21   -1    0    0  502  503 -0.00000000000E+00 -0.00000000000E+00 -0.18223173432E+03  0.18223173432E+03  0.00000000000E+00 0. -1.
         -6    2    1    2    0  503 -0.73520766860E+01  0.16905620704E+02 -0.29687839548E+00  0.17293997147E+03  0.17195433276E+03 0.  0.
        -24    2    3    3    0    0  0.10763970162E+02  0.74344410466E+02  0.15796096033E+02  0.11042213763E+03  0.79376176573E+02 0.  0.
          6    2    1    2  501    0  0.73520766860E+01 -0.16905620704E+02 -0.18179586963E+02  0.17304703181E+03  0.17109916655E+03 0.  0.
         24    2    5    5    0    0  0.29556616764E+02 -0.57298547311E+02 -0.50076103611E+02  0.11679662831E+03  0.83529151280E+02 0.  0.
          5    1    5    5  501    0 -0.22204540078E+02  0.40392926608E+02  0.31896516648E+02  0.56250403503E+02  0.47000000000E+01 0. -1.
        -11    1    6    6    0    0  0.47948699559E+02 -0.21270829616E+02 -0.40323744138E-01  0.52455005556E+02  0.00000000000E+00 0.  1.
         12    1    6    6    0    0 -0.18392082795E+02 -0.36027717695E+02 -0.50035779867E+02  0.64341622755E+02  0.00000000000E+00 0. -1.
         -5    1    3    3    0  503 -0.18116046848E+02 -0.57438789762E+02 -0.16092974429E+02  0.62517833846E+02  0.47000000000E+01 0.  1.
         13    1    4    4    0    0  0.44313315945E+02  0.52949574345E+02  0.51813312464E+01  0.69239971020E+02  0.00000000000E+00 0. -1.
        -14    1    4    4    0    0 -0.33549345783E+02  0.21394836121E+02  0.10614764787E+02  0.41182166609E+02  0.00000000000E+00 0.  1.
</event>
<event>
12    1  0.8406581E-002  0.1821346E+03  0.7818608E-02  0.1165924E+00
         21   -1    0    0  501  502  0.00000000000E+00  0.00000000000E+00  0.21542247580E+03  0.21542247580E+03  0.00000000000E+00 0. -1.
         21   -1    0    0  502  503 -0.00000000000E+00 -0.00000000000E+00 -0.22941377392E+03  0.22941377392E+03  0.00000000000E+00 0. -1.
         -6    2    1    2    0  503  0.59233731112E+02 -0.11827942802E+02 -0.13504656355E+03  0.22673901920E+03  0.17182687033E+03 0.  0.
        -24    2    3    3    0    0  0.28756473953E+02 -0.69765420129E+02 -0.52634101377E+02  0.12138476725E+03  0.79181844207E+02 0.  0.
          6    2    1    2  501    0 -0.59233731112E+02  0.11827942802E+02  0.12105526543E+03  0.21809723052E+03  0.17106574625E+03 0.  0.
         24    2    5    5    0    0  0.17956998659E+02 -0.38103626950E+02  0.65525843152E+02  0.11059291824E+03  0.78503613013E+02 0.  0.
          5    1    5    5  501    0 -0.77190729770E+02  0.49931569752E+02  0.55529422281E+02  0.10750431228E+03  0.47000000000E+01 0. -1.
        -11    1    6    6    0    0 -0.15766308282E+02 -0.46396954996E+02  0.19049888723E+02  0.52575204899E+02  0.00000000000E+00 0.  1.
         12    1    6    6    0    0  0.33723306941E+02  0.82933280461E+01  0.46475954429E+02  0.58017713339E+02  0.00000000000E+00 0. -1.
         -5    1    3    3    0  503  0.30477257159E+02  0.57937477327E+02 -0.82412462173E+02  0.10535425195E+03  0.47000000000E+01 0.  1.
         11    1    4    4    0    0  0.17534310728E+02 -0.20719646148E+02 -0.64249797114E+02  0.69748062470E+02  0.00000000000E+00 0. -1.
        -12    1    4    4    0    0  0.11222163224E+02 -0.49045773981E+02  0.11615695737E+02  0.51636704778E+02  0.00000000000E+00 0.  1.
</event>
<event>
12    1  0.8406581E-002  0.2196265E+03  0.7818608E-02  0.1134450E+00
         21   -1    0    0  501  502  0.00000000000E+00  0.00000000000E+00  0.12188767924E+03  0.12188767924E+03  0.00000000000E+00 0.  1.
         21   -1    0    0  502  503 -0.00000000000E+00 -0.00000000000E+00 -0.39631403106E+03  0.39631403106E+03  0.00000000000E+00 0.  1.
         -6    2    1    2    0  503  0.39718651851E+02 -0.12809266132E+03 -0.16052548507E+03  0.27079673209E+03  0.17198004991E+03 0.  0.
        -24    2    3    3    0    0 -0.14732841377E+02 -0.12558944979E+02 -0.10007036381E+03  0.12941103122E+03  0.79739285004E+02 0.  0.
          6    2    1    2  501    0 -0.39718651851E+02  0.12809266132E+03 -0.11390086674E+03  0.24740497821E+03  0.17392675070E+03 0.  0.
         24    2    5    5    0    0 -0.77397824381E+02  0.11439731086E+03 -0.12806743619E+03  0.20462572673E+03  0.79957813114E+02 0.  0.
          5    1    5    5  501    0  0.37679172530E+02  0.13695350461E+02  0.14166569447E+02  0.42779251475E+02  0.47000000000E+01 0. -1.
        -11    1    6    6    0    0 -0.79408272701E+02  0.86808430288E+02 -0.61967853235E+02  0.13297139609E+03  0.00000000000E+00 0.  1.
         12    1    6    6    0    0  0.20104483194E+01  0.27588880569E+02 -0.66099582957E+02  0.71654330648E+02  0.00000000000E+00 0. -1.
         -5    1    3    3    0  503  0.54451493228E+02 -0.11553371634E+03 -0.60455121260E+02  0.14138570088E+03  0.47000000000E+01 0.  1.
         13    1    4    4    0    0 -0.59901042348E+01 -0.36635585454E+02 -0.14106360772E+02  0.39711923707E+02  0.00000000000E+00 0. -1.
        -14    1    4    4    0    0 -0.87427371422E+01  0.24076640475E+02 -0.85964003040E+02  0.89699107510E+02  0.00000000000E+00 0.  1.
</event>
<event>
12    1  0.8406581E-002  0.3317066E+03  0.7818608E-02  0.1070455E+00
         21   -1    0    0  501  502  0.00000000000E+00  0.00000000000E+00  0.16468898231E+03  0.16468898231E+03  0.00000000000E+00 0. -1.
         21   -1    0    0  502  503 -0.00000000000E+00 -0.00000000000E+00 -0.66685267681E+03  0.66685267681E+03  0.00000000000E+00 0.  1.
         -6    2    1    2    0  503  0.66169065076E+02 -0.27558071091E+03 -0.25467144834E+03  0.41819473773E+03  0.17235492064E+03 0.  0.
        -24    2    3    3    0    0  0.38677235292E+02 -0.21950853822E+03 -0.26401526134E+03  0.35487581404E+03  0.80949726951E+02 0.  0.
          6    2    1    2  501    0 -0.66169065076E+02  0.27558071091E+03 -0.24749224616E+03  0.41334692140E+03  0.17111455847E+03 0.  0.
         24    2    5    5    0    0  0.13392861484E+02  0.15205149039E+03 -0.18678847506E+03  0.25429785253E+03  0.80488750273E+02 0.  0.
          5    1    5    5  501    0 -0.79561926560E+02  0.12352922052E+03 -0.60703771101E+02  0.15904906886E+03  0.47000000000E+01 0. -1.
        -11    1    6    6    0    0 -0.34018934352E+02  0.59753229658E+02 -0.71788613960E+02  0.99404936715E+02  0.00000000000E+00 0.  1.
         12    1    6    6    0    0  0.47411795835E+02  0.92298260730E+02 -0.11499986110E+03  0.15489291582E+03  0.00000000000E+00 0. -1.
         -5    1    3    3    0  503  0.27491829784E+02 -0.56072172691E+02  0.93438130036E+01  0.63318923685E+02  0.47000000000E+01 0.  1.
         11    1    4    4    0    0  0.14528571740E+02 -0.15299060655E+03 -0.12204134719E+03  0.19624295022E+03  0.00000000000E+00 0. -1.
        -12    1    4    4    0    0  0.24148663552E+02 -0.66517931670E+02 -0.14197391415E+03  0.15863286382E+03  0.00000000000E+00 0.  1.
</event>
<event>
12    1  0.8406581E-002  0.2743707E+03  0.7818608E-02  0.1098945E+00
         21   -1    0    0  501  502  0.00000000000E+00  0.00000000000E+00  0.38762406083E+03  0.38762406083E+03  0.00000000000E+00 0. -1.
         21   -1    0    0  502  503 -0.00000000000E+00 -0.00000000000E+00 -0.22961131569E+03  0.22961131569E+03  0.00000000000E+00 0. -1.
         -6    2    1    2    0  503  0.14127319029E+03 -0.16090868560E+03 -0.43269185302E+02  0.27776156193E+03  0.17155041095E+03 0.  0.
        -24    2    3    3    0    0  0.13508549780E+03 -0.10928897674E+03  0.21191144958E+02  0.19481515720E+03  0.85508529969E+02 0.  0.
          6    2    1    2  501    0 -0.14127319029E+03  0.16090868560E+03  0.20128193044E+03  0.33947381459E+03  0.16993627004E+03 0.  0.
         24    2    5    5    0    0 -0.11360200661E+03  0.35174524404E+02  0.95622152335E+02  0.17285793177E+03  0.81201019001E+02 0.  0.
          5    1    5    5  501    0 -0.27671183676E+02  0.12573416119E+03  0.10565977811E+03  0.16661588281E+03  0.47000000000E+01 0. -1.
        -11    1    6    6    0    0 -0.69716612827E+02  0.29156828748E+02  0.96978801174E+01  0.76187765720E+02  0.00000000000E+00 0.  1.
         12    1    6    6    0    0 -0.43885393784E+02  0.60176956555E+01  0.85924272218E+02  0.96670166053E+02  0.00000000000E+00 0. -1.
         -5    1    3    3    0  503  0.61876924841E+01 -0.51619708854E+02 -0.64460330260E+02  0.82946404730E+02  0.47000000000E+01 0.  1.
         11    1    4    4    0    0  0.14314009346E+03 -0.83292560722E+02  0.11820541863E+02  0.16603150977E+03  0.00000000000E+00 0. -1.
        -12    1    4    4    0    0 -0.80545956567E+01 -0.25996416020E+02  0.93706030946E+01  0.28783647431E+02  0.00000000000E+00 0.  1.
</event>
<event>
12    1  0.8406581E-002  0.1710765E+03  0.7818608E-02  0.1177664E+00
         21   -1    0    0  503  502  0.00000000000E+00  0.00000000000E+00  0.26988096937E+03  0.26988096937E+03  0.00000000000E+00 0. -1.
         21   -1    0    0  501  503 -0.00000000000E+00 -0.00000000000E+00 -0.25353635541E+03  0.25353635541E+03  0.00000000000E+00 0. -1.
          6    2    1    2  501    0  0.34877015134E+02  0.11072115480E+02 -0.19136839827E+03  0.25432280264E+03  0.16346016689E+03 0.  0.
         24    2    3    3    0    0 -0.24568883298E+02 -0.24327346423E+02 -0.59570173602E+02  0.10539396471E+03  0.79773632253E+02 0.  0.
         -6    2    1    2    0  502 -0.34877015134E+02 -0.11072115480E+02  0.20771301223E+03  0.26909452214E+03  0.16711722973E+03 0.  0.
        -24    2    5    5    0    0 -0.24711683441E+02  0.56784939791E+02  0.10679106010E+03  0.14696653869E+03  0.79747327815E+02 0.  0.
          5    1    3    3  501    0  0.59445898433E+02  0.35399461903E+02 -0.13179822467E+03  0.14892883794E+03  0.47000000000E+01 0. -1.
        -11    1    4    4    0    0 -0.99640867986E+01 -0.21206067187E+02  0.15993539735E+02  0.28368532294E+02  0.00000000000E+00 0.  1.
         12    1    4    4    0    0 -0.14604796500E+02 -0.31212792360E+01 -0.75563713337E+02  0.77025432411E+02  0.00000000000E+00 0. -1.
         -5    1    5    5    0  502 -0.10165331693E+02 -0.67857055271E+02  0.10092195214E+03  0.12212798345E+03  0.47000000000E+01 0.  1.
         13    1    6    6    0    0 -0.59929937017E+01  0.39882606118E+02  0.11384540326E+03  0.12077795365E+03  0.00000000000E+00 0. -1.
        -14    1    6    6    0    0 -0.18718689739E+02  0.16902333673E+02 -0.70543431643E+01  0.26188585045E+02  0.00000000000E+00 0.  1.
</event>
<event>
12    1  0.8406581E-002  0.2263920E+03  0.7818608E-02  0.1129227E+00
         21   -1    0    0  501  502  0.00000000000E+00  0.00000000000E+00  0.17397432190E+03  0.17397432190E+03  0.00000000000E+00 0.  1.
         21   -1    0    0  502  503 -0.00000000000E+00 -0.00000000000E+00 -0.76785888591E+03  0.76785888591E+03  0.00000000000E+00 0.  1.
         -6    2    1    2    0  503 -0.20934560997E+02 -0.14751915781E+03 -0.66667479711E+03  0.70402703583E+03  0.17028982448E+03 0.  0.
        -24    2    3    3    0    0 -0.76632837129E+02 -0.11396044720E+03 -0.50807926198E+03  0.53255365952E+03  0.81297531104E+02 0.  0.
          6    2    1    2  501    0  0.20934560997E+02  0.14751915781E+03  0.72790233096E+02  0.23780617197E+03  0.17044999157E+03 0.  0.
         24    2    5    5    0    0  0.26473591461E+02  0.69805705571E+02  0.10824915126E+03  0.15207702643E+03  0.76392772202E+02 0.  0.
          5    1    5    5  501    0 -0.55390304632E+01  0.77713452243E+02 -0.35458918162E+02  0.85729145542E+02  0.47000000000E+01 0. -1.
        -13    1    6    6    0    0  0.42106978777E+02  0.66318249379E+02  0.53527975220E+02  0.95059728558E+02  0.00000000000E+00 0.  1.
         14    1    6    6    0    0 -0.15633387317E+02  0.34874561922E+01  0.54721176038E+02  0.57017297872E+02  0.00000000000E+00 0. -1.
         -5    1    3    3    0  503  0.55698276131E+02 -0.33558710619E+02 -0.15859553512E+03  0.17147337631E+03  0.47000000000E+01 0.  1.
         11    1    4    4    0    0 -0.62886173610E+02 -0.55716862583E+02 -0.40266582310E+03  0.41133782309E+03  0.00000000000E+00 0. -1.
        -12    1    4    4    0    0 -0.13746663519E+02 -0.58243584612E+02 -0.10541343888E+03  0.12121583643E+03  0.00000000000E+00 0.  1.
</event>
<event>
12    1  0.8406581E-002  0.1998999E+03  0.7818608E-02  0.1150143E+00
         21   -1    0    0  501  502  0.00000000000E+00  0.00000000000E+00  0.43121453070E+03  0.43121453070E+03  0.00000000000E+00 0. -1.
         21   -1    0    0  502  503 -0.00000000000E+00 -0.00000000000E+00 -0.21595712921E+03  0.21595712921E+03  0.00000000000E+00 0. -1.
         -6    2    1    2    0  503 -0.53892408507E+02  0.86040703692E+02 -0.13772701571E+03  0.24151421024E+03  0.17044937225E+03 0.  0.
        -24    2    3    3    0    0  0.45711537875E+01  0.73439915251E+02 -0.32675011582E+02  0.12053990901E+03  0.89710070131E+02 0.  0.
          6    2    1    2  501    0  0.53892408507E+02 -0.86040703692E+02  0.35298441720E+03  0.40565744968E+03  0.17219922563E+03 0.  0.
         24    2    5    5    0    0  0.71603669063E+02 -0.33990738464E+01  0.14003168079E+03  0.17649749315E+03  0.80024085970E+02 0.  0.
          5    1    5    5  501    0 -0.17711260555E+02 -0.82641629845E+02  0.21295273641E+03  0.22915995653E+03  0.47000000000E+01 0. -1.
        -13    1    6    6    0    0  0.36682389384E+02 -0.40904018728E+02  0.58997105272E+02  0.80618824536E+02  0.00000000000E+00 0.  1.
         14    1    6    6    0    0  0.34921279679E+02  0.37504944882E+02  0.81034575518E+02  0.95878668610E+02  0.00000000000E+00 0. -1.
         -5    1    3    3    0  503 -0.58463562295E+02  0.12600788440E+02 -0.10505200413E+03  0.12097430123E+03  0.47000000000E+01 0.  1.
         13    1    4    4    0    0 -0.37449173850E+02  0.11785765184E+02 -0.22464068576E+02  0.45232502252E+02  0.00000000000E+00 0. -1.
        -14    1    4    4    0    0  0.42020327638E+02  0.61654150067E+02 -0.10210943007E+02  0.75307406757E+02  0.00000000000E+00 0.  1.
</event>
<event>
12    1  0.8406581E-002  0.1773861E+03  0.7818608E-02  0.1170709E+00
         21   -1    0    0  501  502  0.00000000000E+00  0.00000000000E+00  0.39945928117E+02  0.39945928117E+02  0.00000000000E+00 0.  1.
         21   -1    0    0  502  503 -0.00000000000E+00 -0.00000000000E+00 -0.80846361496E+03  0.80846361496E+03  0.00000000000E+00 0.  1.
         -6    2    1    2    0  503 -0.22939313949E+02  0.29694905205E+02 -0.46037037887E+03  0.49285281236E+03  0.17191570432E+03 0.  0.
        -24    2    3    3    0    0 -0.53169042131E+02 -0.80205307639E+01 -0.11569386189E+03  0.14477195691E+03  0.68429334886E+02 0.  0.
          6    2    1    2  501    0  0.22939313949E+02 -0.29694905205E+02 -0.30814730798E+03  0.35555673072E+03  0.17337192917E+03 0.  0.
         24    2    5    5    0    0 -0.27063681409E+02 -0.57561645309E+02 -0.11363016555E+03  0.15273695001E+03  0.79818390819E+02 0.  0.
          5    1    5    5  501    0  0.50002995359E+02  0.27866740104E+02 -0.19451714243E+03  0.20281978071E+03  0.47000000000E+01 0. -1.
        -11    1    6    6    0    0 -0.48234786847E+02 -0.41611809937E+02 -0.10837963909E+03  0.12571508882E+03  0.00000000000E+00 0.  1.
         12    1    6    6    0    0  0.21171105438E+02 -0.15949835372E+02 -0.52505264603E+01  0.27021861186E+02  0.00000000000E+00 0. -1.
         -5    1    3    3    0  503  0.30229728182E+02  0.37715435969E+02 -0.34467651698E+03  0.34808085545E+03  0.47000000000E+01 0.  1.
         11    1    4    4    0    0 -0.22225682183E+02 -0.14599556604E+02 -0.18967062597E+01  0.26659435407E+02  0.00000000000E+00 0. -1.
        -12    1    4    4    0    0 -0.30943359948E+02  0.65790258406E+01 -0.11379715563E+03  0.11811252150E+03  0.00000000000E+00 0.  1.
</event>
<event>
12    1  0.8406581E-002  0.6546707E+03  0.7818608E-02  0.9799271E-01
         21   -1    0    0  503  502  0.00000000000E+00  0.00000000000E+00  0.96969367497E+03  0.96969367497E+03  0.00000000000E+00 0. -1.
         21   -1    0    0  501  503 -0.00000000000E+00 -0.00000000000E+00 -0.83975050879E+03  0.83975050879E+03  0.00000000000E+00 0.  1.
          6    2    1    2  501    0 -0.46647622788E+03  0.42192040815E+03 -0.55899800850E+03  0.86085564567E+03  0.18159506376E+03 0.  0.
         24    2    3    3    0    0 -0.26325427717E+03  0.32165098146E+03 -0.42559465807E+03  0.59785058282E+03  0.59433476078E+02 0.  0.
         -6    2    1    2    0  502  0.46647622788E+03 -0.42192040815E+03  0.68894117468E+03  0.94858853808E+03  0.17194001981E+03 0.  0.
        -24    2    5    5    0    0  0.23714808127E+03 -0.29829264954E+03  0.37359087256E+03  0.53951259822E+03  0.79284212517E+02 0.  0.
          5    1    3    3  501    0 -0.20322195071E+03  0.10026942670E+03 -0.13340335044E+03  0.26300506285E+03  0.47000000000E+01 0. -1.
        -13    1    4    4    0    0 -0.14247123647E+03  0.13327038537E+03 -0.21897452416E+03  0.29327272473E+03  0.00000000000E+00 0.  1.
         14    1    4    4    0    0 -0.12078304070E+03  0.18838059609E+03 -0.20662013391E+03  0.30457785809E+03  0.00000000000E+00 0. -1.
         -5    1    5    5    0  502  0.22932814661E+03 -0.12362775861E+03  0.31535030212E+03  0.40907593986E+03  0.47000000000E+01 0.  1.
         13    1    6    6    0    0  0.23673688615E+03 -0.30174580288E+03  0.37436325629E+03  0.53595030598E+03  0.00000000000E+00 0. -1.
        -14    1    6    6    0    0  0.41119512657E+00  0.34531533372E+01 -0.77238372719E+00  0.35622922430E+01  0.00000000000E+00 0.  1.
</event>
<event>
12    1  0.8406581E-002  0.3022067E+03  0.7818608E-02  0.1084234E+00
         21   -1    0    0  501  502  0.00000000000E+00  0.00000000000E+00  0.21603275801E+03  0.21603275801E+03  0.00000000000E+00 0. -1.
         21   -1    0    0  502  503 -0.00000000000E+00 -0.00000000000E+00 -0.53779934261E+03  0.53779934261E+03  0.00000000000E+00 0.  1.
         -6    2    1    2    0  503 -0.24068222842E+03  0.55082259739E+02  0.14376226692E+02  0.30181342812E+03  0.17298173050E+03 0.  0.
        -24    2    3    3    0    0 -0.24824012503E+03  0.59831477232E+02 -0.18640003557E+02  0.26729041655E+03  0.76770773750E+02 0.  0.
          6    2    1    2  501    0  0.24068222842E+03 -0.55082259739E+02 -0.33614281129E+03  0.45201867251E+03  0.17426101200E+03 0.  0.
         24    2    5    5    0    0  0.20704801361E+03 -0.62223684308E+02 -0.17901518334E+03  0.29110427969E+03  0.77166047987E+02 0.  0.
          5    1    5    5  501    0  0.33634214810E+02  0.71414245687E+01 -0.15712762795E+03  0.16091439282E+03  0.47000000000E+01 0. -1.
        -11    1    6    6    0    0  0.35658392120E+02 -0.21078151027E+02 -0.77044485951E+02  0.87473780042E+02  0.00000000000E+00 0.  1.
         12    1    6    6    0    0  0.17138962149E+03 -0.41145533281E+02 -0.10197069739E+03  0.20363049965E+03  0.00000000000E+00 0. -1.
         -5    1    3    3    0  503  0.75578966150E+01 -0.47492174936E+01  0.33016230249E+02  0.34523011571E+02  0.47000000000E+01 0. -1.
         13    1    4    4    0    0 -0.15495094524E+03  0.69829488733E+02  0.67486135242E+01  0.17009261216E+03  0.00000000000E+00 0. -1.
        -14    1    4    4    0    0 -0.93289179790E+02 -0.99980115009E+01 -0.25388617082E+02  0.97197804385E+02  0.00000000000E+00 0.  1.
</event>
<event>
12    1  0.8406581E-002  0.1917251E+03  0.7818608E-02  0.1161072E+00
         21   -1    0    0  503  502  0.00000000000E+00  0.00000000000E+00  0.15582570892E+04  0.15582570892E+04  0.00000000000E+00 0.  1.
         21   -1    0    0  501  503 -0.00000000000E+00 -0.00000000000E+00 -0.41564090052E+02  0.41564090052E+02  0.00000000000E+00 0.  1.
          6    2    1    2  501    0 -0.12000472913E+02 -0.71917218476E+00  0.22133193865E+03  0.29282474868E+03  0.19134779282E+03 0.  0.
         24    2    3    3    0    0  0.60969857232E+02  0.29583416353E+02  0.16649222945E+03  0.19653144851E+03  0.79450901644E+02 0.  0.
         -6    2    1    2    0  502  0.12000472913E+02  0.71917218476E+00  0.12953610605E+04  0.13069964306E+04  0.17359396274E+03 0.  0.
        -24    2    5    5    0    0 -0.54260040172E+01  0.17570989582E+01  0.29783932712E+03  0.30931087993E+03  0.83261195924E+02 0.  0.
          5    1    3    3  501    0 -0.72970330144E+02 -0.30302588538E+02  0.54839709202E+02  0.96293300177E+02  0.47000000000E+01 0. -1.
        -11    1    4    4    0    0  0.38725780267E+02  0.22109100596E+02  0.21234235665E+02  0.49390192860E+02  0.00000000000E+00 0.  1.
         12    1    4    4    0    0  0.22244076965E+02  0.74743157577E+01  0.14525799378E+03  0.14714125565E+03  0.00000000000E+00 0. -1.
         -5    1    5    5    0  502  0.17426476930E+02 -0.10379267735E+01  0.99752173339E+03  0.99768555065E+03  0.47000000000E+01 0.  1.
         11    1    6    6    0    0 -0.45405505131E+01 -0.36053395692E+02  0.75641282447E+02  0.83917027772E+02  0.00000000000E+00 0. -1.
        -12    1    6    6    0    0 -0.88545350406E+00  0.37810494650E+02  0.22219804467E+03  0.22539385216E+03  0.00000000000E+00 0.  1.
</event>
<event>
12    1  0.8406581E-002  0.1775677E+03  0.7818608E-02  0.1172502E+00
         21   -1    0    0  503  502  0.00000000000E+00  0.00000000000E+00  0.33408771053E+02  0.33408771053E+02  0.00000000000E+00 0. -1.
         21   -1    0    0  501  503 -0.00000000000E+00 -0.00000000000E+00 -0.89565258930E+03  0.89565258930E+03  0.00000000000E+00 0. -1.
          6    2    1    2  501    0 -0.34939527520E+02  0.17232411414E+02 -0.41856989174E+03  0.45117344973E+03  0.16382613005E+03 0.  0.
         24    2    3    3    0    0 -0.69640570331E+01 -0.50139164105E+02 -0.25799008975E+03  0.27473785541E+03  0.79746905385E+02 0.  0.
         -6    2    1    2    0  502  0.34939527520E+02 -0.17232411414E+02 -0.44367392651E+03  0.47788791063E+03  0.17324137921E+03 0.  0.
        -24    2    5    5    0    0 -0.39631882649E+02 -0.70551983175E+00 -0.32475376738E+03  0.33647317445E+03  0.78600278725E+02 0.  0.
          5    1    3    3  501    0 -0.27975470487E+02  0.67371575519E+02 -0.16057980198E+03  0.17643559432E+03  0.47000000000E+01 0. -1.
        -13    1    4    4    0    0 -0.15196149739E+02 -0.59800470353E+02 -0.10934775637E+03  0.12555457397E+03  0.00000000000E+00 0.  1.
         14    1    4    4    0    0  0.82320927059E+01  0.96613062477E+01 -0.14864233339E+03  0.14918328145E+03  0.00000000000E+00 0. -1.
         -5    1    5    5    0  502  0.74571410169E+02 -0.16526891582E+02 -0.11892015913E+03  0.14141473618E+03  0.47000000000E+01 0.  1.
         13    1    6    6    0    0  0.12034033802E+02 -0.18614022485E+02 -0.18627570815E+03  0.18758981649E+03  0.00000000000E+00 0. -1.
        -14    1    6    6    0    0 -0.51665916451E+02  0.17908502653E+02 -0.13847805923E+03  0.14888335796E+03  0.00000000000E+00 0.  1.
</event>
<event>
12    1  0.8406581E-002  0.2266732E+03  0.7818608E-02  0.1129102E+00
         21   -1    0    0  503  502  0.00000000000E+00  0.00000000000E+00  0.10483535973E+04  0.10483535973E+04  0.00000000000E+00 0. -1.
         21   -1    0    0  501  503 -0.00000000000E+00 -0.00000000000E+00 -0.67411649482E+02  0.67411649482E+02  0.00000000000E+00 0. -1.
          6    2    1    2  501    0 -0.14672705051E+03 -0.14370008187E+02  0.19849545627E+03  0.30129919723E+03  0.17217849926E+03 0.  0.
         24    2    3    3    0    0 -0.99796214182E+02  0.20031591294E+02  0.20594264171E+03  0.24244748515E+03  0.77510401643E+02 0.  0.
         -6    2    1    2    0  502  0.14672705051E+03  0.14370008187E+02  0.78244649158E+03  0.81446604958E+03  0.17145585219E+03 0.  0.
        -24    2    5    5    0    0  0.10754710772E+03 -0.48010229924E+02  0.62020940147E+03  0.63622653255E+03  0.79076775959E+02 0.  0.
          5    1    3    3  501    0 -0.46930836323E+02 -0.34401599481E+02 -0.74471854407E+01  0.58851712089E+02  0.47000000000E+01 0. -1.
        -11    1    4    4    0    0 -0.10412563320E+03  0.21219807908E+02  0.21065394413E+03  0.23593963617E+03  0.00000000000E+00 0.  1.
         12    1    4    4    0    0  0.43294190197E+01 -0.11882166142E+01 -0.47113024211E+01  0.65078489744E+01  0.00000000000E+00 0. -1.
         -5    1    5    5    0  502  0.39179942783E+02  0.62380238110E+02  0.16223709010E+03  0.17823951702E+03  0.47000000000E+01 0.  1.
         13    1    6    6    0    0  0.45844147868E+02 -0.31605281362E+02  0.46611015433E+03  0.46942438759E+03  0.00000000000E+00 0. -1.
        -14    1    6    6    0    0  0.61702959855E+02 -0.16404948562E+02  0.15409924715E+03  0.16680214496E+03  0.00000000000E+00 0.  1.
</event>
<event>
12    1  0.8406581E-002  0.1939231E+03  0.7818608E-02  0.1155680E+00
         21   -1    0    0  503  502  0.00000000000E+00  0.00000000000E+00  0.45639734088E+03  0.45639734088E+03  0.00000000000E+00 0.  1.
         21   -1    0    0  501  503 -0.00000000000E+00 -0.00000000000E+00 -0.82310009363E+02  0.82310009363E+02  0.00000000000E+00 0.  1.
          6    2    1    2  501    0 -0.70918053275E+02 -0.47767150087E+02  0.15207971163E+03  0.24393024450E+03  0.17047772460E+03 0.  0.
         24    2    3    3    0    0 -0.77245971971E+02 -0.44969892062E+02  0.33260004198E+02  0.12481651699E+03  0.80521448425E+02 0.  0.
         -6    2    1    2    0  502  0.70918053275E+02  0.47767150087E+02  0.22200761989E+03  0.29477710574E+03  0.17405484157E+03 0.  0.
        -24    2    5    5    0    0  0.57372554511E+02  0.60443395332E+01  0.38238015904E+02  0.10578601917E+03  0.80002449582E+02 0.  0.
          5    1    3    3  501    0  0.63279186953E+01 -0.27972580251E+01  0.11881970743E+03  0.11911372751E+03  0.47000000000E+01 0. -1.
        -13    1    4    4    0    0 -0.28716065002E+02 -0.47964276265E+02 -0.13335802808E+02  0.57471974243E+02  0.00000000000E+00 0.  1.
         14    1    4    4    0    0 -0.48529906969E+02  0.29943842038E+01  0.46595807006E+02  0.67344542746E+02  0.00000000000E+00 0. -1.
         -5    1    5    5    0  502  0.13545498765E+02  0.41722810553E+02  0.18376960398E+03  0.18899108658E+03  0.47000000000E+01 0.  1.
         11    1    6    6    0    0  0.33021749915E+02  0.51338188379E+01  0.62830778886E+02  0.71165292375E+02  0.00000000000E+00 0. -1.
        -12    1    6    6    0    0  0.24350804596E+02  0.91052069527E+00 -0.24592762982E+02  0.34620726791E+02  0.00000000000E+00 0.  1.
</event>
<event>
12    1  0.8406581E-002  0.2471396E+03  0.7818608E-02  0.1115310E+00
         21   -1    0    0  503  502  0.00000000000E+00  0.00000000000E+00  0.10904090956E+03  0.10904090956E+03  0.00000000000E+00 0.  1.
         21   -1    0    0  501  503 -0.00000000000E+00 -0.00000000000E+00 -0.56653365923E+03  0.56653365923E+03  0.00000000000E+00 0. -1.
          6    2    1    2  501    0 -0.13179839503E+03 -0.11747626671E+03 -0.27076170915E+03  0.36582232484E+03  0.17129676013E+03 0.  0.
         24    2    3    3    0    0 -0.66146790123E+02 -0.53748988082E+01 -0.18076905402E+03  0.20771597490E+03  0.77872896164E+02 0.  0.
         -6    2    1    2    0  502  0.13179839503E+03  0.11747626671E+03 -0.18673104052E+03  0.30975224396E+03  0.17293490385E+03 0.  0.
        -24    2    5    5    0    0  0.73936322932E+02  0.38756840956E+02 -0.17694645647E+03  0.21145374212E+03  0.80211994307E+02 0.  0.
          5    1    3    3  501    0 -0.65651604907E+02 -0.11210136790E+03 -0.89992655138E+02  0.15810634994E+03  0.47000000000E+01 0. -1.
        -13    1    4    4    0    0 -0.66640959721E+02 -0.22002709850E+02 -0.83684082046E+02  0.10921612675E+03  0.00000000000E+00 0.  1.
         14    1    4    4    0    0  0.49416959813E+00  0.16627811042E+02 -0.97084971970E+02  0.98499848152E+02  0.00000000000E+00 0. -1.
         -5    1    5    5    0  502  0.57862072098E+02  0.78719425753E+02 -0.97845840556E+01  0.98298501837E+02  0.47000000000E+01 0.  1.
         11    1    6    6    0    0  0.35886023228E+02  0.60905478254E+02 -0.94832629231E+02  0.11828149268E+03  0.00000000000E+00 0. -1.
        -12    1    6    6    0    0  0.38050299705E+02 -0.22148637298E+02 -0.82113827235E+02  0.93172249436E+02  0.00000000000E+00 0.  1.
</event>
<event>
12    1  0.8406581E-002  0.2051097E+03  0.7818608E-02  0.1146255E+00
         21   -1    0    0  503  502  0.00000000000E+00  0.00000000000E+00  0.14520668946E+04  0.14520668946E+04  0.00000000000E+00 0. -1.
         21   -1    0    0  501  503 -0.00000000000E+00 -0.00000000000E+00 -0.28535014827E+02  0.28535014827E+02  0.00000000000E+00 0. -1.
          6    2    1    2  501    0 -0.74637050532E+02  0.74004066890E+02  0.67933404845E+03  0.70962294488E+03  0.17613257306E+03 0.  0.
         24    2    3    3    0    0 -0.10798742963E+03  0.18127604539E+02  0.51924636904E+03  0.53675136848E+03  0.80593701935E+02 0.  0.
         -6    2    1    2    0  502  0.74637050532E+02 -0.74004066890E+02  0.74419783137E+03  0.77097896459E+03  0.17184545499E+03 0.  0.
        -24    2    5    5    0    0  0.25872604638E+02 -0.39822650864E+02  0.66530051138E+03  0.67201827802E+03  0.82027802366E+02 0.  0.
          5    1    3    3  501    0  0.33350379102E+02  0.55876462351E+02  0.16008767941E+03  0.17287157641E+03  0.47000000000E+01 0. -1.
        -13    1    4    4    0    0 -0.89154093907E+02  0.45676168497E+02  0.42878804277E+03  0.44033390791E+03  0.00000000000E+00 0.  1.
         14    1    4    4    0    0 -0.18833335728E+02 -0.27548563958E+02  0.90458326273E+02  0.96417460571E+02  0.00000000000E+00 0. -1.
         -5    1    5    5    0  502  0.48764445894E+02 -0.34181416026E+02  0.78897319992E+02  0.98960686573E+02  0.47000000000E+01 0.  1.
         13    1    6    6    0    0 -0.15170259529E+02  0.17123482728E+02  0.11451341497E+03  0.11677616470E+03  0.00000000000E+00 0. -1.
        -14    1    6    6    0    0  0.41042864167E+02 -0.56946133592E+02  0.55078709641E+03  0.55524211332E+03  0.00000000000E+00 0.  1.
</event>
<event>
12    1  0.8406581E-002  0.1760851E+03  0.7818608E-02  0.1171768E+00
         21   -1    0    0  503  502  0.00000000000E+00  0.00000000000E+00  0.39176694564E+03  0.39176694564E+03  0.00000000000E+00 0. -1.
         21   -1    0    0  501  503 -0.00000000000E+00 -0.00000000000E+00 -0.15091777075E+03  0.15091777075E+03  0.00000000000E+00 0. -1.
          6    2    1    2  501    0 -0.73133710423E+01  0.32374042848E+02 -0.66897279040E+02  0.18836452298E+03  0.17292883949E+03 0.  0.
         24    2    3    3    0    0  0.57932877911E+02  0.27307976935E+01 -0.20015910465E+02  0.10259886723E+03  0.82232689889E+02 0.  0.
         -6    2    1    2    0  502  0.73133710423E+01 -0.32374042848E+02  0.30774645392E+03  0.35432019342E+03  0.17243362640E+03 0.  0.
        -24    2    5    5    0    0 -0.18727264657E+02  0.45358395024E+02  0.16847912806E+03  0.19264791793E+03  0.79497856910E+02 0.  0.
          5    1    3    3  501    0 -0.65246248953E+02  0.29643245154E+02 -0.46881368575E+02  0.85765655744E+02  0.47000000000E+01 0. -1.
        -13    1    4    4    0    0  0.13490806811E+02 -0.23261002709E+02  0.23096248940E+02  0.35447324730E+02  0.00000000000E+00 0.  1.
         14    1    4    4    0    0  0.44442071100E+02  0.25991800402E+02 -0.43112159404E+02  0.67151542501E+02  0.00000000000E+00 0. -1.
         -5    1    5    5    0  502  0.26040635699E+02 -0.77732437871E+02  0.13926732587E+03  0.16167227548E+03  0.47000000000E+01 0.  1.
         13    1    6    6    0    0 -0.41440179808E+02  0.13632518022E+01  0.99000891624E+02  0.10733276993E+03  0.00000000000E+00 0. -1.
        -14    1    6    6    0    0  0.22712915151E+02  0.43995143221E+02  0.69478236433E+02  0.85315148007E+02  0.00000000000E+00 0.  1.
</event>
<event>
12    1  0.8406581E-002  0.1915880E+03  0.7818608E-02  0.1157064E+00
         21   -1    0    0  501  502  0.00000000000E+00  0.00000000000E+00  0.29828802116E+02  0.29828802116E+02  0.00000000000E+00 0. -1.
         21   -1    0    0  502  503 -0.00000000000E+00 -0.00000000000E+00 -0.13765735197E+04  0.13765735197E+04  0.00000000000E+00 0. -1.
         -6    2    1    2    0  503 -0.21538538454E+02  0.79634706038E+02 -0.90281401866E+03  0.92289385682E+03  0.17278403753E+03 0.  0.
        -24    2    3    3    0    0 -0.16313780015E+02  0.45967873252E+00 -0.70138445617E+03  0.70634838425E+03  0.81984961072E+02 0.  0.
          6    2    1    2  501    0  0.21538538454E+02 -0.79634706038E+02 -0.44393069896E+03  0.48350846503E+03  0.17291724967E+03 0.  0.
         24    2    5    5    0    0  0.70793105143E+02 -0.43833453779E+02 -0.37022521780E+03  0.38778840466E+03  0.79875524990E+02 0.  0.
          5    1    5    5  501    0 -0.49254566689E+02 -0.35801252259E+02 -0.73705481158E+02  0.95720060362E+02  0.47000000000E+01 0. -1.
        -11    1    6    6    0    0  0.30726577076E+02  0.19308008307E+02 -0.76162286208E+02  0.84365962118E+02  0.00000000000E+00 0.  1.
         12    1    6    6    0    0  0.40066528068E+02 -0.63141462087E+02 -0.29406293159E+03  0.30342244255E+03  0.00000000000E+00 0. -1.
         -5    1    3    3    0  503 -0.52247584392E+01  0.79175027305E+02 -0.20142956249E+03  0.21654547258E+03  0.47000000000E+01 0.  1.
         11    1    4    4    0    0 -0.40543420776E+02  0.85170547203E+01 -0.19655273913E+03  0.20087132312E+03  0.00000000000E+00 0. -1.
        -12    1    4    4    0    0  0.24229640761E+02 -0.80573759878E+01 -0.50483171704E+03  0.50547706113E+03  0.00000000000E+00 0.  1.
</event>
<event>
12    1  0.8406581E-002  0.1820863E+03  0.7818608E-02  0.1167187E+00
         21   -1    0    0  501  502  0.00000000000E+00  0.00000000000E+00  0.85669069164E+02  0.85669069164E+02  0.00000000000E+00 0.  1.
         21   -1    0    0  502  503 -0.00000000000E+00 -0.00000000000E+00 -0.40167392152E+03  0.40167392152E+03  0.00000000000E+00 0.  1.
         -6    2    1    2    0  503  0.43999983537E+01  0.58530708445E+02 -0.97508031951E+02  0.20655077032E+03  0.17236647182E+03 0.  0.
        -24    2    3    3    0    0  0.33442306454E+02 -0.27771704178E+02 -0.44924994176E+02  0.10129570894E+03  0.79705144971E+02 0.  0.
          6    2    1    2  501    0 -0.43999983537E+01 -0.58530708445E+02 -0.21849682041E+03  0.28079222036E+03  0.16630756649E+03 0.  0.
         24    2    5    5    0    0 -0.20361379773E+02 -0.44065050080E+02 -0.41238078153E+02  0.10216755053E+03  0.79883132550E+02 0.  0.
          5    1    5    5  501    0  0.15961381419E+02 -0.14465658365E+02 -0.17725874225E+03  0.17862466984E+03  0.47000000000E+01 0. -1.
        -11    1    6    6    0    0 -0.14347719800E+02  0.78159390740E+01  0.17246463473E+02  0.23756819429E+02  0.00000000000E+00 0.  1.
         12    1    6    6    0    0 -0.60136599730E+01 -0.51880989155E+02 -0.58484541626E+02  0.78410731097E+02  0.00000000000E+00 0. -1.
         -5    1    3    3    0  503 -0.29042308100E+02  0.86302412623E+02 -0.52583037774E+02  0.10525506138E+03  0.47000000000E+01 0.  1.
         11    1    4    4    0    0  0.46667923622E+01 -0.32060320346E+02 -0.60253370639E+02  0.68411342371E+02  0.00000000000E+00 0. -1.
        -12    1    4    4    0    0  0.28775514092E+02  0.42886161686E+01  0.15328376463E+02  0.32884366573E+02  0.00000000000E+00 0.  1.
</event>
<event>
12    1  0.8406581E-002  0.2154249E+03  0.7818608E-02  0.1137344E+00
         21   -1    0    0  501  502  0.00000000000E+00  0.00000000000E+00  0.20116466127E+03  0.20116466127E+03  0.00000000000E+00 0. -1.
         21   -1    0    0  502  503 -0.00000000000E+00 -0.00000000000E+00 -0.26184351242E+03  0.26184351242E+03  0.00000000000E+00 0. -1.
         -6    2    1    2    0  503 -0.44952894677E+02  0.12068717717E+03 -0.11020679855E+03  0.24196310663E+03  0.17266861049E+03 0.  0.
        -24    2    3    3    0    0 -0.61971651508E+02  0.13028382190E+03 -0.13269936879E+03  0.21180122024E+03  0.80226395777E+02 0.  0.
          6    2    1    2  501    0  0.44952894677E+02 -0.12068717717E+03  0.49527947398E+02  0.22104506706E+03  0.17268974094E+03 0.  0.
         24    2    5    5    0    0 -0.21331681502E+02 -0.30085506119E+02  0.59646117247E+02  0.10823205719E+03  0.82439921071E+02 0.  0.
          5    1    5    5  501    0  0.66284576179E+02 -0.90601671051E+02 -0.10118169849E+02  0.11281300988E+03  0.47000000000E+01 0. -1.
        -11    1    6    6    0    0 -0.18675270475E+02  0.26124011646E+02  0.32733503284E+02  0.45855337193E+02  0.00000000000E+00 0.  1.
         12    1    6    6    0    0 -0.26564110275E+01 -0.56209517766E+02  0.26912613963E+02  0.62376719995E+02  0.00000000000E+00 0. -1.
         -5    1    3    3    0  503  0.17018756831E+02 -0.95966447319E+01  0.22492570239E+02  0.30161886382E+02  0.47000000000E+01 0.  1.
         11    1    4    4    0    0 -0.51757716966E+02  0.11848143040E+03 -0.69672799720E+02  0.14687072423E+03  0.00000000000E+00 0. -1.
        -12    1    4    4    0    0 -0.10213934542E+02  0.11802391506E+02 -0.63026569072E+02  0.64930496017E+02  0.00000000000E+00 0.  1.
</event>
<event>
12    1  0.8406581E-002  0.1806336E+03  0.7818608E-02  0.1167362E+00
         21   -1    0    0  501  502  0.00000000000E+00  0.00000000000E+00  0.60086886014E+02  0.60086886014E+02  0.00000000000E+00 0. -1.
         21   -1    0    0  502  503 -0.00000000000E+00 -0.00000000000E+00 -0.99566988346E+03  0.99566988346E+03  0.00000000000E+00 0. -1.
         -6    2    1    2    0  503  0.53941055270E+02  0.13336164273E+02 -0.82404941403E+03  0.84346398069E+03  0.17113316229E+03 0.  0.
        -24    2    3    3    0    0  0.45283086866E+02  0.27614219998E+02 -0.82011401776E+03  0.82567632666E+03  0.79632224484E+02 0.  0.
          6    2    1    2  501    0 -0.53941055270E+02 -0.13336164273E+02 -0.11153358341E+03  0.21229278878E+03  0.17187494645E+03 0.  0.
         24    2    5    5    0    0  0.31475858844E+02  0.71817145517E+01 -0.83682957633E+02  0.12001722363E+03  0.79743274671E+02 0.  0.
          5    1    5    5  501    0 -0.85416914114E+02 -0.20517878825E+02 -0.27850625782E+02  0.92275565155E+02  0.47000000000E+01 0. -1.
        -11    1    6    6    0    0  0.20281997860E+02 -0.36054822420E+02 -0.39991001267E+02  0.57537725357E+02  0.00000000000E+00 0.  1.
         12    1    6    6    0    0  0.11193860984E+02  0.43236536972E+02 -0.43691956366E+02  0.62479498271E+02  0.00000000000E+00 0. -1.
         -5    1    3    3    0  503  0.86579684042E+01 -0.14278055725E+02 -0.39353962732E+01  0.17787654033E+02  0.47000000000E+01 0.  1.
         13    1    4    4    0    0  0.28904410228E+02 -0.25479078566E+02 -0.41191917913E+03  0.41371736549E+03  0.00000000000E+00 0. -1.
        -14    1    4    4    0    0  0.16378676638E+02  0.53093298564E+02 -0.40819483863E+03  0.41195896117E+03  0.00000000000E+00 0.  1.
</event>
<event>
12    1  0.8406581E-002  0.2042299E+03  0.7818608E-02  0.1146251E+00
         21   -1    0    0  501  502  0.00000000000E+00  0.00000000000E+00  0.19276590048E+03  0.19276590048E+03  0.00000000000E+00 0.  1.
         21   -1    0    0  502  503 -0.00000000000E+00 -0.00000000000E+00 -0.28983327511E+03  0.28983327511E+03  0.00000000000E+00 0. -1.
         -6    2    1    2    0  503  0.11857459752E+00  0.10905093517E+03  0.73096721060E+02  0.21676905172E+03  0.17249223354E+03 0.  0.
        -24    2    3    3    0    0  0.22668384140E+02  0.93071997331E+02  0.11270074287E+03  0.16824700613E+03  0.80183198389E+02 0.  0.
          6    2    1    2  501    0 -0.11857459752E+00 -0.10905093517E+03 -0.17016409569E+03  0.26583012387E+03  0.17267806685E+03 0.  0.
         24    2    5    5    0    0  0.32560235999E+02 -0.62190510798E+02 -0.23503533378E+02  0.10836516087E+03  0.79137623206E+02 0.  0.
          5    1    5    5  501    0 -0.32678810596E+02 -0.46860424373E+02 -0.14666056232E+03  0.15746496300E+03  0.47000000000E+01 0. -1.
        -11    1    6    6    0    0 -0.24994028464E+02 -0.31311415320E+02 -0.13569079615E+02  0.42299244790E+02  0.00000000000E+00 0.  1.
         12    1    6    6    0    0  0.57554264463E+02 -0.30879095478E+02 -0.99344537631E+01  0.66065916076E+02  0.00000000000E+00 0. -1.
         -5    1    3    3    0  503 -0.22549809543E+02  0.15978937839E+02 -0.39604021805E+02  0.48522045588E+02  0.47000000000E+01 0.  1.
         11    1    4    4    0    0  0.23648332271E+02  0.36685288113E+01 -0.57383369959E+00  0.23938066086E+02  0.00000000000E+00 0. -1.
        -12    1    4    4    0    0 -0.97994813062E+00  0.89403468520E+02  0.11327457656E+03  0.14430894005E+03  0.00000000000E+00 0.  1.
</event>
<event>
12    1  0.8406581E-002  0.2968158E+03  0.7818608E-02  0.1087065E+00
         21   -1    0    0  501  502  0.00000000000E+00  0.00000000000E+00  0.12639245153E+03  0.12639245153E+03  0.00000000000E+00 0. -1.
         21   -1    0    0  502  503 -0.00000000000E+00 -0.00000000000E+00 -0.11643565049E+04  0.11643565049E+04  0.00000000000E+00 0. -1.
         -6    2    1    2    0  503 -0.95914689163E+02 -0.21993972264E+03 -0.93054240265E+03  0.97673371694E+03  0.17471829176E+03 0.  0.
        -24    2    3    3    0    0 -0.11120517042E+03 -0.10846231858E+03 -0.67775252747E+03  0.69999228269E+03  0.80684836614E+02 0.  0.
          6    2    1    2  501    0  0.95914689163E+02  0.21993972264E+03 -0.10742165071E+03  0.31401523949E+03  0.17173540812E+03 0.  0.
         24    2    5    5    0    0  0.27878821134E+02  0.78525741816E+02 -0.11361141204E+03  0.15689364182E+03  0.69025655397E+02 0.  0.
          5    1    5    5  501    0  0.68035868029E+02  0.14141398082E+03  0.61897613240E+01  0.15712159768E+03  0.47000000000E+01 0. -1.
        -11    1    6    6    0    0 -0.18435322125E+02  0.63036153185E+01 -0.86193993827E+01  0.21304711067E+02  0.00000000000E+00 0.  1.
         12    1    6    6    0    0  0.46314143259E+02  0.72222126498E+02 -0.10499201265E+03  0.13558893075E+03  0.00000000000E+00 0. -1.
         -5    1    3    3    0  503  0.15290481253E+02 -0.11147740406E+03 -0.25278987518E+03  0.27674143424E+03  0.47000000000E+01 0.  1.
         11    1    4    4    0    0 -0.64464169000E+02 -0.92019021007E+02 -0.32713136055E+03  0.34588734636E+03  0.00000000000E+00 0. -1.
        -12    1    4    4    0    0 -0.46741001417E+02 -0.16443297575E+02 -0.35062116692E+03  0.35410493634E+03  0.00000000000E+00 0.  1.
</event>
<event>
12    1  0.8406581E-002  0.1789375E+03  0.7818608E-02  0.1169025E+00
         21   -1    0    0  503  502  0.00000000000E+00  0.00000000000E+00  0.26472293548E+03  0.26472293548E+03  0.00000000000E+00 0. -1.
         21   -1    0    0  501  503 -0.00000000000E+00 -0.00000000000E+00 -0.28577874661E+03  0.28577874661E+03  0.00000000000E+00 0. -1.
          6    2    1    2  501    0 -0.50045710379E+02 -0.63186196428E+01 -0.21990873888E+03  0.28351100493E+03  0.17168033783E+03 0.  0.
         24    2    3    3    0    0 -0.24796664946E+02 -0.10350095927E+02 -0.23647180604E+03  0.25268581571E+03  0.84907051128E+02 0.  0.
         -6    2    1    2    0  502  0.50045710379E+02  0.63186196428E+01  0.19885292776E+03  0.26699067716E+03  0.17087140408E+03 0.  0.
        -24    2    5    5    0    0 -0.32055244311E+02 -0.21353829320E+02  0.12619182266E+03  0.15381798882E+03  0.79070050358E+02 0.  0.
          5    1    3    3  501    0 -0.25249045434E+02  0.40314762843E+01  0.16563067164E+02  0.30825189216E+02  0.47000000000E+01 0. -1.
        -13    1    4    4    0    0  0.23821063353E+02 -0.19476919950E+02 -0.42272590971E+02  0.52285422609E+02  0.00000000000E+00 0.  1.
         14    1    4    4    0    0 -0.48617728298E+02  0.91268240234E+01 -0.19419921507E+03  0.20040039310E+03  0.00000000000E+00 0. -1.
         -5    1    5    5    0  502  0.82100954690E+02  0.27672448963E+02  0.72661105095E+02  0.11317268834E+03  0.47000000000E+01 0.  1.
         13    1    6    6    0    0 -0.35158281179E+01 -0.14315791932E+02  0.12341548687E+03  0.12429274052E+03  0.00000000000E+00 0. -1.
        -14    1    6    6    0    0 -0.28539416193E+02 -0.70380373880E+01  0.27763357912E+01  0.29525248303E+02  0.00000000000E+00 0.  1.
</event>
<event>
12    1  0.8406581E-002  0.1852057E+03  0.7818608E-02  0.1162875E+00
         21   -1    0    0  503  502  0.00000000000E+00  0.00000000000E+00  0.39508613913E+03  0.39508613913E+03  0.00000000000E+00 0.  1.
         21   -1    0    0  501  503 -0.00000000000E+00 -0.00000000000E+00 -0.91497608759E+02  0.91497608759E+02  0.00000000000E+00 0.  1.
          6    2    1    2  501    0 -0.67750292063E+02 -0.11493894873E+01  0.96552385512E+02  0.20879767640E+03  0.17228663138E+03 0.  0.
         24    2    3    3    0    0  0.30453268986E+02  0.10817046586E+02  0.47490076985E+02  0.98270145384E+02  0.79732703285E+02 0.  0.
         -6    2    1    2    0  502  0.67750292063E+02  0.11493894873E+01  0.20703614486E+03  0.27778607149E+03  0.17236505755E+03 0.  0.
        -24    2    5    5    0    0  0.70377843323E+02  0.48555930008E+02  0.79470459916E+02  0.14158996991E+03  0.80133927959E+02 0.  0.
          5    1    3    3  501    0 -0.98203561049E+02 -0.11966436074E+02  0.49062308527E+02  0.11052753102E+03  0.47000000000E+01 0. -1.
        -11    1    4    4    0    0 -0.56506549871E+01  0.38501277204E+01  0.59267063537E+02  0.59660189453E+02  0.00000000000E+00 0.  1.
         12    1    4    4    0    0  0.36103923973E+02  0.69669188658E+01 -0.11776986553E+02  0.38609955931E+02  0.00000000000E+00 0. -1.
         -5    1    5    5    0  502 -0.26275512599E+01 -0.47406540520E+02  0.12756568494E+03  0.13619610158E+03  0.47000000000E+01 0.  1.
         13    1    6    6    0    0 -0.16639343680E+02  0.96528267833E+01  0.31723310990E+01  0.19496371653E+02  0.00000000000E+00 0. -1.
        -14    1    6    6    0    0  0.87017187003E+02  0.38903103224E+02  0.76298128817E+02  0.12209359826E+03  0.00000000000E+00 0.  1.
</event>
<event>
12    1  0.8406581E-002  0.1949775E+03  0.7818608E-02  0.1155655E+00
         21   -1    0    0  503  502  0.00000000000E+00  0.00000000000E+00  0.61093170664E+02  0.61093170664E+02  0.00000000000E+00 0.  1.
         21   -1    0    0  501  503 -0.00000000000E+00 -0.00000000000E+00 -0.66235021951E+03  0.66235021951E+03  0.00000000000E+00 0.  1.
          6    2    1    2  501    0  0.31601986587E+02 -0.70074848879E+02 -0.40697213918E+03  0.44819283149E+03  0.17129308838E+03 0.  0.
         24    2    3    3    0    0  0.23309848898E+02 -0.11411414231E+03 -0.26863334326E+03  0.30270079950E+03  0.76801786312E+02 0.  0.
         -6    2    1    2    0  502 -0.31601986587E+02  0.70074848879E+02 -0.19428490967E+03  0.27525055869E+03  0.17918446900E+03 0.  0.
        -24    2    5    5    0    0 -0.46680300218E+02  0.10632646903E+03 -0.18824815676E+03  0.23524971006E+03  0.80129202639E+02 0.  0.
          5    1    3    3  501    0  0.82921376884E+01  0.44039293428E+02 -0.13833879593E+03  0.14549203199E+03  0.47000000000E+01 0. -1.
        -13    1    4    4    0    0 -0.22197047377E+02 -0.76903496522E+02 -0.13986074525E+03  0.16114553904E+03  0.00000000000E+00 0.  1.
         14    1    4    4    0    0  0.45506896276E+02 -0.37210645785E+02 -0.12877259801E+03  0.14155526047E+03  0.00000000000E+00 0. -1.
         -5    1    5    5    0  502  0.15078313631E+02 -0.36251620149E+02 -0.60367529080E+01  0.40000848629E+02  0.47000000000E+01 0.  1.
         11    1    6    6    0    0 -0.39240900908E+02  0.50755471350E+02 -0.16017862062E+03  0.17254899791E+03  0.00000000000E+00 0. -1.
        -12    1    6    6    0    0 -0.74393993099E+01  0.55570997678E+02 -0.28069536140E+02  0.62700712150E+02  0.00000000000E+00 0.  1.
</event>
<event>
12    1  0.8406581E-002  0.2179060E+03  0.7818608E-02  0.1135553E+00
         21   -1    0    0  503  502  0.00000000000E+00  0.00000000000E+00  0.27150936698E+03  0.27150936698E+03  0.00000000000E+00 0. -1.
         21   -1    0    0  501  503 -0.00000000000E+00 -0.00000000000E+00 -0.23616111919E+03  0.23616111919E+03  0.00000000000E+00 0.  1.
          6    2    1    2  501    0 -0.12828882549E+03 -0.36391081734E+02 -0.11208232570E+03  0.24457583297E+03  0.17167573143E+03 0.  0.
         24    2    3    3    0    0 -0.77066429667E+02  0.29291346099E+01 -0.13609746780E+03  0.17552056310E+03  0.79606111053E+02 0.  0.
         -6    2    1    2    0  502  0.12828882549E+03  0.36391081734E+02  0.14743057349E+03  0.26309465320E+03  0.17233887828E+03 0.  0.
        -24    2    5    5    0    0  0.53016590756E+02  0.67153399692E+02  0.13717450381E+03  0.18100015586E+03  0.81387185352E+02 0.  0.
          5    1    3    3  501    0 -0.51222395826E+02 -0.39320216343E+02  0.24015142100E+02  0.69055269875E+02  0.47000000000E+01 0. -1.
        -11    1    4    4    0    0 -0.49111603863E+02 -0.26678179414E+02 -0.33554796660E+02  0.65188950519E+02  0.00000000000E+00 0.  1.
         12    1    4    4    0    0 -0.27954825803E+02  0.29607314024E+02 -0.10254267114E+03  0.11033161258E+03  0.00000000000E+00 0. -1.
         -5    1    5    5    0  502  0.75272234737E+02 -0.30762317959E+02  0.10256069680E+02  0.82094497342E+02  0.47000000000E+01 0.  1.
         13    1    6    6    0    0  0.15223785127E+02  0.32537129633E+02  0.12254675971E+03  0.12770331535E+03  0.00000000000E+00 0. -1.
        -14    1    6    6    0    0  0.37792805629E+02  0.34616270059E+02  0.14627744107E+02  0.53296840505E+02  0.00000000000E+00 0.  1.
</event>
<event>
12    1  0.8406581E-002  0.2247758E+03  0.7818608E-02  0.1130802E+00
         21   -1    0    0  501  502  0.00000000000E+00  0.00000000000E+00  0.82420027319E+03  0.82420027319E+03  0.00000000000E+00 0.  1.
         21   -1    0    0  502  503 -0.00000000000E+00 -0.00000000000E+00 -0.62928228287E+02  0.62928228287E+02  0.00000000000E+00 0.  1.
         -6    2    1    2    0  503 -0.34538752625E+02  0.13780041938E+03  0.46294301277E+03  0.51359886312E+03  0.17113058788E+03 0.  0.
        -24    2    3    3    0    0  0.20926255277E+02  0.67358494803E+02  0.36355468635E+03  0.37966394882E+03  0.83651832511E+02 0.  0.
          6    2    1    2  501    0  0.34538752625E+02 -0.13780041938E+03  0.29832903213E+03  0.37352963836E+03  0.17419040818E+03 0.  0.
         24    2    5    5    0    0  0.87465865272E+02 -0.68117985148E+02  0.15424488325E+03  0.20489022169E+03  0.76799618801E+02 0.  0.
          5    1    5    5  501    0 -0.52927112646E+02 -0.69682434236E+02  0.14408414888E+03  0.16863941666E+03  0.47000000000E+01 0. -1.
        -13    1    6    6    0    0  0.76071476038E+02 -0.77444084673E+02  0.96334249600E+02  0.14513698138E+03  0.00000000000E+00 0.  1.
         14    1    6    6    0    0  0.11394389234E+02  0.93260995249E+01  0.57910633650E+02  0.59753240315E+02  0.00000000000E+00 0. -1.
         -5    1    3    3    0  503 -0.55465007903E+02  0.70441924580E+02  0.99388326419E+02  0.13393491430E+03  0.47000000000E+01 0.  1.
         13    1    4    4    0    0  0.30924897643E+02 -0.91151862054E+01  0.10176009848E+03  0.10674527416E+03  0.00000000000E+00 0. -1.
        -14    1    4    4    0    0 -0.99986423657E+01  0.76473681009E+02  0.26179458787E+03  0.27291867465E+03  0.00000000000E+00 0.  1.
</event>
<event>
12    1  0.8406581E-002  0.2167746E+03  0.7818608E-02  0.1137066E+00
         21   -1    0    0  503  502  0.00000000000E+00  0.00000000000E+00  0.36554714821E+03  0.36554714821E+03  0.00000000000E+00 0.  1.
         21   -1    0    0  501  503 -0.00000000000E+00 -0.00000000000E+00 -0.12738002286E+03  0.12738002286E+03  0.00000000000E+00 0. -1.
          6    2    1    2  501    0  0.12794231341E+03  0.17540528559E+02  0.14360756597E+03  0.26002760691E+03  0.17411007337E+03 0.  0.
         24    2    3    3    0    0  0.99075800518E+01  0.46626793009E+01  0.11505589158E+03  0.13781743798E+03  0.75072546934E+02 0.  0.
         -6    2    1    2    0  502 -0.12794231341E+03 -0.17540528559E+02  0.94559559389E+02  0.23289956416E+03  0.16918567023E+03 0.  0.
        -24    2    5    5    0    0 -0.12598267980E+03 -0.66315615145E+02  0.67569584356E+02  0.17692280123E+03  0.80415374425E+02 0.  0.
          5    1    3    3  501    0  0.11803473336E+03  0.12877849258E+02  0.28551674395E+02  0.12221016894E+03  0.47000000000E+01 0. -1.
        -13    1    4    4    0    0  0.28721105279E+02 -0.19744601771E+02  0.94634421957E+02  0.10084852506E+03  0.00000000000E+00 0.  1.
         14    1    4    4    0    0 -0.18813525228E+02  0.24407281072E+02  0.20421469619E+02  0.36968912916E+02  0.00000000000E+00 0. -1.
         -5    1    5    5    0  502 -0.19596336105E+01  0.48775086586E+02  0.26989975033E+02  0.55976762925E+02  0.47000000000E+01 0.  1.
         13    1    6    6    0    0 -0.10207210290E+03 -0.72316200702E+02  0.24756500329E+02  0.12751953334E+03  0.00000000000E+00 0. -1.
        -14    1    6    6    0    0 -0.23910576906E+02  0.60005855574E+01  0.42813084027E+02  0.49403267897E+02  0.00000000000E+00 0.  1.
</event>
<event>
12    1  0.8406581E-002  0.1994089E+03  0.7818608E-02  0.1150883E+00
         21   -1    0    0  503  502  0.00000000000E+00  0.00000000000E+00  0.18020245159E+02  0.18020245159E+02  0.00000000000E+00 0.  1.
         21   -1    0    0  501  503 -0.00000000000E+00 -0.00000000000E+00 -0.27821650196E+04  0.27821650196E+04  0.00000000000E+00 0.  1.
          6    2    1    2  501    0  0.69062652061E+02  0.68476255970E+02 -0.20287671031E+04  0.20382507451E+04  0.17062090604E+03 0.  0.
         24    2    3    3    0    0  0.95327819364E+02  0.67515125313E+02 -0.19497532847E+04  0.19548477698E+04  0.79033199215E+02 0.  0.
         -6    2    1    2    0  502 -0.69062652061E+02 -0.68476255970E+02 -0.73537767133E+03  0.76193451969E+03  0.17408401782E+03 0.  0.
        -24    2    5    5    0    0 -0.11426612739E+03 -0.36300023999E+02 -0.52192571786E+03  0.54133875698E+03  0.79162839947E+02 0.  0.
          5    1    3    3  501    0 -0.26265167304E+02  0.96113065695E+00 -0.79013818453E+02  0.83402975319E+02  0.47000000000E+01 0. -1.
        -13    1    4    4    0    0  0.53325325159E+02  0.62615672667E+01 -0.43920080360E+03  0.44247050004E+03  0.00000000000E+00 0.  1.
         14    1    4    4    0    0  0.42002494206E+02  0.61253558046E+02 -0.15105524811E+04  0.15123772697E+04  0.00000000000E+00 0. -1.
         -5    1    5    5    0  502  0.45203475333E+02 -0.32176231971E+02 -0.21345195347E+03  0.22059576271E+03  0.47000000000E+01 0.  1.
         11    1    6    6    0    0 -0.22023913022E+01 -0.30015331557E+02 -0.14334059202E+03  0.14646602329E+03  0.00000000000E+00 0. -1.
        -12    1    6    6    0    0 -0.11206373609E+03 -0.62846924412E+01 -0.37858512584E+03  0.39487273369E+03  0.00000000000E+00 0.  1.
</event>
<event>
12    1  0.8406581E-002  0.2121633E+03  0.7818608E-02  0.1140273E+00
         21   -1    0    0  501  502  0.00000000000E+00  0.00000000000E+00  0.87591374251E+02  0.87591374251E+02  0.00000000000E+00 0.  1.
         21   -1    0    0  502  503 -0.00000000000E+00 -0.00000000000E+00 -0.52149326960E+03  0.52149326960E+03  0.00000000000E+00 0. -1.
         -6    2    1    2    0  503  0.86274966523E+02 -0.84979930946E+02 -0.26329047651E+03  0.33683197786E+03  0.17166522004E+03 0.  0.
        -24    2    3    3    0    0  0.12678048667E+03 -0.78759239919E+02 -0.20415036275E+03  0.26472762837E+03  0.78275391638E+02 0.  0.
          6    2    1    2  501    0 -0.86274966523E+02  0.84979930946E+02 -0.17061141884E+03  0.27225266600E+03  0.17420763299E+03 0.  0.
         24    2    5    5    0    0 -0.52511160811E+02  0.14911859745E+02 -0.14133899862E+02  0.97447537001E+02  0.79476221421E+02 0.  0.
          5    1    5    5  501    0 -0.33763805711E+02  0.70068071201E+02 -0.15647751898E+03  0.17480512900E+03  0.47000000000E+01 0. -1.
        -11    1    6    6    0    0 -0.13842349850E+02  0.45065326400E+02 -0.35081319565E+01  0.47273684886E+02  0.00000000000E+00 0.  1.
         12    1    6    6    0    0 -0.38668810961E+02 -0.30153466655E+02 -0.10625767905E+02  0.50173852115E+02  0.00000000000E+00 0. -1.
         -5    1    3    3    0  503 -0.40505520151E+02 -0.62206910268E+01 -0.59140113761E+02  0.72104349489E+02  0.47000000000E+01 0.  1.
         11    1    4    4    0    0  0.24531740024E+02 -0.30154755838E+02 -0.11262758112E+03  0.11914733567E+03  0.00000000000E+00 0. -1.
        -12    1    4    4    0    0  0.10224874665E+03 -0.48604484081E+02 -0.91522781626E+02  0.14558029269E+03  0.00000000000E+00 0.  1.
</event>
<event>
12    1  0.8406581E-002  0.1893519E+03  0.7818608E-02  0.1161324E+00
         21   -1    0    0  503  502  0.00000000000E+00  0.00000000000E+00  0.87706193743E+03  0.87706193743E+03  0.00000000000E+00 0. -1.
         21   -1    0    0  501  503 -0.00000000000E+00 -0.00000000000E+00 -0.42754699486E+02  0.42754699486E+02  0.00000000000E+00 0.  1.
          6    2    1    2  501    0 -0.54091640735E+02 -0.30668351095E+01  0.28730650855E+03  0.34409178386E+03  0.18143542872E+03 0.  0.
         24    2    3    3    0    0  0.13765661095E+02 -0.55499684761E+02  0.12372497714E+03  0.15933566204E+03  0.82524389093E+02 0.  0.
         -6    2    1    2    0  502  0.54091640735E+02  0.30668351095E+01  0.54700072939E+03  0.57572485305E+03  0.17121330960E+03 0.  0.
        -24    2    5    5    0    0  0.78203745679E+01 -0.59525379558E+02  0.34333616924E+03  0.35764193654E+03  0.80147367984E+02 0.  0.
          5    1    3    3  501    0 -0.67857301830E+02  0.52432849651E+02  0.16358153141E+03  0.18475612182E+03  0.47000000000E+01 0. -1.
        -11    1    4    4    0    0 -0.23137637987E+02  0.56098763324E+01  0.11773521407E+02  0.26560060437E+02  0.00000000000E+00 0.  1.
         12    1    4    4    0    0  0.36903299081E+02 -0.61109561093E+02  0.11195145573E+03  0.13277560160E+03  0.00000000000E+00 0. -1.
         -5    1    5    5    0  502  0.46271266167E+02  0.62592214668E+02  0.20366456016E+03  0.21808291651E+03  0.47000000000E+01 0.  1.
         11    1    6    6    0    0 -0.35274924468E+02 -0.35271240513E+02  0.14977869335E+03  0.15786715202E+03  0.00000000000E+00 0. -1.
        -12    1    6    6    0    0  0.43095299036E+02 -0.24254139045E+02  0.19355747589E+03  0.19977478452E+03  0.00000000000E+00 0.  1.
</event>
<event>
12    1  0.8406581E-002  0.1775499E+03  0.7818608E-02  0.1171542E+00
         21   -1    0    0  503  502  0.00000000000E+00  0.00000000000E+00  0.29832782177E+03  0.29832782177E+03  0.00000000000E+00 0.  1.
         21   -1    0    0  501  503 -0.00000000000E+00 -0.00000000000E+00 -0.22029952790E+03  0.22029952790E+03  0.00000000000E+00 0.  1.
          6    2    1    2  501    0 -0.12822470253E+02 -0.54194218263E+02  0.22891011904E+03  0.28969604275E+03  0.16858981449E+03 0.  0.
         24    2    3    3    0    0 -0.15660487151E+02 -0.10040183594E+03  0.18630136069E+03  0.22660250457E+03  0.79465203493E+02 0.  0.
         -6    2    1    2    0  502  0.12822470253E+02  0.54194218263E+02 -0.15088182516E+03  0.22893130693E+03  0.16291957860E+03 0.  0.
        -24    2    5    5    0    0 -0.19271286656E+02 -0.16617439697E+02 -0.11676377469E+03  0.14389936291E+03  0.80160624833E+02 0.  0.
          5    1    3    3  501    0  0.28380168975E+01  0.46207617677E+02  0.42608758344E+02  0.63093538171E+02  0.47000000000E+01 0. -1.
        -13    1    4    4    0    0 -0.21492077780E+02 -0.24931715600E+02  0.12481253225E+03  0.12908008389E+03  0.00000000000E+00 0.  1.
         14    1    4    4    0    0  0.58315906294E+01 -0.75470120341E+02  0.61488828443E+02  0.97522420688E+02  0.00000000000E+00 0. -1.
         -5    1    5    5    0  502  0.32093756910E+02  0.70811657961E+02 -0.34118050467E+02  0.85031944017E+02  0.47000000000E+01 0.  1.
         11    1    6    6    0    0  0.14224457690E+02  0.24954842346E+02 -0.26788096713E+02  0.39276984082E+02  0.00000000000E+00 0. -1.
        -12    1    6    6    0    0 -0.33495744346E+02 -0.41572282043E+02 -0.89975677980E+02  0.10462237883E+03  0.00000000000E+00 0.  1.
</event>
<event>
12    1  0.8406581E-002  0.3430779E+03  0.7818608E-02  0.1065564E+00
         21   -1    0    0  501  502  0.00000000000E+00  0.00000000000E+00  0.10212141686E+04  0.10212141686E+04  0.00000000000E+00 0.  1.
         21   -1    0    0  502  503 -0.00000000000E+00 -0.00000000000E+00 -0.13846422686E+03  0.13846422686E+03  0.00000000000E+00 0.  1.
         -6    2    1    2    0  503  0.29531133283E+03 -0.22408367603E+02  0.20319818064E+03  0.39873792845E+03  0.17318058993E+03 0.  0.
        -24    2    3    3    0    0  0.20633687430E+03 -0.64451658841E+02  0.19156978662E+03  0.29953408700E+03  0.79326944404E+02 0.  0.
          6    2    1    2  501    0 -0.29531133283E+03  0.22408367603E+02  0.67955176110E+03  0.76094046701E+03  0.17183969296E+03 0.  0.
         24    2    5    5    0    0 -0.20647073750E+03  0.62776622605E+02  0.56699890512E+03  0.61190193917E+03  0.79781921280E+02 0.  0.
          5    1    5    5  501    0 -0.88840595334E+02 -0.40368255002E+02  0.11255285598E+03  0.14903852784E+03  0.47000000000E+01 0. -1.
        -11    1    6    6    0    0 -0.78590827353E+02 -0.11975444788E+02  0.15729137634E+03  0.17623991175E+03  0.00000000000E+00 0.  1.
         12    1    6    6    0    0 -0.12787991015E+03  0.74752067393E+02  0.40970752878E+03  0.43566202742E+03  0.00000000000E+00 0. -1.
         -5    1    3    3    0  503  0.88974458538E+02  0.42043291239E+02  0.11628394021E+02  0.99203841447E+02  0.47000000000E+01 0.  1.
         11    1    4    4    0    0  0.89874009101E+02 -0.16283550655E+01  0.11732787394E+03  0.14780331205E+03  0.00000000000E+00 0. -1.
        -12    1    4    4    0    0  0.11646286519E+03 -0.62823303776E+02  0.74241912682E+02  0.15173077494E+03  0.00000000000E+00 0.  1.
</event>
<event>
12    1  0.8406581E-002  0.1840717E+03  0.7818608E-02  0.1168895E+00
         21   -1    0    0  501  502  0.00000000000E+00  0.00000000000E+00  0.22364562467E+02  0.22364562467E+02  0.00000000000E+00 0.  1.
         21   -1    0    0  502  503 -0.00000000000E+00 -0.00000000000E+00 -0.13656408076E+04  0.13656408076E+04  0.00000000000E+00 0.  1.
         -6    2    1    2    0  503 -0.12117434370E+01  0.26571203150E+02 -0.65007770197E+03  0.67563554980E+03  0.18213972768E+03 0.  0.
        -24    2    3    3    0    0 -0.56499926161E+00  0.31002074291E+02 -0.65893252004E+03  0.66465608260E+03  0.81327697251E+02 0.  0.
          6    2    1    2  501    0  0.12117434370E+01 -0.26571203150E+02 -0.69319854319E+03  0.71236982029E+03  0.16198470119E+03 0.  0.
         24    2    5    5    0    0 -0.27900165636E+02  0.10106343399E+02 -0.61686085291E+03  0.62269106791E+03  0.79663647833E+02 0.  0.
          5    1    5    5  501    0  0.29111909073E+02 -0.36677546548E+02 -0.76337690279E+02  0.89678752377E+02  0.47000000000E+01 0. -1.
        -11    1    6    6    0    0 -0.18738383269E+02 -0.14164565867E+02 -0.55644852809E+03  0.55694409625E+03  0.00000000000E+00 0.  1.
         12    1    6    6    0    0 -0.91617823671E+01  0.24270909266E+02 -0.60412324820E+02  0.65746971663E+02  0.00000000000E+00 0. -1.
         -5    1    3    3    0  503 -0.64674417543E+00 -0.44308711413E+01  0.88548180660E+01  0.10979467204E+02  0.47000000000E+01 0.  1.
         11    1    4    4    0    0 -0.14724890053E+01 -0.27249951555E+02 -0.27145297075E+03  0.27282126642E+03  0.00000000000E+00 0. -1.
        -12    1    4    4    0    0  0.90748974372E+00  0.58252025846E+02 -0.38747954929E+03  0.39183481618E+03  0.00000000000E+00 0.  1.
</event>
<event>
12    1  0.8406581E-002  0.1881915E+03  0.7818608E-02  0.1160118E+00
         21   -1    0    0  501  502  0.00000000000E+00  0.00000000000E+00  0.78742778455E+02  0.78742778455E+02  0.00000000000E+00 0. -1.
         21   -1    0    0  502  503 -0.00000000000E+00 -0.00000000000E+00 -0.59812005245E+03  0.59812005245E+03  0.00000000000E+00 0. -1.
         -6    2    1    2    0  503 -0.69693034729E+02 -0.32721912563E+02 -0.42836490503E+03  0.46788089762E+03  0.17172128535E+03 0.  0.
        -24    2    3    3    0    0 -0.99527229561E+02 -0.30694715636E+02 -0.41446116456E+03  0.43457034812E+03  0.78901809531E+02 0.  0.
          6    2    1    2  501    0  0.69693034729E+02  0.32721912563E+02 -0.91012368967E+02  0.20898193329E+03  0.17164601506E+03 0.  0.
         24    2    5    5    0    0  0.41293108182E+02 -0.39964158988E+02 -0.86048032769E+02  0.13064576374E+03  0.79760872947E+02 0.  0.
          5    1    5    5  501    0  0.28399926547E+02  0.72686071551E+02 -0.49643361970E+01  0.78336169547E+02  0.47000000000E+01 0. -1.
        -11    1    6    6    0    0  0.33962737487E+02 -0.18742201329E+02 -0.97865802041E+02  0.10527322954E+03  0.00000000000E+00 0.  1.
         12    1    6    6    0    0  0.73303706957E+01 -0.21221957658E+02  0.11817769271E+02  0.25372534204E+02  0.00000000000E+00 0. -1.
         -5    1    3    3    0  503  0.29834194832E+02 -0.20271969276E+01 -0.13903740473E+02  0.33310549497E+02  0.47000000000E+01 0.  1.
         13    1    4    4    0    0 -0.48419262042E+02 -0.24958224279E+02 -0.33838568894E+03  0.34274219521E+03  0.00000000000E+00 0. -1.
        -14    1    4    4    0    0 -0.51107967519E+02 -0.57364913562E+01 -0.76075475614E+02  0.91828152910E+02  0.00000000000E+00 0.  1.
</event>
<event>
12    1  0.8406581E-002  0.1960276E+03  0.7818608E-02  0.1155503E+00
         21   -1    0    0  503  502  0.00000000000E+00  0.00000000000E+00  0.25264306261E+03  0.25264306261E+03  0.00000000000E+00 0. -1.
         21   -1    0    0  501  503 -0.00000000000E+00 -0.00000000000E+00 -0.23109296759E+03  0.23109296759E+03  0.00000000000E+00 0. -1.
          6    2    1    2  501    0  0.30804935826E+02  0.63019257279E+02 -0.13750914014E+03  0.23944850831E+03  0.18304768136E+03 0.  0.
         24    2    3    3    0    0  0.90839953046E+02  0.22171802716E+02 -0.78329402010E+02  0.14565592203E+03  0.79603181459E+02 0.  0.
         -6    2    1    2    0  502 -0.30804935826E+02 -0.63019257279E+02  0.15905923516E+03  0.24428752189E+03  0.17162803442E+03 0.  0.
        -24    2    5    5    0    0 -0.12942843258E+02 -0.90265634920E+02  0.17103718067E+03  0.20925923869E+03  0.78868940425E+02 0.  0.
          5    1    3    3  501    0 -0.60035017219E+02  0.40847454562E+02 -0.59179738130E+02  0.93792586284E+02  0.47000000000E+01 0. -1.
        -13    1    4    4    0    0  0.40520034313E+02  0.23027596620E+02  0.64635444972E+01  0.47052319755E+02  0.00000000000E+00 0.  1.
         14    1    4    4    0    0  0.50319918733E+02 -0.85579390371E+00 -0.84792946507E+02  0.98603602276E+02  0.00000000000E+00 0. -1.
         -5    1    5    5    0  502 -0.17862092569E+02  0.27246377641E+02 -0.11977945508E+02  0.35028283202E+02  0.47000000000E+01 0.  1.
         11    1    6    6    0    0 -0.44034242173E+02 -0.69178222629E+02  0.12923137298E+03  0.15305354858E+03  0.00000000000E+00 0. -1.
        -12    1    6    6    0    0  0.31091398915E+02 -0.21087412291E+02  0.41805807687E+02  0.56205690104E+02  0.00000000000E+00 0.  1.
</event>
<event>
12    1  0.8406581E-002  0.1937676E+03  0.7818608E-02  0.1155374E+00
         21   -1    0    0  501  502  0.00000000000E+00  0.00000000000E+00  0.12303539393E+03  0.12303539393E+03  0.00000000000E+00 0.  1.
         21   -1    0    0  502  503 -0.00000000000E+00 -0.00000000000E+00 -0.76528616737E+03  0.76528616737E+03  0.00000000000E+00 0.  1.
         -6    2    1    2    0  503 -0.87298397642E+02  0.14313283385E+02 -0.66584034495E+03  0.69312335342E+03  0.17102847068E+03 0.  0.
        -24    2    3    3    0    0 -0.81341147605E+02 -0.48107283854E+02 -0.35852102405E+03  0.37943709130E+03  0.80650409287E+02 0.  0.
          6    2    1    2  501    0  0.87298397642E+02 -0.14313283385E+02  0.23589571504E+02  0.19519820788E+03  0.17239487279E+03 0.  0.
         24    2    5    5    0    0 -0.32824536982E+01  0.75033228961E+00  0.57005371738E+02  0.97369230314E+02  0.78865817083E+02 0.  0.
          5    1    5    5  501    0  0.90580851340E+02 -0.15063615675E+02 -0.33415800234E+02  0.97828977568E+02  0.47000000000E+01 0. -1.
        -13    1    6    6    0    0  0.23799887291E+02  0.97839444948E+00 -0.94352639982E+01  0.25620618600E+02  0.00000000000E+00 0.  1.
         14    1    6    6    0    0 -0.27082340989E+02 -0.22806215987E+00  0.66440635736E+02  0.71748611714E+02  0.00000000000E+00 0. -1.
         -5    1    3    3    0  503 -0.59572500369E+01  0.62420567239E+02 -0.30731932090E+03  0.31368626212E+03  0.47000000000E+01 0.  1.
         13    1    4    4    0    0  0.27287228618E+01  0.10315279255E+01 -0.14196221584E+03  0.14199218537E+03  0.00000000000E+00 0. -1.
        -14    1    4    4    0    0 -0.84069870467E+02 -0.49138811780E+02 -0.21655880821E+03  0.23744490594E+03  0.00000000000E+00 0.  1.
</event>
<event>
12    1  0.8406581E-002  0.1736842E+03  0.7818608E-02  0.1175025E+00
         21   -1    0    0  503  502  0.00000000000E+00  0.00000000000E+00  0.14025621867E+04  0.14025621867E+04  0.00000000000E+00 0. -1.
         21   -1    0    0  501  503 -0.00000000000E+00 -0.00000000000E+00 -0.23826739906E+02  0.23826739906E+02  0.00000000000E+00 0. -1.
          6    2    1    2  501    0 -0.29711388634E+02  0.16246065951E+02  0.43898091581E+03  0.47071911480E+03  0.16650987756E+03 0.  0.
         24    2    3    3    0    0  0.22512939078E+02 -0.16659161078E+02  0.36217090988E+03  0.37206820816E+03  0.80514740800E+02 0.  0.
         -6    2    1    2    0  502  0.29711388634E+02 -0.16246065951E+02  0.93975453100E+03  0.95566981182E+03  0.17035113563E+03 0.  0.
        -24    2    5    5    0    0  0.84144715599E+02  0.40114767684E+01  0.59080985735E+03  0.60189328576E+03  0.78248417178E+02 0.  0.
          5    1    3    3  501    0 -0.52224327712E+02  0.32905227028E+02  0.76810005924E+02  0.98650906640E+02  0.47000000000E+01 0. -1.
        -13    1    4    4    0    0 -0.34173440582E+01 -0.40719075252E+02  0.27458755819E+03  0.27761132621E+03  0.00000000000E+00 0.  1.
         14    1    4    4    0    0  0.25930283137E+02  0.24059914175E+02  0.87583351698E+02  0.94456881953E+02  0.00000000000E+00 0. -1.
         -5    1    5    5    0  502 -0.54433326965E+02 -0.20257542719E+02  0.34894467365E+03  0.35377652606E+03  0.47000000000E+01 0.  1.
         13    1    6    6    0    0  0.47085253125E+02 -0.28856162424E+02  0.43258822159E+03  0.43609892069E+03  0.00000000000E+00 0. -1.
        -14    1    6    6    0    0  0.37059462474E+02  0.32867639192E+02  0.15822163576E+03  0.16579436507E+03  0.00000000000E+00 0.  1.
</event>
<event>
12    1  0.8406581E-002  0.1821111E+03  0.7818608E-02  0.1165904E+00
         21   -1    0    0  501  502  0.00000000000E+00  0.00000000000E+00  0.25722916196E+03  0.25722916196E+03  0.00000000000E+00 0.  1.
         21   -1    0    0  502  503 -0.00000000000E+00 -0.00000000000E+00 -0.18692390057E+03  0.18692390057E+03  0.00000000000E+00 0.  1.
         -6    2    1    2    0  503 -0.10485892720E+02  0.57458456428E+02 -0.88988470272E+02  0.20220483145E+03  0.17191980066E+03 0.  0.
        -24    2    3    3    0    0  0.48631850758E+02 -0.59642801835E+01 -0.53620269844E+02  0.10844796122E+03  0.80530723387E+02 0.  0.
          6    2    1    2  501    0  0.10485892720E+02 -0.57458456428E+02  0.15929373166E+03  0.24194823108E+03  0.17249065313E+03 0.  0.
         24    2    5    5    0    0  0.32452822770E+02 -0.28250014947E+02  0.16561282241E+02  0.94536151570E+02  0.82532168479E+02 0.  0.
          5    1    5    5  501    0 -0.21966930051E+02 -0.29208441481E+02  0.14273244942E+03  0.14741207951E+03  0.47000000000E+01 0. -1.
        -13    1    6    6    0    0  0.95080023720E+01  0.23213819668E+02 -0.15713265060E+02  0.29600510664E+02  0.00000000000E+00 0.  1.
         14    1    6    6    0    0  0.22944820398E+02 -0.51463834615E+02  0.32274547301E+02  0.64935640906E+02  0.00000000000E+00 0. -1.
         -5    1    3    3    0  503 -0.59117743478E+02  0.63422736611E+02 -0.35368200427E+02  0.93756870227E+02  0.47000000000E+01 0.  1.
         13    1    4    4    0    0 -0.91635362164E+01  0.32778295463E+01  0.15234758115E+02  0.18077953904E+02  0.00000000000E+00 0. -1.
        -14    1    4    4    0    0  0.57795386975E+02 -0.92421097298E+01 -0.68855027959E+02  0.90370007320E+02  0.00000000000E+00 0.  1.
</event>
<event>
12    1  0.8406581E-002  0.2100080E+03  0.7818608E-02  0.1141600E+00
         21   -1    0    0  501  502  0.00000000000E+00  0.00000000000E+00  0.20704302774E+03  0.20704302774E+03  0.00000000000E+00 0.  1.
         21   -1    0    0  502  503 -0.00000000000E+00 -0.00000000000E+00 -0.21581996500E+03  0.21581996500E+03  0.00000000000E+00 0.  1.
         -6    2    1    2    0  503  0.12014681854E+03 -0.17828745620E+02  0.20587579440E+02  0.21081200441E+03  0.17106937365E+03 0.  0.
        -24    2    3    3    0    0  0.18929707984E+02 -0.37319611489E+02  0.51839631628E+02  0.10299930531E+03  0.78552035239E+02 0.  0.
          6    2    1    2  501    0 -0.12014681854E+03  0.17828745620E+02 -0.29364516707E+02  0.21205098833E+03  0.17131907259E+03 0.  0.
         24    2    5    5    0    0 -0.40701595607E+02 -0.23083470148E+02 -0.68751051140E+02  0.11428216947E+03  0.78385207450E+02 0.  0.
          5    1    5    5  501    0 -0.79445222937E+02  0.40912215768E+02  0.39386534433E+02  0.97768818860E+02  0.47000000000E+01 0. -1.
        -13    1    6    6    0    0 -0.62298546991E+01  0.26814774841E+02 -0.85437984154E+01  0.28824290636E+02  0.00000000000E+00 0.  1.
         14    1    6    6    0    0 -0.34471740908E+02 -0.49898244988E+02 -0.60207252724E+02  0.85457878834E+02  0.00000000000E+00 0. -1.
         -5    1    3    3    0  503  0.10121711056E+03  0.19490865868E+02 -0.31252052187E+02  0.10781269911E+03  0.47000000000E+01 0.  1.
         13    1    4    4    0    0  0.28601546937E+02 -0.17173187117E+02 -0.11927741339E+02  0.35429336099E+02  0.00000000000E+00 0. -1.
        -14    1    4    4    0    0 -0.96718389523E+01 -0.20146424371E+02  0.63767372967E+02  0.67569969208E+02  0.00000000000E+00 0.  1.
</event>
<event>
12    1  0.8406581E-002  0.1769726E+03  0.7818608E-02  0.1171432E+00
         21   -1    0    0  501  502  0.00000000000E+00  0.00000000000E+00  0.31616128334E+02  0.31616128334E+02  0.00000000000E+00 0.  1.
         21   -1    0    0  502  503 -0.00000000000E+00 -0.00000000000E+00 -0.13984865695E+04  0.13984865695E+04  0.00000000000E+00 0.  1.
         -6    2    1    2    0  503 -0.26828221019E+01  0.35538371624E+02 -0.10729569923E+04  0.10870219499E+04  0.17061605724E+03 0.  0.
        -24    2    3    3    0    0  0.32210615471E+02  0.77086757351E+02 -0.57234689865E+03  0.58345827354E+03  0.76568222322E+02 0.  0.
          6    2    1    2  501    0  0.26828221019E+01 -0.35538371624E+02 -0.29391344891E+03  0.34308074791E+03  0.17334679329E+03 0.  0.
         24    2    5    5    0    0  0.28417683806E+02 -0.70932355398E+02 -0.11615951355E+03  0.15995901591E+03  0.79087864990E+02 0.  0.
          5    1    5    5  501    0 -0.25734861704E+02  0.35393983774E+02 -0.17775393536E+03  0.18312173200E+03  0.47000000000E+01 0. -1.
        -11    1    6    6    0    0  0.17974632847E+02 -0.86257058842E+02 -0.78611167118E+02  0.11808083342E+03  0.00000000000E+00 0.  1.
         12    1    6    6    0    0  0.10443050959E+02  0.15324703444E+02 -0.37548346433E+02  0.41878182492E+02  0.00000000000E+00 0. -1.
         -5    1    3    3    0  503 -0.34893437573E+02 -0.41548385727E+02 -0.50061009362E+03  0.50356367639E+03  0.47000000000E+01 0.  1.
         11    1    4    4    0    0  0.37115302895E+02  0.40322793108E+02 -0.49106953658E+03  0.49411816716E+03  0.00000000000E+00 0. -1.
        -12    1    4    4    0    0 -0.49046874243E+01  0.36763964244E+02 -0.81277362062E+02  0.89340106388E+02  0.00000000000E+00 0.  1.
</event>
<event>
12    1  0.8406581E-002  0.1774206E+03  0.7818608E-02  0.1171878E+00
         21   -1    0    0  503  502  0.00000000000E+00  0.00000000000E+00  0.65372404067E+02  0.65372404067E+02  0.00000000000E+00 0. -1.
         21   -1    0    0  501  503 -0.00000000000E+00 -0.00000000000E+00 -0.47153823346E+03  0.47153823346E+03  0.00000000000E+00 0. -1.
          6    2    1    2  501    0  0.49909778378E+01  0.45443682394E+02 -0.23856084316E+03  0.29730346088E+03  0.17142938439E+03 0.  0.
         24    2    3    3    0    0 -0.33395797961E+01  0.27443899176E+02 -0.25653200066E+03  0.27012915522E+03  0.79979827108E+02 0.  0.
         -6    2    1    2    0  502 -0.49909778378E+01 -0.45443682394E+02 -0.16760498623E+03  0.23960717664E+03  0.16501554339E+03 0.  0.
        -24    2    5    5    0    0  0.40527506329E+02 -0.72795714199E+02 -0.10184477238E+03  0.15495162886E+03  0.81828814303E+02 0.  0.
          5    1    3    3  501    0  0.83305576339E+01  0.17999783217E+02  0.17971157497E+02  0.27174305661E+02  0.47000000000E+01 0. -1.
        -13    1    4    4    0    0  0.38952786569E+01 -0.11516811165E+02 -0.20382592747E+03  0.20418819467E+03  0.00000000000E+00 0.  1.
         14    1    4    4    0    0 -0.72348584530E+01  0.38960710341E+02 -0.52706073189E+02  0.65940960549E+02  0.00000000000E+00 0. -1.
         -5    1    5    5    0  502 -0.45518484167E+02  0.27352031805E+02 -0.65760213853E+02  0.84655547784E+02  0.47000000000E+01 0.  1.
         13    1    6    6    0    0 -0.14666535225E+02 -0.52652053654E+02 -0.30723618373E+02  0.62699973967E+02  0.00000000000E+00 0. -1.
        -14    1    6    6    0    0  0.55194041554E+02 -0.20143660545E+02 -0.71121154006E+02  0.92251654892E+02  0.00000000000E+00 0.  1.
</event>
<event>
12    1  0.8406581E-002  0.3641947E+03  0.7818608E-02  0.1057194E+00
         21   -1    0    0  503  502  0.00000000000E+00  0.00000000000E+00  0.35551348654E+03  0.35551348654E+03  0.00000000000E+00 0. -1.
         21   -1    0    0  501  503 -0.00000000000E+00 -0.00000000000E+00 -0.63848282542E+03  0.63848282542E+03  0.00000000000E+00 0.  1.
          6    2    1    2  501    0 -0.31233838564E+03 -0.58195945754E+02 -0.46323879698E+03  0.58762841660E+03  0.17255415880E+03 0.  0.
         24    2    3    3    0    0 -0.90712786833E+02  0.80846687828E+01 -0.22545694507E+03  0.25585541437E+03  0.79605197176E+02 0.  0.
         -6    2    1    2    0  502  0.31233838564E+03  0.58195945754E+02  0.18026945810E+03  0.40636789536E+03  0.17803301271E+03 0.  0.
        -24    2    5    5    0    0  0.10699690789E+03  0.34312320124E+02  0.13866591605E+03  0.19544493604E+03  0.79654335356E+02 0.  0.
          5    1    3    3  501    0 -0.22162559880E+03 -0.66280614537E+02 -0.23778185191E+03  0.33177300223E+03  0.47000000000E+01 0. -1.
        -11    1    4    4    0    0 -0.84926634832E+02  0.32319929966E+02 -0.14053392321E+03  0.16735260604E+03  0.00000000000E+00 0.  1.
         12    1    4    4    0    0 -0.57861520003E+01 -0.24235261183E+02 -0.84923021858E+02  0.88502808323E+02  0.00000000000E+00 0. -1.
         -5    1    5    5    0  502  0.20534147775E+03  0.23883625630E+02  0.41603542048E+02  0.21092295932E+03  0.47000000000E+01 0.  1.
         13    1    6    6    0    0  0.11369691696E+03  0.24852728151E+02  0.94896616778E+02  0.15016662379E+03  0.00000000000E+00 0. -1.
        -14    1    6    6    0    0 -0.67000090770E+01  0.94595919729E+01  0.43769299274E+02  0.45278312257E+02  0.00000000000E+00 0.  1.
</event>
<event>
12    1  0.8406581E-002  0.2365771E+03  0.7818608E-02  0.1122589E+00
         21   -1    0    0  503  502  0.00000000000E+00  0.00000000000E+00  0.10348077546E+04  0.10348077546E+04  0.00000000000E+00 0.  1.
         21   -1    0    0  501  503 -0.00000000000E+00 -0.00000000000E+00 -0.78511583519E+02  0.78511583519E+02  0.00000000000E+00 0. -1.
          6    2    1    2  501    0  0.27227475167E+02 -0.15546579485E+03  0.16550123033E+03  0.28872028182E+03  0.17623221931E+03 0.  0.
         24    2    3    3    0    0 -0.21035827287E+02 -0.16208295974E+03  0.10313626905E+03  0.20944473938E+03  0.80725565910E+02 0.  0.
         -6    2    1    2    0  502 -0.27227475167E+02  0.15546579485E+03  0.79079494072E+03  0.82459905626E+03  0.17232532184E+03 0.  0.
        -24    2    5    5    0    0 -0.44720814374E+02  0.17983235784E+03  0.65258512364E+03  0.68309361522E+03  0.80061947193E+02 0.  0.
          5    1    3    3  501    0  0.48263302454E+02  0.66171648876E+01  0.62364961277E+02  0.79275542445E+02  0.47000000000E+01 0. -1.
        -13    1    4    4    0    0  0.11921730255E+02 -0.11113024548E+03  0.97821528009E+02  0.14852983019E+03  0.00000000000E+00 0.  1.
         14    1    4    4    0    0 -0.32957557542E+02 -0.50952714260E+02  0.53147410418E+01  0.60914909193E+02  0.00000000000E+00 0. -1.
         -5    1    5    5    0  502  0.17493339207E+02 -0.24366562986E+02  0.13820981708E+03  0.14150544105E+03  0.47000000000E+01 0.  1.
         11    1    6    6    0    0 -0.36860930965E+02  0.10370857829E+03  0.24788964422E+03  0.27122587110E+03  0.00000000000E+00 0. -1.
        -12    1    6    6    0    0 -0.78598834091E+01  0.76123779551E+02  0.40469547942E+03  0.41186774412E+03  0.00000000000E+00 0.  1.
</event>
<event>
12    1  0.8406581E-002  0.2008247E+03  0.7818608E-02  0.1149151E+00
         21   -1    0    0  501  502  0.00000000000E+00  0.00000000000E+00  0.88025384425E+02  0.88025384425E+02  0.00000000000E+00 0.  1.
         21   -1    0    0  502  503 -0.00000000000E+00 -0.00000000000E+00 -0.46642754979E+03  0.46642754979E+03  0.00000000000E+00 0.  1.
         -6    2    1    2    0  503 -0.10123414018E+03  0.19576579626E+02 -0.22834307327E+03  0.30375735658E+03  0.17174509879E+03 0.  0.
        -24    2    3    3    0    0 -0.10142117016E+03  0.63133014063E+02 -0.12039475104E+03  0.18725787919E+03  0.79363631591E+02 0.  0.
          6    2    1    2  501    0  0.10123414018E+03 -0.19576579626E+02 -0.15005909210E+03  0.25069557764E+03  0.17233382696E+03 0.  0.
         24    2    5    5    0    0  0.11407341932E+03  0.17844504818E+02 -0.57317918859E+02  0.14975896454E+03  0.76231438980E+02 0.  0.
          5    1    5    5  501    0 -0.12839279136E+02 -0.37421084444E+02 -0.92741173243E+02  0.10093661310E+03  0.47000000000E+01 0. -1.
        -11    1    6    6    0    0  0.62977353303E+02 -0.28650487031E+02 -0.31289305158E+02  0.75934300902E+02  0.00000000000E+00 0.  1.
         12    1    6    6    0    0  0.51096066018E+02  0.46494991849E+02 -0.26028613701E+02  0.73824663635E+02  0.00000000000E+00 0. -1.
         -5    1    3    3    0  503  0.18702997633E+00 -0.43556434437E+02 -0.10794832222E+03  0.11649947739E+03  0.47000000000E+01 0.  1.
         11    1    4    4    0    0 -0.58448303162E+01  0.34681652671E+02 -0.63079223643E+01  0.35731903923E+02  0.00000000000E+00 0. -1.
        -12    1    4    4    0    0 -0.95576339845E+02  0.28451361392E+02 -0.11408682868E+03  0.15152597527E+03  0.00000000000E+00 0.  1.
</event>
<event>
12    1  0.8406581E-002  0.2332735E+03  0.7818608E-02  0.1124942E+00
         21   -1    0    0  501  502  0.00000000000E+00  0.00000000000E+00  0.19374937611E+03  0.19374937611E+03  0.00000000000E+00 0.  1.
         21   -1    0    0  502  503 -0.00000000000E+00 -0.00000000000E+00 -0.28030065638E+03  0.28030065638E+03  0.00000000000E+00 0.  1.
         -6    2    1    2    0  503 -0.73431318860E+02 -0.13934483068E+03 -0.69970925050E+02  0.24354145374E+03  0.17206791947E+03 0.  0.
        -24    2    3    3    0    0 -0.11002880356E+03 -0.74596122276E+02 -0.20167445640E+02  0.15390748871E+03  0.74899066390E+02 0.  0.
          6    2    1    2  501    0  0.73431318860E+02  0.13934483068E+03 -0.16580355225E+02  0.23050857874E+03  0.16748180876E+03 0.  0.
         24    2    5    5    0    0  0.60477886422E+02  0.16680575179E+03 -0.33868234640E+02  0.19525443892E+03  0.74131673574E+02 0.  0.
          5    1    5    5  501    0  0.12953432438E+02 -0.27460921102E+02  0.17287879415E+02  0.35254139818E+02  0.47000000000E+01 0. -1.
        -13    1    6    6    0    0  0.46298009419E+02  0.70313246200E+02  0.16033972393E+02  0.85700329859E+02  0.00000000000E+00 0.  1.
         14    1    6    6    0    0  0.14179877004E+02  0.96492505586E+02 -0.49902207033E+02  0.10955410906E+03  0.00000000000E+00 0. -1.
         -5    1    3    3    0  503  0.36597484697E+02 -0.64748708409E+02 -0.49803479409E+02  0.89633965035E+02  0.47000000000E+01 0.  1.
         13    1    4    4    0    0 -0.34639919708E+01  0.10382729318E+02 -0.13590147159E+02  0.17449710836E+02  0.00000000000E+00 0. -1.
        -14    1    4    4    0    0 -0.10656481159E+03 -0.84978851593E+02 -0.65772984810E+01  0.13645777787E+03  0.00000000000E+00 0.  1.
</event>
<event>
12    1  0.8406581E-002  0.1813625E+03  0.7818608E-02  0.1166728E+00
         21   -1    0    0  501  502  0.00000000000E+00  0.00000000000E+00  0.53896504544E+02  0.53896504544E+02  0.00000000000E+00 0. -1.
         21   -1    0    0  502  503 -0.00000000000E+00 -0.00000000000E+00 -0.15040174756E+04  0.15040174756E+04  0.00000000000E+00 0. -1.
         -6    2    1    2    0  503  0.27148806098E+02  0.45153203730E+02 -0.13258421426E+04  0.13380558620E+04  0.17251154514E+03 0.  0.
        -24    2    3    3    0    0 -0.24036645425E+02  0.19817879031E+02 -0.11485151562E+04  0.11516992704E+04  0.79709702905E+02 0.  0.
          6    2    1    2  501    0 -0.27148806098E+02 -0.45153203730E+02 -0.12427882846E+03  0.21985811817E+03  0.17354104829E+03 0.  0.
         24    2    5    5    0    0 -0.65021872448E+02 -0.74022426218E+02 -0.94990806632E+02  0.16375393486E+03  0.89916263036E+02 0.  0.
          5    1    5    5  501    0  0.37873066350E+02  0.28869222488E+02 -0.29288021829E+02  0.56104183307E+02  0.47000000000E+01 0. -1.
        -11    1    6    6    0    0 -0.34356847930E+01 -0.28332975574E+02 -0.80899513472E+02  0.85786320092E+02  0.00000000000E+00 0.  1.
         12    1    6    6    0    0 -0.61586187655E+02 -0.45689450644E+02 -0.14091293160E+02  0.77967614770E+02  0.00000000000E+00 0. -1.
         -5    1    3    3    0  503  0.51185451523E+02  0.25335324699E+02 -0.17732698645E+03  0.18635659164E+03  0.47000000000E+01 0.  1.
         11    1    4    4    0    0 -0.40550470501E+02  0.37274409179E+02 -0.56213519769E+03  0.56482714411E+03  0.00000000000E+00 0. -1.
        -12    1    4    4    0    0  0.16513825075E+02 -0.17456530148E+02 -0.58637995848E+03  0.58687212625E+03  0.00000000000E+00 0.  1.
</event>
<event>
12    1  0.8406581E-002  0.2148063E+03  0.7818608E-02  0.1137857E+00
         21   -1    0    0  503  502  0.00000000000E+00  0.00000000000E+00  0.25444527146E+04  0.25444527146E+04  0.00000000000E+00 0.  1.
         21   -1    0    0  501  503 -0.00000000000E+00 -0.00000000000E+00 -0.21871337325E+02  0.21871337325E+02  0.00000000000E+00 0. -1.
          6    2    1    2  501    0  0.12786193557E+03 -0.73126508621E+01  0.73012474741E+03  0.76106759004E+03  0.17245167553E+03 0.  0.
         24    2    3    3    0    0  0.93502781847E+02 -0.22634044255E+02  0.70633071413E+03  0.71630664099E+03  0.70264187391E+02 0.  0.
         -6    2    1    2    0  502 -0.12786193557E+03  0.73126508621E+01  0.17924566298E+04  0.18052564618E+04  0.17218586997E+03 0.  0.
        -24    2    5    5    0    0 -0.48408654988E+02  0.65494936086E+02  0.10994242851E+04  0.11052465169E+04  0.78759888616E+02 0.  0.
          5    1    3    3  501    0  0.34359153722E+02  0.15321393393E+02  0.23794033284E+02  0.44760949051E+02  0.47000000000E+01 0. -1.
        -11    1    4    4    0    0  0.25266820872E+02  0.56105244009E+01  0.41342453310E+03  0.41423391313E+03  0.00000000000E+00 0.  1.
         12    1    4    4    0    0  0.68235960974E+02 -0.28244568656E+02  0.29290618103E+03  0.30207272785E+03  0.00000000000E+00 0. -1.
         -5    1    5    5    0  502 -0.79453280581E+02 -0.58182285223E+02  0.69303234475E+03  0.70000994491E+03  0.47000000000E+01 0.  1.
         13    1    6    6    0    0  0.17697049254E+02 -0.30440243138E+01  0.19347547381E+03  0.19430700091E+03  0.00000000000E+00 0. -1.
        -14    1    6    6    0    0 -0.66105704241E+02  0.68538960399E+02  0.90594881127E+03  0.91093951603E+03  0.00000000000E+00 0.  1.
</event>
<event>
12    1  0.8406581E-002  0.2367935E+03  0.7818608E-02  0.1122271E+00
         21   -1    0    0  503  502  0.00000000000E+00  0.00000000000E+00  0.76054484934E+03  0.76054484934E+03  0.00000000000E+00 0.  1.
         21   -1    0    0  501  503 -0.00000000000E+00 -0.00000000000E+00 -0.75067324799E+02  0.75067324799E+02  0.00000000000E+00 0. -1.
          6    2    1    2  501    0 -0.57634769105E+02 -0.15173388480E+03  0.40843293543E+03  0.47116074210E+03  0.16979412165E+03 0.  0.
         24    2    3    3    0    0 -0.95851743533E+02 -0.14724589442E+03  0.30874473364E+03  0.36420043747E+03  0.80310260468E+02 0.  0.
         -6    2    1    2    0  502  0.57634769105E+02  0.15173388480E+03  0.27704458911E+03  0.36445143203E+03  0.17241288684E+03 0.  0.
        -24    2    5    5    0    0  0.38028267161E+02  0.14746972643E+03  0.29199153330E+03  0.33899364136E+03  0.80400025158E+02 0.  0.
          5    1    3    3  501    0  0.38216974428E+02 -0.44879903827E+01  0.99688201786E+02  0.10696030463E+03  0.47000000000E+01 0. -1.
        -11    1    4    4    0    0 -0.11205064212E+02 -0.45512807069E+02  0.15197281422E+03  0.15903680496E+03  0.00000000000E+00 0.  1.
         12    1    4    4    0    0 -0.84646679321E+02 -0.10173308735E+03  0.15677191943E+03  0.20516363251E+03  0.00000000000E+00 0. -1.
         -5    1    5    5    0  502  0.19606501944E+02  0.42641583700E+01 -0.14946944195E+02  0.25457790671E+02  0.47000000000E+01 0.  1.
         11    1    6    6    0    0  0.43886480682E+02  0.96912580555E+02  0.12360547127E+03  0.16308397832E+03  0.00000000000E+00 0. -1.
        -12    1    6    6    0    0 -0.58582135206E+01  0.50557145880E+02  0.16838606203E+03  0.17590966304E+03  0.00000000000E+00 0.  1.
</event>
<event>
12    1  0.8406581E-002  0.1946637E+03  0.7818608E-02  0.1154335E+00
         21   -1    0    0  503  502  0.00000000000E+00  0.00000000000E+00  0.11366968475E+03  0.11366968475E+03  0.00000000000E+00 0. -1.
         21   -1    0    0  501  503 -0.00000000000E+00 -0.00000000000E+00 -0.75264975674E+03  0.75264975674E+03  0.00000000000E+00 0. -1.
          6    2    1    2  501    0 -0.29722704222E+02 -0.86095551196E+02 -0.64285466691E+03  0.67168153617E+03  0.17204092587E+03 0.  0.
         24    2    3    3    0    0 -0.75611987090E+02 -0.95601526717E+02 -0.46729709205E+03  0.48991591250E+03  0.82426965177E+02 0.  0.
         -6    2    1    2    0  502  0.29722704222E+02  0.86095551196E+02  0.38745949246E+01  0.19463790532E+03  0.17196807442E+03 0.  0.
        -24    2    5    5    0    0 -0.40562939204E+02  0.84193031755E+02 -0.54149857078E+01  0.12355993715E+03  0.80646868287E+02 0.  0.
          5    1    3    3  501    0  0.45889282868E+02  0.95059755209E+01 -0.17555757486E+03  0.18176562366E+03  0.47000000000E+01 0. -1.
        -11    1    4    4    0    0 -0.73411059095E+02 -0.30419176428E+02 -0.21149835985E+03  0.22593376487E+03  0.00000000000E+00 0.  1.
         12    1    4    4    0    0 -0.22009279950E+01 -0.65182350289E+02 -0.25579873220E+03  0.26398214763E+03  0.00000000000E+00 0. -1.
         -5    1    5    5    0  502  0.70285643426E+02  0.19025194407E+01  0.92895806324E+01  0.71077968178E+02  0.47000000000E+01 0.  1.
         11    1    6    6    0    0 -0.90228870933E+01  0.70153648835E+02  0.27472166852E+02  0.75879291562E+02  0.00000000000E+00 0. -1.
        -12    1    6    6    0    0 -0.31540052110E+02  0.14039382920E+02 -0.32887152560E+02  0.47680645585E+02  0.00000000000E+00 0.  1.
</event>
<event>
12    1  0.8406581E-002  0.1771026E+03  0.7818608E-02  0.1171350E+00
         21   -1    0    0  503  502  0.00000000000E+00  0.00000000000E+00  0.16215663238E+03  0.16215663238E+03  0.00000000000E+00 0.  1.
         21   -1    0    0  501  503 -0.00000000000E+00 -0.00000000000E+00 -0.22859527520E+03  0.22859527520E+03  0.00000000000E+00 0.  1.
          6    2    1    2  501    0 -0.40486698659E+02  0.19254688798E+02  0.46953788682E+02  0.18045887289E+03  0.16837704928E+03 0.  0.
         24    2    3    3    0    0 -0.14146022930E+01  0.55101905909E+02 -0.16729253676E+02  0.97457236924E+02  0.78611856395E+02 0.  0.
         -6    2    1    2    0  502  0.40486698659E+02 -0.19254688798E+02 -0.11339243150E+03  0.21029303470E+03  0.17133417964E+03 0.  0.
        -24    2    5    5    0    0  0.33749032299E+02  0.51735122948E+02 -0.41533203732E+02  0.10894813776E+03  0.79556078222E+02 0.  0.
          5    1    3    3  501    0 -0.39072096366E+02 -0.35847217111E+02  0.63683042358E+02  0.83001635966E+02  0.47000000000E+01 0. -1.
        -13    1    4    4    0    0 -0.39340294724E+01  0.27830416070E+02  0.31362170728E+02  0.42114064151E+02  0.00000000000E+00 0.  1.
         14    1    4    4    0    0  0.25194271793E+01  0.27271489839E+02 -0.48091424404E+02  0.55343172773E+02  0.00000000000E+00 0. -1.
         -5    1    5    5    0  502  0.67376663601E+01 -0.70989811745E+02 -0.71859227770E+02  0.10134489694E+03  0.47000000000E+01 0.  1.
         11    1    6    6    0    0 -0.26871620047E+00  0.45842931976E+02  0.99975432717E+01  0.46921183830E+02  0.00000000000E+00 0. -1.
        -12    1    6    6    0    0  0.34017748499E+02  0.58921909724E+01 -0.51530747003E+02  0.62026953932E+02  0.00000000000E+00 0.  1.
</event>
<event>
12    1  0.8406581E-002  0.1886900E+03  0.7818608E-02  0.1160130E+00
         21   -1    0    0  503  502  0.00000000000E+00  0.00000000000E+00  0.53522984767E+03  0.53522984767E+03  0.00000000000E+00 0.  1.
         21   -1    0    0  501  503 -0.00000000000E+00 -0.00000000000E+00 -0.84564417157E+02  0.84564417157E+02  0.00000000000E+00 0.  1.
          6    2    1    2  501    0 -0.70730809245E+02  0.23714292946E+02  0.80263560775E+02  0.20505155807E+03  0.17331672514E+03 0.  0.
         24    2    3    3    0    0  0.16717863962E+02 -0.22671048126E+02  0.62329455149E+02  0.10434111940E+03  0.78794954280E+02 0.  0.
         -6    2    1    2    0  502  0.70730809245E+02 -0.23714292946E+02  0.37040186974E+03  0.41474270676E+03  0.17102266703E+03 0.  0.
        -24    2    5    5    0    0  0.43775731891E+02  0.52863913783E+02  0.23880050954E+03  0.26004362484E+03  0.76720892714E+02 0.  0.
          5    1    3    3  501    0 -0.87448673207E+02  0.46385341072E+02  0.17934105626E+02  0.10071043867E+03  0.47000000000E+01 0. -1.
        -13    1    4    4    0    0 -0.30177824008E+02  0.27119870407E+01  0.20782640640E+02  0.36741993517E+02  0.00000000000E+00 0.  1.
         14    1    4    4    0    0  0.46895687971E+02 -0.25383035166E+02  0.41546814509E+02  0.67599125884E+02  0.00000000000E+00 0. -1.
         -5    1    5    5    0  502  0.26955077353E+02 -0.76578206730E+02  0.13160136019E+03  0.15469908191E+03  0.47000000000E+01 0.  1.
         13    1    6    6    0    0 -0.96592896643E+01  0.32133727261E+02  0.15451796276E+03  0.15811919277E+03  0.00000000000E+00 0. -1.
        -14    1    6    6    0    0  0.53435021556E+02  0.20730186522E+02  0.84282546780E+02  0.10192443207E+03  0.00000000000E+00 0.  1.
</event>
<event>
12    1  0.8406581E-002  0.1947005E+03  0.7818608E-02  0.1154552E+00
         21   -1    0    0  501  502  0.00000000000E+00  0.00000000000E+00  0.22387337409E+03  0.22387337409E+03  0.00000000000E+00 0.  1.
         21   -1    0    0  502  503 -0.00000000000E+00 -0.00000000000E+00 -0.18855149832E+03  0.18855149832E+03  0.00000000000E+00 0.  1.
         -6    2    1    2    0  503 -0.87737721511E+02 -0.18706291067E+02 -0.49893165076E+02  0.20099160730E+03  0.17280180897E+03 0.  0.
        -24    2    3    3    0    0  0.28256989479E+01 -0.51330494524E+02 -0.48875574110E+02  0.10461112553E+03  0.76888631126E+02 0.  0.
          6    2    1    2  501    0  0.87737721511E+02  0.18706291067E+02  0.85215040845E+02  0.21143326510E+03  0.17144850336E+03 0.  0.
         24    2    5    5    0    0  0.36043312143E+02 -0.48713947319E+02  0.15556474467E+02  0.10146869638E+03  0.79885689796E+02 0.  0.
          5    1    5    5  501    0  0.51694409368E+02  0.67420238387E+02  0.69658566378E+02  0.10996456872E+03  0.47000000000E+01 0. -1.
        -13    1    6    6    0    0  0.35965895265E+02  0.13232251031E+02  0.59892936874E+01  0.38788010112E+02  0.00000000000E+00 0.  1.
         14    1    6    6    0    0  0.77416877981E-01 -0.61946198350E+02  0.95671807801E+01  0.62680686272E+02  0.00000000000E+00 0. -1.
         -5    1    3    3    0  503 -0.90563420459E+02  0.32624203457E+02 -0.10175909662E+01  0.96380481778E+02  0.47000000000E+01 0.  1.
         11    1    4    4    0    0  0.90462219244E+01 -0.25128088854E+02  0.18208389743E+02  0.32323372930E+02  0.00000000000E+00 0. -1.
        -12    1    4    4    0    0 -0.62205229765E+01 -0.26202405670E+02 -0.67083963853E+02  0.72287752595E+02  0.00000000000E+00 0.  1.
</event>
<event>
12    1  0.8406581E-002  0.1888524E+03  0.7818608E-02  0.1159932E+00
         21   -1    0    0  501  502  0.00000000000E+00  0.00000000000E+00  0.34368823616E+03  0.34368823616E+03  0.00000000000E+00 0.  1.
         21   -1    0    0  502  503 -0.00000000000E+00 -0.00000000000E+00 -0.24921521473E+03  0.24921521473E+03  0.00000000000E+00 0.  1.
         -6    2    1    2    0  503 -0.10244165638E+02 -0.74297187704E+02 -0.17993958014E+03  0.26085147423E+03  0.17332115877E+03 0.  0.
        -24    2    3    3    0    0  0.12574896084E+02 -0.84661745198E+02 -0.19718898964E+03  0.23006566975E+03  0.81981556760E+02 0.  0.
          6    2    1    2  501    0  0.10244165638E+02  0.74297187704E+02  0.27441260158E+03  0.33205197666E+03  0.17126361046E+03 0.  0.
         24    2    5    5    0    0 -0.31370327647E+02 -0.91581028668E+01  0.17732254854E+03  0.19734815350E+03  0.80218695842E+02 0.  0.
          5    1    5    5  501    0  0.41614493285E+02  0.83455290571E+02  0.97090053034E+02  0.13470382316E+03  0.47000000000E+01 0. -1.
        -11    1    6    6    0    0  0.16674467126E+02 -0.12669721110E+02  0.12288420883E+03  0.12465588019E+03  0.00000000000E+00 0.  1.
         12    1    6    6    0    0 -0.48044794773E+02  0.35116182435E+01  0.54438339710E+02  0.72692273302E+02  0.00000000000E+00 0. -1.
         -5    1    3    3    0  503 -0.22819061722E+02  0.10364557494E+02  0.17249409496E+02  0.30785804487E+02  0.47000000000E+01 0.  1.
         11    1    4    4    0    0 -0.15016050744E+02 -0.44216005893E+02 -0.29169665691E+02  0.55058208776E+02  0.00000000000E+00 0. -1.
        -12    1    4    4    0    0  0.27590946828E+02 -0.40445739305E+02 -0.16801932395E+03  0.17500746097E+03  0.00000000000E+00 0.  1.
</event>
<event>
12    1  0.8406581E-002  0.1737238E+03  0.7818608E-02  0.1174461E+00
         21   -1    0    0  501  502  0.00000000000E+00  0.00000000000E+00  0.19155027416E+03  0.19155027416E+03  0.00000000000E+00 0. -1.
         21   -1    0    0  502  503 -0.00000000000E+00 -0.00000000000E+00 -0.16458301470E+03  0.16458301470E+03  0.00000000000E+00 0. -1.
         -6    2    1    2    0  503 -0.70913266268E+01 -0.13851901861E+02 -0.27142065169E+02  0.17583132185E+03  0.17302543149E+03 0.  0.
        -24    2    3    3    0    0  0.95822252056E+01 -0.72542269091E+02 -0.35795294331E+02  0.11402893588E+03  0.79794080466E+02 0.  0.
          6    2    1    2  501    0  0.70913266268E+01  0.13851901861E+02  0.54109324624E+02  0.18030196701E+03  0.17128577932E+03 0.  0.
         24    2    5    5    0    0  0.26521626529E+02  0.52740091830E+02  0.81447147657E+02  0.12873381364E+03  0.80335813639E+02 0.  0.
          5    1    5    5  501    0 -0.19430299902E+02 -0.38888189969E+02 -0.27337823033E+02  0.51568153365E+02  0.47000000000E+01 0. -1.
        -11    1    6    6    0    0 -0.49828901947E+01  0.19519960258E+02 -0.12860190482E+02  0.23900680794E+02  0.00000000000E+00 0.  1.
         12    1    6    6    0    0  0.31504516723E+02  0.33220131571E+02  0.94307338139E+02  0.10483313285E+03  0.00000000000E+00 0. -1.
         -5    1    3    3    0  503 -0.16673551832E+02  0.58690367230E+02  0.86532291623E+01  0.61802385967E+02  0.47000000000E+01 0.  1.
         11    1    4    4    0    0 -0.31658134744E+02 -0.18211264717E+02 -0.26642541797E+02  0.45207440665E+02  0.00000000000E+00 0. -1.
        -12    1    4    4    0    0  0.41240359949E+02 -0.54331004374E+02 -0.91527525345E+01  0.68821495218E+02  0.00000000000E+00 0.  1.
</event>
<event>
12    1  0.8406581E-002  0.1749311E+03  0.7818608E-02  0.1173231E+00
         21   -1    0    0  501  502  0.00000000000E+00  0.00000000000E+00  0.21402273136E+03  0.21402273136E+03  0.00000000000E+00 0. -1.
         21   -1    0    0  502  503 -0.00000000000E+00 -0.00000000000E+00 -0.14719129682E+03  0.14719129682E+03  0.00000000000E+00 0. -1.
         -6    2    1    2    0  503 -0.23789273313E+01  0.30706812806E+02  0.68798825140E+02  0.18797382164E+03  0.17219846583E+03 0.  0.
        -24    2    3    3    0    0 -0.38150386580E+01  0.46881671750E+01  0.11404869649E+03  0.13554603136E+03  0.73000602847E+02 0.  0.
          6    2    1    2  501    0  0.23789273313E+01 -0.30706812806E+02 -0.19673905964E+01  0.17324020654E+03  0.17046914937E+03 0.  0.
         24    2    5    5    0    0  0.35607879303E+02  0.34126182406E+02  0.21984032328E+02  0.96407653688E+02  0.79866267085E+02 0.  0.
          5    1    5    5  501    0 -0.33228951971E+02 -0.64832995211E+02 -0.23951422925E+02  0.76832552849E+02  0.47000000000E+01 0. -1.
        -13    1    6    6    0    0 -0.32029621670E+01 -0.20274040359E+02  0.21297689277E+02  0.29578492992E+02  0.00000000000E+00 0.  1.
         14    1    6    6    0    0  0.38810841470E+02  0.54400222765E+02  0.68634305092E+00  0.66829160696E+02  0.00000000000E+00 0. -1.
         -5    1    3    3    0  503  0.14361113267E+01  0.26018645631E+02 -0.45249871350E+02  0.52427790278E+02  0.47000000000E+01 0.  1.
         13    1    4    4    0    0 -0.21391981045E+02 -0.25868182831E+02  0.79002772189E+02  0.85838323315E+02  0.00000000000E+00 0. -1.
        -14    1    4    4    0    0  0.17576942387E+02  0.30556350005E+02  0.35045924302E+02  0.49707708049E+02  0.00000000000E+00 0.  1.
</event>
<event>
12    1  0.8406581E-002  0.2110943E+03  0.7818608E-02  0.1140957E+00
         21   -1    0    0  503  502  0.00000000000E+00  0.00000000000E+00  0.90498208390E+02  0.90498208390E+02  0.00000000000E+00 0.  1.
         21   -1    0    0  501  503 -0.00000000000E+00 -0.00000000000E+00 -0.50725384488E+03  0.50725384488E+03  0.00000000000E+00 0. -1.
          6    2    1    2  501    0 -0.12347303318E+03  0.58595559201E+01 -0.15166508517E+03  0.25888066886E+03  0.16951984643E+03 0.  0.
         24    2    3    3    0    0 -0.13396458556E+03  0.31883213876E+02 -0.73218831872E+02  0.17543482953E+03  0.80332636953E+02 0.  0.
         -6    2    1    2    0  502  0.12347303318E+03 -0.58595559201E+01 -0.26509055131E+03  0.33887138440E+03  0.17111659900E+03 0.  0.
        -24    2    5    5    0    0  0.24169368553E+00  0.22633163117E+02 -0.98183285436E+02  0.12940080538E+03  0.81192933230E+02 0.  0.
          5    1    3    3  501    0  0.10491552382E+02 -0.26023657956E+02 -0.78446253302E+02  0.83445839333E+02  0.47000000000E+01 0. -1.
        -13    1    4    4    0    0 -0.59068768732E+02  0.55180789106E+02 -0.33279757155E+02  0.87416137882E+02  0.00000000000E+00 0.  1.
         14    1    4    4    0    0 -0.74895816832E+02 -0.23297575230E+02 -0.39939074717E+02  0.88018691650E+02  0.00000000000E+00 0. -1.
         -5    1    5    5    0  502  0.12323133950E+03 -0.28492719037E+02 -0.16690726588E+03  0.20947057902E+03  0.47000000000E+01 0.  1.
         13    1    6    6    0    0  0.26621497028E+02  0.27187096516E+02 -0.95129580710E+02  0.10245720788E+03  0.00000000000E+00 0. -1.
        -14    1    6    6    0    0 -0.26379803342E+02 -0.45539333989E+01 -0.30537047259E+01  0.26943597501E+02  0.00000000000E+00 0.  1.
</event>
<event>
12    1  0.8406581E-002  0.2705404E+03  0.7818608E-02  0.1101105E+00
         21   -1    0    0  501  502  0.00000000000E+00  0.00000000000E+00  0.20487348899E+04  0.20487348899E+04  0.00000000000E+00 0. -1.
         21   -1    0    0  502  503 -0.00000000000E+00 -0.00000000000E+00 -0.38281831546E+02  0.38281831546E+02  0.00000000000E+00 0.  1.
         -6    2    1    2    0  503 -0.11011989167E+03  0.17721064541E+03  0.12829690300E+04  0.13111832962E+04  0.17222688732E+03 0.  0.
        -24    2    3    3    0    0 -0.96029640371E+02  0.14307234372E+03  0.12398024758E+04  0.12541797855E+04  0.78519857032E+02 0.  0.
          6    2    1    2  501    0  0.11011989167E+03 -0.17721064541E+03  0.72748402829E+03  0.77583342525E+03  0.17074685630E+03 0.  0.
         24    2    5    5    0    0  0.11144629267E+03 -0.12027705520E+03  0.36210967939E+03  0.40601766320E+03  0.82704756583E+02 0.  0.
          5    1    5    5  501    0 -0.13264009920E+01 -0.56933590207E+02  0.36537434890E+03  0.36981576206E+03  0.47000000000E+01 0. -1.
        -13    1    6    6    0    0  0.28280025477E+02 -0.45031120046E+02  0.21241335014E+03  0.21896801806E+03  0.00000000000E+00 0.  1.
         14    1    6    6    0    0  0.83166267188E+02 -0.75245935157E+02  0.14969632925E+03  0.18704964514E+03  0.00000000000E+00 0. -1.
         -5    1    3    3    0  503 -0.14090251302E+02  0.34138301692E+02  0.43166554198E+02  0.57003510642E+02  0.47000000000E+01 0.  1.
         11    1    4    4    0    0 -0.56926568705E+02  0.13865136652E+03  0.99992059767E+03  0.10110915079E+04  0.00000000000E+00 0. -1.
        -12    1    4    4    0    0 -0.39103071666E+02  0.44209772005E+01  0.23988187817E+03  0.24308827764E+03  0.00000000000E+00 0.  1.
</event>
<event>
12    1  0.8406581E-002  0.3047493E+03  0.7818608E-02  0.1082919E+00
         21   -1    0    0  501  502  0.00000000000E+00  0.00000000000E+00  0.88375680133E+03  0.88375680133E+03  0.00000000000E+00 0.  1.
         21   -1    0    0  502  503 -0.00000000000E+00 -0.00000000000E+00 -0.12859371355E+03  0.12859371355E+03  0.00000000000E+00 0. -1.
         -6    2    1    2    0  503  0.31512104531E+02 -0.24975701385E+03  0.16068081753E+03  0.34430760933E+03  0.17134125603E+03 0.  0.
        -24    2    3    3    0    0  0.68542880558E+01 -0.20709574871E+03  0.56989803570E+02  0.22940805392E+03  0.80278185663E+02 0.  0.
          6    2    1    2  501    0 -0.31512104531E+02  0.24975701385E+03  0.59448227026E+03  0.66804290556E+03  0.17175731515E+03 0.  0.
         24    2    5    5    0    0 -0.75922283087E+02  0.14686836077E+03  0.27661326546E+03  0.33096556561E+03  0.75424124300E+02 0.  0.
          5    1    5    5  501    0  0.44410178556E+02  0.10288865308E+03  0.31786900480E+03  0.33707733994E+03  0.47000000000E+01 0. -1.
        -11    1    6    6    0    0 -0.75584199041E+02  0.12440476878E+03  0.27129174214E+03  0.30787777931E+03  0.00000000000E+00 0.  1.
         12    1    6    6    0    0 -0.33808404556E+00  0.22463591987E+02  0.53215233235E+01  0.23087786301E+02  0.00000000000E+00 0. -1.
         -5    1    3    3    0  503  0.24657816475E+02 -0.42661265138E+02  0.10369101396E+03  0.11489955540E+03  0.47000000000E+01 0.  1.
         11    1    4    4    0    0 -0.34309672126E+02 -0.59030791581E+02  0.22665511871E+02  0.71941041030E+02  0.00000000000E+00 0. -1.
        -12    1    4    4    0    0  0.41163960182E+02 -0.14806495713E+03  0.34324291699E+02  0.15746701289E+03  0.00000000000E+00 0.  1.
</event>
<event>
12    1  0.8406581E-002  0.2352425E+03  0.7818608E-02  0.1123372E+00
         21   -1    0    0  501  502  0.00000000000E+00  0.00000000000E+00  0.45132052524E+02  0.45132052524E+02  0.00000000000E+00 0. -1.
         21   -1    0    0  502  503 -0.00000000000E+00 -0.00000000000E+00 -0.13398994213E+04  0.13398994213E+04  0.00000000000E+00 0.  1.
         -6    2    1    2    0  503  0.10604041419E+03 -0.11739553048E+03 -0.85612921556E+03  0.88729410907E+03  0.17119381483E+03 0.  0.
        -24    2    3    3    0    0  0.12883126708E+03 -0.89756318444E+02 -0.78932414244E+03  0.81134440985E+03  0.10292452317E+03 0.  0.
          6    2    1    2  501    0 -0.10604041419E+03  0.11739553048E+03 -0.43863815320E+03  0.49773736474E+03  0.17410564264E+03 0.  0.
         24    2    5    5    0    0 -0.11057707379E+03  0.53915455463E+02 -0.18262076240E+03  0.23388646821E+03  0.78856652034E+02 0.  0.
          5    1    5    5  501    0  0.45366595994E+01  0.63480075013E+02 -0.25601739080E+03  0.26385089653E+03  0.47000000000E+01 0. -1.
        -13    1    6    6    0    0 -0.70538689925E+02  0.72420467851E+02 -0.13876780701E+03  0.17168848302E+03  0.00000000000E+00 0.  1.
         14    1    6    6    0    0 -0.40038383860E+02 -0.18505012388E+02 -0.43852955385E+02  0.62197985189E+02  0.00000000000E+00 0. -1.
         -5    1    3    3    0  503 -0.22790852898E+02 -0.27639212031E+02 -0.66805073115E+02  0.75949699219E+02  0.47000000000E+01 0.  1.
         13    1    4    4    0    0  0.58000076971E+02 -0.99370282975E+02 -0.44108270271E+03  0.45584253059E+03  0.00000000000E+00 0. -1.
        -14    1    4    4    0    0  0.70831190113E+02  0.96139645311E+01 -0.34824143973E+03  0.35550187926E+03  0.00000000000E+00 0.  1.
</event>
<event>
12    1  0.8406581E-002  0.1883197E+03  0.7818608E-02  0.1160262E+00
         21   -1    0    0  503  502  0.00000000000E+00  0.00000000000E+00  0.36707625129E+03  0.36707625129E+03  0.00000000000E+00 0. -1.
         21   -1    0    0  501  503 -0.00000000000E+00 -0.00000000000E+00 -0.65098381828E+03  0.65098381828E+03  0.00000000000E+00 0. -1.
          6    2    1    2  501    0  0.55976091377E+02  0.47109738359E+02 -0.61188876678E+03  0.63985909742E+03  0.17221832476E+03 0.  0.
         24    2    3    3    0    0  0.96601064124E+02  0.13002050601E+01 -0.40679108475E+03  0.42576554094E+03  0.80398091373E+02 0.  0.
         -6    2    1    2    0  502 -0.55976091377E+02 -0.47109738359E+02  0.32798119980E+03  0.37820097215E+03  0.17352710930E+03 0.  0.
        -24    2    5    5    0    0 -0.60813069660E+02 -0.49980710706E+02  0.34445078382E+03  0.36017388035E+03  0.69875465863E+02 0.  0.
          5    1    3    3  501    0 -0.40624972747E+02  0.45809533298E+02 -0.20509768203E+03  0.21409355648E+03  0.47000000000E+01 0. -1.
        -13    1    4    4    0    0  0.64861229477E+02  0.22356215243E+02 -0.13616213278E+03  0.15246936038E+03  0.00000000000E+00 0.  1.
         14    1    4    4    0    0  0.31739834647E+02 -0.21056010183E+02 -0.27062895197E+03  0.27329618056E+03  0.00000000000E+00 0. -1.
         -5    1    5    5    0  502  0.48369782835E+01  0.28709723479E+01 -0.16469584020E+02  0.18027091804E+02  0.47000000000E+01 0.  1.
         13    1    6    6    0    0 -0.85147539692E+01  0.16835534306E+02  0.41926136840E+02  0.45975397778E+02  0.00000000000E+00 0. -1.
        -14    1    6    6    0    0 -0.52298315691E+02 -0.66816245012E+02  0.30252464698E+03  0.31419848257E+03  0.00000000000E+00 0.  1.
</event>
<event>
12    1  0.8406581E-002  0.1851555E+03  0.7818608E-02  0.1163002E+00
         21   -1    0    0  503  502  0.00000000000E+00  0.00000000000E+00  0.19250610977E+02  0.19250610977E+02  0.00000000000E+00 0.  1.
         21   -1    0    0  501  503 -0.00000000000E+00 -0.00000000000E+00 -0.20713140334E+04  0.20713140334E+04  0.00000000000E+00 0.  1.
          6    2    1    2  501    0 -0.54852571785E+02 -0.38729918596E+02 -0.14191579966E+04  0.14311316770E+04  0.17210359198E+03 0.  0.
         24    2    3    3    0    0 -0.32724427716E+02 -0.52430055220E+02 -0.46205680072E+03  0.47366515662E+03  0.83918976636E+02 0.  0.
         -6    2    1    2    0  502  0.54852571785E+02  0.38729918596E+02 -0.63290542583E+03  0.65943296738E+03  0.17255071487E+03 0.  0.
        -24    2    5    5    0    0  0.38770652578E+02  0.46592111394E+02 -0.18168910833E+03  0.20783724400E+03  0.80693243597E+02 0.  0.
          5    1    3    3  501    0 -0.22128144069E+02  0.13700136624E+02 -0.95710119583E+03  0.95746652034E+03  0.47000000000E+01 0. -1.
        -11    1    4    4    0    0 -0.36273287321E+02 -0.69768088166E+02 -0.42921386923E+03  0.43635751745E+03  0.00000000000E+00 0.  1.
         12    1    4    4    0    0  0.35488596046E+01  0.17338032946E+02 -0.32842931496E+02  0.37307639166E+02  0.00000000000E+00 0. -1.
         -5    1    5    5    0  502  0.16081919207E+02 -0.78621927985E+01 -0.45121631750E+03  0.45159572338E+03  0.47000000000E+01 0.  1.
         11    1    6    6    0    0  0.11130791339E+02 -0.68163195223E+01  0.31792601375E+01  0.13433704727E+02  0.00000000000E+00 0. -1.
        -12    1    6    6    0    0  0.27639861239E+02  0.53408430917E+02 -0.18486836846E+03  0.19440353927E+03  0.00000000000E+00 0.  1.
</event>
<event>
12    1  0.8406581E-002  0.1910248E+03  0.7818608E-02  0.1157582E+00
         21   -1    0    0  503  502  0.00000000000E+00  0.00000000000E+00  0.20920456756E+03  0.20920456756E+03  0.00000000000E+00 0. -1.
         21   -1    0    0  501  503 -0.00000000000E+00 -0.00000000000E+00 -0.58293751003E+03  0.58293751003E+03  0.00000000000E+00 0. -1.
          6    2    1    2  501    0  0.75189205683E+02  0.25629491537E+02 -0.51847020779E+03  0.55247699641E+03  0.17351999225E+03 0.  0.
         24    2    3    3    0    0  0.69175172578E+02  0.10610805517E+02 -0.52389360706E+03  0.53477861277E+03  0.81399382408E+02 0.  0.
         -6    2    1    2    0  502 -0.75189205683E+02 -0.25629491537E+02  0.14473726532E+03  0.23966508118E+03  0.17372445906E+03 0.  0.
        -24    2    5    5    0    0  0.17327952430E+02 -0.36382945723E+02  0.35461314395E+02  0.96004422775E+02  0.79595023078E+02 0.  0.
          5    1    3    3  501    0  0.60140331051E+01  0.15018686020E+02  0.54233992733E+01  0.17698383645E+02  0.47000000000E+01 0. -1.
        -13    1    4    4    0    0  0.31126833464E+02  0.39411670202E+02 -0.15808204812E+03  0.16586769863E+03  0.00000000000E+00 0.  1.
         14    1    4    4    0    0  0.38048339115E+02 -0.28800864686E+02 -0.36581155894E+03  0.36891091414E+03  0.00000000000E+00 0. -1.
         -5    1    5    5    0  502 -0.92517158113E+02  0.10753454186E+02  0.10927595092E+03  0.14366065840E+03  0.47000000000E+01 0.  1.
         13    1    6    6    0    0 -0.29493587588E+02 -0.88225353100E+01  0.27140026897E+02  0.41040101098E+02  0.00000000000E+00 0. -1.
        -14    1    6    6    0    0  0.46821540018E+02 -0.27560410413E+02  0.83212874976E+01  0.54964321677E+02  0.00000000000E+00 0.  1.
</event>
<event>
12    1  0.8406581E-002  0.1997847E+03  0.7818608E-02  0.1150120E+00
         21   -1    0    0  503  502  0.00000000000E+00  0.00000000000E+00  0.11655955948E+04  0.11655955948E+04  0.00000000000E+00 0. -1.
         21   -1    0    0  501  503 -0.00000000000E+00 -0.00000000000E+00 -0.42904427395E+02  0.42904427395E+02  0.00000000000E+00 0. -1.
          6    2    1    2  501    0 -0.10178501586E+03  0.35610313633E+00  0.28629476150E+03  0.34857392498E+03  0.17081795704E+03 0.  0.
         24    2    3    3    0    0 -0.13679370298E+03 -0.15269346787E+02  0.21550042052E+03  0.26792845657E+03  0.79997227890E+02 0.  0.
         -6    2    1    2    0  502  0.10178501586E+03 -0.35610313633E+00  0.83639640591E+03  0.85992609723E+03  0.17191168838E+03 0.  0.
        -24    2    5    5    0    0  0.60174908504E+02  0.58555146542E+02  0.31956863209E+03  0.33806886180E+03  0.71531251225E+02 0.  0.
          5    1    3    3  501    0  0.35008687121E+02  0.15625449923E+02  0.70794340984E+02  0.80645468407E+02  0.47000000000E+01 0. -1.
        -13    1    4    4    0    0 -0.54787341796E+02 -0.34065374348E+02  0.14295262301E+03  0.15683607677E+03  0.00000000000E+00 0.  1.
         14    1    4    4    0    0 -0.82006361188E+02  0.18796027561E+02  0.72547797511E+02  0.11109237981E+03  0.00000000000E+00 0. -1.
         -5    1    5    5    0  502  0.41610107359E+02 -0.58911249679E+02  0.51682777382E+03  0.52185723543E+03  0.47000000000E+01 0.  1.
         13    1    6    6    0    0  0.76693286592E+02  0.45576271398E+02  0.26359799685E+03  0.27828575362E+03  0.00000000000E+00 0. -1.
        -14    1    6    6    0    0 -0.16518378088E+02  0.12978875144E+02  0.55970635239E+02  0.59783108180E+02  0.00000000000E+00 0.  1.
</event>
<event>
12    1  0.8406581E-002  0.2530570E+03  0.7818608E-02  0.1111774E+00
         21   -1    0    0  501  502  0.00000000000E+00  0.00000000000E+00  0.36026675173E+03  0.36026675173E+03  0.00000000000E+00 0.  1.
         21   -1    0    0  502  503 -0.00000000000E+00 -0.00000000000E+00 -0.18283195662E+03  0.18283195662E+03  0.00000000000E+00 0. -1.
         -6    2    1    2    0  503  0.11999383858E+03 -0.13344099223E+03  0.36725286611E+02  0.25570806718E+03  0.17841762592E+03 0.  0.
        -24    2    3    3    0    0  0.12027284538E+03 -0.13050918820E+03 -0.22273949733E+02  0.19644869485E+03  0.81226567884E+02 0.  0.
          6    2    1    2  501    0 -0.11999383858E+03  0.13344099223E+03  0.14070950850E+03  0.28739064118E+03  0.17489767051E+03 0.  0.
         24    2    5    5    0    0 -0.91961644398E+02  0.14089006403E+03  0.16514227645E+03  0.24917621025E+03  0.80683691665E+02 0.  0.
          5    1    5    5  501    0 -0.28032194177E+02 -0.74490718019E+01 -0.24432767950E+02  0.38214430923E+02  0.47000000000E+01 0. -1.
        -13    1    6    6    0    0 -0.19230609014E+02  0.67826139721E+02  0.24165554615E+02  0.74526341533E+02  0.00000000000E+00 0.  1.
         14    1    6    6    0    0 -0.72731035384E+02  0.73063924312E+02  0.14097672184E+03  0.17464986872E+03  0.00000000000E+00 0. -1.
         -5    1    3    3    0  503 -0.27900680533E+00 -0.29318040320E+01  0.58999236344E+02  0.59259372329E+02  0.47000000000E+01 0.  1.
         11    1    4    4    0    0  0.32533960661E+02 -0.64167982544E+01 -0.29382633158E+02  0.44305451442E+02  0.00000000000E+00 0. -1.
        -12    1    4    4    0    0  0.87738884719E+02 -0.12409238995E+03  0.71086834254E+01  0.15214324341E+03  0.00000000000E+00 0.  1.
</event>
<event>
12    1  0.8406581E-002  0.1805301E+03  0.7818608E-02  0.1167298E+00
         21   -1    0    0  501  502  0.00000000000E+00  0.00000000000E+00  0.23322636704E+03  0.23322636704E+03  0.00000000000E+00 0.  1.
         21   -1    0    0  502  503 -0.00000000000E+00 -0.00000000000E+00 -0.14375220952E+03  0.14375220952E+03  0.00000000000E+00 0.  1.
         -6    2    1    2    0  503  0.42586710494E+02 -0.36212418952E+02  0.76321041508E+02  0.19600007838E+03  0.17165710632E+03 0.  0.
        -24    2    3    3    0    0 -0.40912633244E+02 -0.94562567860E+00  0.39919841502E+02  0.98209360648E+02  0.79854536543E+02 0.  0.
          6    2    1    2  501    0 -0.42586710494E+02  0.36212418952E+02  0.13153116015E+02  0.18097849818E+03  0.17162530450E+03 0.  0.
         24    2    5    5    0    0 -0.62543456442E+02  0.96840600033E+01  0.65016055229E+02  0.11922187909E+03  0.77338890956E+02 0.  0.
          5    1    5    5  501    0  0.19956745948E+02  0.26528358948E+02 -0.51862939214E+02  0.61756619088E+02  0.47000000000E+01 0. -1.
        -11    1    6    6    0    0 -0.16983299663E+02 -0.17266175950E+02 -0.10992791498E+02  0.26596893884E+02  0.00000000000E+00 0.  1.
         12    1    6    6    0    0 -0.45560156779E+02  0.26950235953E+02  0.76008846726E+02  0.92624985205E+02  0.00000000000E+00 0. -1.
         -5    1    3    3    0  503  0.83499343738E+02 -0.35266793273E+02  0.36401200006E+02  0.97790717731E+02  0.47000000000E+01 0.  1.
         13    1    4    4    0    0 -0.22532396809E+02  0.39237374251E+02  0.16209847419E+02  0.48062871298E+02  0.00000000000E+00 0. -1.
        -14    1    4    4    0    0 -0.18380236435E+02 -0.40182999930E+02  0.23709994082E+02  0.50146489350E+02  0.00000000000E+00 0.  1.
</event>
<event>
12    1  0.8406581E-002  0.3075869E+03  0.7818608E-02  0.1081543E+00
         21   -1    0    0  501  502  0.00000000000E+00  0.00000000000E+00  0.13427128932E+03  0.13427128932E+03  0.00000000000E+00 0. -1.
         21   -1    0    0  502  503 -0.00000000000E+00 -0.00000000000E+00 -0.77275747130E+03  0.77275747130E+03  0.00000000000E+00 0.  1.
         -6    2    1    2    0  503 -0.23119321229E+03 -0.10795657263E+03 -0.18378058195E+03  0.35805984644E+03  0.17125019226E+03 0.  0.
        -24    2    3    3    0    0 -0.56150710025E+02  0.75263179124E+01 -0.56944309592E+02  0.11293598878E+03  0.79387250045E+02 0.  0.
          6    2    1    2  501    0  0.23119321229E+03  0.10795657263E+03 -0.45470560003E+03  0.54896891417E+03  0.17176950556E+03 0.  0.
         24    2    5    5    0    0  0.10341035432E+03 -0.10489800605E+01 -0.26490520168E+03  0.29547936701E+03  0.80240193839E+02 0.  0.
          5    1    5    5  501    0  0.12778285797E+03  0.10900555269E+03 -0.18980039835E+03  0.25348954716E+03  0.47000000000E+01 0. -1.
        -11    1    6    6    0    0  0.63370561639E+02  0.29569233653E+01 -0.23980187900E+03  0.24805143146E+03  0.00000000000E+00 0.  1.
         12    1    6    6    0    0  0.40039792685E+02 -0.40059034257E+01 -0.25103322688E+02  0.47427935549E+02  0.00000000000E+00 0. -1.
         -5    1    3    3    0  503 -0.17504250227E+03 -0.11548289054E+03 -0.12683627236E+03  0.24512385766E+03  0.47000000000E+01 0.  1.
         11    1    4    4    0    0  0.17603991000E+01  0.20842922482E-01  0.17911016596E+02  0.17997331884E+02  0.00000000000E+00 0. -1.
        -12    1    4    4    0    0 -0.57911109125E+02  0.75054749899E+01 -0.74855326188E+02  0.94938656899E+02  0.00000000000E+00 0.  1.
</event>
<event>
12    1  0.8406581E-002  0.2036229E+03  0.7818608E-02  0.1146852E+00
         21   -1    0    0  501  502  0.00000000000E+00  0.00000000000E+00  0.16251998980E+03  0.16251998980E+03  0.00000000000E+00 0. -1.
         21   -1    0    0  502  503 -0.00000000000E+00 -0.00000000000E+00 -0.29918501723E+03  0.29918501723E+03  0.00000000000E+00 0. -1.
         -6    2    1    2    0  503 -0.41615819858E+02  0.99602478153E+02 -0.15783695740E+03  0.25763306970E+03  0.17265504153E+03 0.  0.
        -24    2    3    3    0    0 -0.12174000241E+02  0.82142769193E+01 -0.13638639783E+03  0.15914022441E+03  0.80676396093E+02 0.  0.
          6    2    1    2  501    0  0.41615819858E+02 -0.99602478153E+02  0.21171929979E+02  0.20407193733E+03  0.17188535385E+03 0.  0.
         24    2    5    5    0    0  0.60605939021E+02 -0.12951201626E+03  0.29170238316E+01  0.16394044479E+03  0.80134375952E+02 0.  0.
          5    1    5    5  501    0 -0.18990119163E+02  0.29909538102E+02  0.18254906147E+02  0.40131492543E+02  0.47000000000E+01 0. -1.
        -11    1    6    6    0    0  0.50346256331E+02 -0.63241760240E+02 -0.33649707374E+02  0.87558943410E+02  0.00000000000E+00 0.  1.
         12    1    6    6    0    0  0.10259682690E+02 -0.66270256015E+02  0.36566731205E+02  0.76381501375E+02  0.00000000000E+00 0. -1.
         -5    1    3    3    0  503 -0.29441819618E+02  0.91388201234E+02 -0.21450559574E+02  0.98492845289E+02  0.47000000000E+01 0.  1.
         13    1    4    4    0    0  0.30131098922E+02  0.21142606434E+02 -0.74158935262E+02  0.82791549136E+02  0.00000000000E+00 0. -1.
        -14    1    4    4    0    0 -0.42305099163E+02 -0.12928329514E+02 -0.62227462565E+02  0.76348675276E+02  0.00000000000E+00 0.  1.
</event>
<event>
12    1  0.8406581E-002  0.2305271E+03  0.7818608E-02  0.1126780E+00
         21   -1    0    0  503  502  0.00000000000E+00  0.00000000000E+00  0.85591851670E+02  0.85591851670E+02  0.00000000000E+00 0. -1.
         21   -1    0    0  501  503 -0.00000000000E+00 -0.00000000000E+00 -0.61425052144E+03  0.61425052144E+03  0.00000000000E+00 0.  1.
          6    2    1    2  501    0 -0.10821059846E+03 -0.10471465507E+03 -0.24767607139E+03  0.33639502494E+03  0.17071462696E+03 0.  0.
         24    2    3    3    0    0 -0.58927024165E+01 -0.33335543871E+01 -0.55552232038E+02  0.96226877435E+02  0.78279786215E+02 0.  0.
         -6    2    1    2    0  502  0.10821059846E+03  0.10471465507E+03 -0.28098259838E+03  0.36344734817E+03  0.17455102892E+03 0.  0.
        -24    2    5    5    0    0  0.54148359962E+02  0.69099417919E+02 -0.58703409259E+02  0.13188461658E+03  0.78998021418E+02 0.  0.
          5    1    3    3  501    0 -0.10231789604E+03 -0.10138110068E+03 -0.19212383936E+03  0.24016814750E+03  0.47000000000E+01 0. -1.
        -11    1    4    4    0    0  0.14168676753E+02  0.31642099805E+01  0.16016027635E+02  0.21616585460E+02  0.00000000000E+00 0.  1.
         12    1    4    4    0    0 -0.20061379170E+02 -0.64977643676E+01 -0.71568259673E+02  0.74610291975E+02  0.00000000000E+00 0. -1.
         -5    1    5    5    0  502  0.54062238497E+02  0.35615237150E+02 -0.22227918912E+03  0.23156273159E+03  0.47000000000E+01 0.  1.
         11    1    6    6    0    0  0.35389485972E+02 -0.17610575593E+01 -0.45062191654E+02  0.57324673202E+02  0.00000000000E+00 0. -1.
        -12    1    6    6    0    0  0.18758873989E+02  0.70860475479E+02 -0.13641217605E+02  0.74559943375E+02  0.00000000000E+00 0.  1.
</event>
<event>
12    1  0.8406581E-002  0.1824823E+03  0.7818608E-02  0.1165710E+00
         21   -1    0    0  503  502  0.00000000000E+00  0.00000000000E+00  0.30547140838E+02  0.30547140838E+02  0.00000000000E+00 0.  1.
         21   -1    0    0  501  503 -0.00000000000E+00 -0.00000000000E+00 -0.11015257696E+04  0.11015257696E+04  0.00000000000E+00 0.  1.
          6    2    1    2  501    0  0.57746166073E+02 -0.15755840151E+02 -0.60730222784E+03  0.63378023511E+03  0.17110968497E+03 0.  0.
         24    2    3    3    0    0  0.34900393155E+01 -0.53645317659E+02 -0.48416451570E+03  0.49390770047E+03  0.81483359299E+02 0.  0.
         -6    2    1    2    0  502 -0.57746166073E+02  0.15755840151E+02 -0.46367640090E+03  0.49829267530E+03  0.17238596030E+03 0.  0.
        -24    2    5    5    0    0 -0.18954219695E+01  0.13499940754E+02 -0.41809019967E+03  0.42601137452E+03  0.80625276052E+02 0.  0.
          5    1    3    3  501    0  0.54256126757E+02  0.37889477508E+02 -0.12313771214E+03  0.13987253464E+03  0.47000000000E+01 0. -1.
        -13    1    4    4    0    0  0.22507149443E+02 -0.37015645386E+02 -0.44624954473E+03  0.44834739427E+03  0.00000000000E+00 0.  1.
         14    1    4    4    0    0 -0.19017110127E+02 -0.16629672272E+02 -0.37914970973E+02  0.45560306204E+02  0.00000000000E+00 0. -1.
         -5    1    5    5    0  502 -0.55850744103E+02  0.22558993973E+01 -0.45586201228E+02  0.72281300772E+02  0.47000000000E+01 0.  1.
         11    1    6    6    0    0  0.19561248338E+02 -0.10306605549E+02 -0.33814926283E+02  0.40401952849E+02  0.00000000000E+00 0. -1.
        -12    1    6    6    0    0 -0.21456670307E+02  0.23806546302E+02 -0.38427527339E+03  0.38560942168E+03  0.00000000000E+00 0.  1.
</event>
<event>
12    1  0.8406581E-002  0.2777446E+03  0.7818608E-02  0.1097051E+00
         21   -1    0    0  503  502  0.00000000000E+00  0.00000000000E+00  0.21936471765E+03  0.21936471765E+03  0.00000000000E+00 0.  1.
         21   -1    0    0  501  503 -0.00000000000E+00 -0.00000000000E+00 -0.99856362926E+03  0.99856362926E+03  0.00000000000E+00 0. -1.
          6    2    1    2  501    0  0.18731274092E+03 -0.10939601530E+03 -0.88039283526E+03  0.92316499286E+03  0.17346039484E+03 0.  0.
         24    2    3    3    0    0  0.40620860280E+02 -0.94854102527E+02 -0.41757093958E+03  0.43741179195E+03  0.79474719848E+02 0.  0.
         -6    2    1    2    0  502 -0.18731274092E+03  0.10939601530E+03  0.10119392366E+03  0.29476335405E+03  0.17202230562E+03 0.  0.
        -24    2    5    5    0    0 -0.41259724042E+02  0.37824584271E+02 -0.56138336406E+01  0.10012538114E+03  0.82828212690E+02 0.  0.
          5    1    3    3  501    0  0.14669188064E+03 -0.14541912776E+02 -0.46282189568E+03  0.48575320091E+03  0.47000000000E+01 0. -1.
        -11    1    4    4    0    0  0.99955611473E+00 -0.30839402476E+02 -0.31595098235E+02  0.44162405844E+02  0.00000000000E+00 0.  1.
         12    1    4    4    0    0  0.39621304166E+02 -0.64014700050E+02 -0.38597584135E+03  0.39324938610E+03  0.00000000000E+00 0. -1.
         -5    1    5    5    0  502 -0.14605301687E+03  0.71571431031E+02  0.10680775730E+03  0.19463797291E+03  0.47000000000E+01 0.  1.
         11    1    6    6    0    0 -0.43101997323E+02  0.37873791963E+02 -0.37267334479E+02  0.68418276140E+02  0.00000000000E+00 0. -1.
        -12    1    6    6    0    0  0.18422732807E+01 -0.49207691642E-01  0.31653500839E+02  0.31707105002E+02  0.00000000000E+00 0.  1.
</event>
<event>
12    1  0.8406581E-002  0.2053100E+03  0.7818608E-02  0.1145599E+00
         21   -1    0    0  503  502  0.00000000000E+00  0.00000000000E+00  0.15535697770E+04  0.15535697770E+04  0.00000000000E+00 0. -1.
         21   -1    0    0  501  503 -0.00000000000E+00 -0.00000000000E+00 -0.53628206610E+02  0.53628206610E+02  0.00000000000E+00 0. -1.
          6    2    1    2  501    0  0.10353713460E+03  0.37886299000E+02  0.18450231514E+03  0.27603136070E+03  0.17319612554E+03 0.  0.
         24    2    3    3    0    0  0.83498363431E+02  0.24982914022E+02  0.20963676822E+03  0.24107595446E+03  0.81079704886E+02 0.  0.
         -6    2    1    2    0  502 -0.10353713460E+03 -0.37886299000E+02  0.13154392552E+04  0.13311666229E+04  0.17166488809E+03 0.  0.
        -24    2    5    5    0    0 -0.12336721918E+03 -0.43810833593E+02  0.12847112671E+04  0.12938218559E+04  0.79706305751E+02 0.  0.
          5    1    3    3  501    0  0.20038771174E+02  0.12903384978E+02 -0.25134453072E+02  0.34955406238E+02  0.47000000000E+01 0. -1.
        -13    1    4    4    0    0 -0.12099368902E+02 -0.85566269881E+01  0.48714051588E+02  0.50918262101E+02  0.00000000000E+00 0.  1.
         14    1    4    4    0    0  0.95597732333E+02  0.33539541010E+02  0.16092271663E+03  0.19015769236E+03  0.00000000000E+00 0. -1.
         -5    1    5    5    0  502  0.19830084579E+02  0.59245345928E+01  0.30727988147E+02  0.37344766970E+02  0.47000000000E+01 0.  1.
         11    1    6    6    0    0 -0.47240641135E+02 -0.59045364583E+02  0.62421082506E+03  0.62877435331E+03  0.00000000000E+00 0. -1.
        -12    1    6    6    0    0 -0.76126578049E+02  0.15234530990E+02  0.66050044201E+03  0.66504750260E+03  0.00000000000E+00 0.  1.
</event>
<event>
12    1  0.8406581E-002  0.2047962E+03  0.7818608E-02  0.1145783E+00
         21   -1    0    0  503  502  0.00000000000E+00  0.00000000000E+00  0.98930524878E+03  0.98930524878E+03  0.00000000000E+00 0.  1.
         21   -1    0    0  501  503 -0.00000000000E+00 -0.00000000000E+00 -0.95418628945E+02  0.95418628945E+02  0.00000000000E+00 0. -1.
          6    2    1    2  501    0  0.88587824119E+02  0.65718486338E+02  0.42597316448E+02  0.20917939120E+03  0.17255365631E+03 0.  0.
         24    2    3    3    0    0  0.70568569256E+02  0.50462074624E+02  0.95017393398E+02  0.15149571837E+03  0.79976894747E+02 0.  0.
         -6    2    1    2    0  502 -0.88587824119E+02 -0.65718486338E+02  0.85128930339E+03  0.87554448652E+03  0.17238894335E+03 0.  0.
        -24    2    5    5    0    0 -0.29530177939E+02  0.26550304239E+02  0.50089914259E+03  0.50839779912E+03  0.77404270163E+02 0.  0.
          5    1    3    3  501    0  0.18019254864E+02  0.15256411714E+02 -0.52420076950E+02  0.57683672834E+02  0.47000000000E+01 0. -1.
        -13    1    4    4    0    0 -0.16777590735E+02 -0.64108634018E+00  0.14109171365E+02  0.21930965760E+02  0.00000000000E+00 0.  1.
         14    1    4    4    0    0  0.87346159991E+02  0.51103160964E+02  0.80908222033E+02  0.12956475261E+03  0.00000000000E+00 0. -1.
         -5    1    5    5    0  502 -0.59057646181E+02 -0.92268790576E+02  0.35039016079E+03  0.36714668740E+03  0.47000000000E+01 0.  1.
         13    1    6    6    0    0 -0.38730432019E+02  0.33173021716E+02  0.17441854331E+03  0.18172045561E+03  0.00000000000E+00 0. -1.
        -14    1    6    6    0    0  0.92002540806E+01 -0.66227174770E+01  0.32648059928E+03  0.32667734352E+03  0.00000000000E+00 0.  1.
</event>
<event>
12    1  0.8406581E-002  0.1984698E+03  0.7818608E-02  0.1151587E+00
         21   -1    0    0  503  502  0.00000000000E+00  0.00000000000E+00  0.12239651579E+03  0.12239651579E+03  0.00000000000E+00 0. -1.
         21   -1    0    0  501  503 -0.00000000000E+00 -0.00000000000E+00 -0.39932514836E+03  0.39932514836E+03  0.00000000000E+00 0. -1.
          6    2    1    2  501    0  0.76003348604E+02  0.58883687774E+02 -0.21226711167E+02  0.19960166877E+03  0.17362734584E+03 0.  0.
         24    2    3    3    0    0  0.44455751335E+02  0.50756804436E+02  0.53820663752E+02  0.11765354122E+03  0.79957019030E+02 0.  0.
         -6    2    1    2    0  502 -0.76003348604E+02 -0.58883687774E+02 -0.25570192141E+03  0.32211999538E+03  0.17068690965E+03 0.  0.
        -24    2    5    5    0    0 -0.87692738133E+02 -0.96822309342E+02 -0.22521370395E+03  0.27184473070E+03  0.78190595710E+02 0.  0.
          5    1    3    3  501    0  0.31547597270E+02  0.81268833380E+01 -0.75047374919E+02  0.81948127547E+02  0.47000000000E+01 0. -1.
        -11    1    4    4    0    0 -0.16841742571E+02  0.33180351625E+02  0.54306854612E+01  0.37604153645E+02  0.00000000000E+00 0.  1.
         12    1    4    4    0    0  0.61297493906E+02  0.17576452812E+02  0.48389978291E+02  0.80049387578E+02  0.00000000000E+00 0. -1.
         -5    1    5    5    0  502  0.11689389529E+02  0.37938621568E+02 -0.30488217460E+02  0.50275264672E+02  0.47000000000E+01 0.  1.
         11    1    6    6    0    0 -0.28191977955E+02 -0.21154328072E+02 -0.10879629738E+02  0.36887119167E+02  0.00000000000E+00 0. -1.
        -12    1    6    6    0    0 -0.59500760178E+02 -0.75667981270E+02 -0.21433407421E+03  0.23495761154E+03  0.00000000000E+00 0.  1.
</event>
<event>
12    1  0.8406581E-002  0.1765998E+03  0.7818608E-02  0.1172233E+00
         21   -1    0    0  501  502  0.00000000000E+00  0.00000000000E+00  0.17217139653E+04  0.17217139653E+04  0.00000000000E+00 0.  1.
         21   -1    0    0  502  503 -0.00000000000E+00 -0.00000000000E+00 -0.20579335780E+02  0.20579335780E+02  0.00000000000E+00 0.  1.
         -6    2    1    2    0  503  0.42964585473E+02  0.11021570293E+02  0.53213095528E+03  0.56067000660E+03  0.17093879641E+03 0.  0.
        -24    2    3    3    0    0  0.41821063687E+02  0.14623711647E+01  0.13128300647E+03  0.15967891693E+03  0.80690698512E+02 0.  0.
          6    2    1    2  501    0 -0.42964585473E+02 -0.11021570293E+02  0.11690036743E+04  0.11816232945E+04  0.16642292227E+03 0.  0.
         24    2    5    5    0    0 -0.62914301377E+02 -0.41283649934E+02  0.51172550349E+03  0.52332969101E+03  0.79677007339E+02 0.  0.
          5    1    5    5  501    0  0.19949715905E+02  0.30262079641E+02  0.65727817079E+03  0.65829360351E+03  0.47000000000E+01 0. -1.
        -13    1    6    6    0    0 -0.40869530002E+02 -0.26925556053E+02  0.47827748595E+03  0.48077505927E+03  0.00000000000E+00 0.  1.
         14    1    6    6    0    0 -0.22044771375E+02 -0.14358093881E+02  0.33448017543E+02  0.42554631738E+02  0.00000000000E+00 0. -1.
         -5    1    3    3    0  503  0.11435217857E+01  0.95591991284E+01  0.40084794882E+03  0.40099108968E+03  0.47000000000E+01 0.  1.
         11    1    4    4    0    0  0.12439660826E+02  0.89073740578E+01  0.12831503453E+03  0.12922397054E+03  0.00000000000E+00 0. -1.
        -12    1    4    4    0    0  0.29381402861E+02 -0.74450028931E+01  0.29679719328E+01  0.30454946389E+02  0.00000000000E+00 0.  1.
</event>
<event>
12    1  0.8406581E-002  0.1885205E+03  0.7818608E-02  0.1160537E+00
         21   -1    0    0  501  502  0.00000000000E+00  0.00000000000E+00  0.86052880548E+02  0.86052880548E+02  0.00000000000E+00 0.  1.
         21   -1    0    0  502  503 -0.00000000000E+00 -0.00000000000E+00 -0.54346463437E+03  0.54346463437E+03  0.00000000000E+00 0.  1.
         -6    2    1    2    0  503  0.30122080817E+02  0.66096784218E+02 -0.38552407783E+03  0.42775570123E+03  0.17049926894E+03 0.  0.
        -24    2    3    3    0    0  0.41364127507E+02  0.38814325223E+02 -0.97872012293E+02  0.13855591390E+03  0.80007922104E+02 0.  0.
          6    2    1    2  501    0 -0.30122080817E+02 -0.66096784218E+02 -0.71887675992E+02  0.20176181369E+03  0.17396513118E+03 0.  0.
         24    2    5    5    0    0 -0.54189225933E+02  0.87351526818E+01 -0.73421656334E+02  0.12299958067E+03  0.82008427172E+02 0.  0.
          5    1    5    5  501    0  0.24067145116E+02 -0.74831936900E+02  0.15339803419E+01  0.78762233017E+02  0.47000000000E+01 0. -1.
        -11    1    6    6    0    0 -0.67320130240E+02  0.17093408506E+02 -0.27830611897E+02  0.74824645061E+02  0.00000000000E+00 0.  1.
         12    1    6    6    0    0  0.13130904307E+02 -0.83582558241E+01 -0.45591044437E+02  0.48174935612E+02  0.00000000000E+00 0. -1.
         -5    1    3    3    0  503 -0.11242046690E+02  0.27282458995E+02 -0.28765206554E+03  0.28919978733E+03  0.47000000000E+01 0.  1.
         13    1    4    4    0    0  0.45537368159E+02  0.11447134695E+02 -0.10031976085E+03  0.11076435893E+03  0.00000000000E+00 0. -1.
        -14    1    4    4    0    0 -0.41732406520E+01  0.27367190528E+02  0.24477485549E+01  0.27791554975E+02  0.00000000000E+00 0.  1.
</event>
<event>
12    1  0.8406581E-002  0.1992236E+03  0.7818608E-02  0.1151647E+00
         21   -1    0    0  501  502  0.00000000000E+00  0.00000000000E+00  0.23662787028E+04  0.23662787028E+04  0.00000000000E+00 0. -1.
         21   -1    0    0  502  503 -0.00000000000E+00 -0.00000000000E+00 -0.42430281634E+02  0.42430281634E+02  0.00000000000E+00 0. -1.
         -6    2    1    2    0  503 -0.24307413868E+02 -0.87050459691E+02  0.21001669912E+03  0.28550984502E+03  0.17099773329E+03 0.  0.
        -24    2    3    3    0    0 -0.22538670844E+02 -0.25012593066E+02  0.23371790444E+02  0.88760671497E+02  0.78731154702E+02 0.  0.
          6    2    1    2  501    0  0.24307413868E+02  0.87050459691E+02  0.21138317220E+04  0.21231991394E+04  0.17754268101E+03 0.  0.
         24    2    5    5    0    0  0.67083036892E+02  0.10208108482E+03  0.18243812690E+04  0.18301815147E+04  0.79225503481E+02 0.  0.
          5    1    5    5  501    0 -0.42775623024E+02 -0.15030625132E+02  0.28945045303E+03  0.29301762469E+03  0.47000000000E+01 0. -1.
        -13    1    6    6    0    0 -0.14207116833E+01  0.60311056328E+02  0.55553365142E+03  0.55879967770E+03  0.00000000000E+00 0.  1.
         14    1    6    6    0    0  0.68503748576E+02  0.41770028495E+02  0.12688476175E+04  0.12713818370E+04  0.00000000000E+00 0. -1.
         -5    1    3    3    0  503 -0.17687430248E+01 -0.62037866626E+02  0.18664490867E+03  0.19674917352E+03  0.47000000000E+01 0.  1.
         13    1    4    4    0    0 -0.13698745873E+02  0.24006932186E+02  0.27231250207E+02  0.38801152294E+02  0.00000000000E+00 0. -1.
        -14    1    4    4    0    0 -0.88399249704E+01 -0.49019525251E+02 -0.38594597630E+01  0.49959519203E+02  0.00000000000E+00 0.  1.
</event>
<event>
12    1  0.8406581E-002  0.2093393E+03  0.7818608E-02  0.1142371E+00
         21   -1    0    0  501  502  0.00000000000E+00  0.00000000000E+00  0.30881299278E+03  0.30881299278E+03  0.00000000000E+00 0. -1.
         21   -1    0    0  502  503 -0.00000000000E+00 -0.00000000000E+00 -0.15179900563E+03  0.15179900563E+03  0.00000000000E+00 0. -1.
         -6    2    1    2    0  503  0.48830621612E+02  0.10658773743E+03  0.13981569925E+03  0.25056742575E+03  0.17172719560E+03 0.  0.
        -24    2    3    3    0    0  0.99334666380E+02  0.58476624026E+02  0.80991843161E+02  0.15920182053E+03  0.74152879238E+02 0.  0.
          6    2    1    2  501    0 -0.48830621612E+02 -0.10658773743E+03  0.17198287895E+02  0.21004457267E+03  0.17342885003E+03 0.  0.
         24    2    5    5    0    0 -0.42874246586E+02 -0.14345133708E+03  0.83440087411E+01  0.17138074407E+03  0.82977405502E+02 0.  0.
          5    1    5    5  501    0 -0.59563750263E+01  0.36863599650E+02  0.88542791539E+01  0.38663828599E+02  0.47000000000E+01 0. -1.
        -13    1    6    6    0    0  0.20989736371E+02 -0.12186331529E+02 -0.50515612423E+01  0.24791006031E+02  0.00000000000E+00 0.  1.
         14    1    6    6    0    0 -0.63863982956E+02 -0.13126500556E+03  0.13395569983E+02  0.14658973804E+03  0.00000000000E+00 0. -1.
         -5    1    3    3    0  503 -0.50504044768E+02  0.48111113409E+02  0.58823856089E+02  0.91365605216E+02  0.47000000000E+01 0.  1.
         11    1    4    4    0    0  0.18354655807E+02  0.49183350919E+02  0.48440734377E+02  0.71431086681E+02  0.00000000000E+00 0. -1.
        -12    1    4    4    0    0  0.80980010573E+02  0.92932731064E+01  0.32551108784E+02  0.87770733849E+02  0.00000000000E+00 0.  1.
</event>
<event>
12    1  0.8406581E-002  0.1833375E+03  0.7818608E-02  0.1164716E+00
         21   -1    0    0  501  502  0.00000000000E+00  0.00000000000E+00  0.24317613319E+03  0.24317613319E+03  0.00000000000E+00 0.  1.
         21   -1    0    0  502  503 -0.00000000000E+00 -0.00000000000E+00 -0.16051221988E+03  0.16051221988E+03  0.00000000000E+00 0.  1.
         -6    2    1    2    0  503 -0.43959170382E+02  0.44760979994E+02  0.11706460707E+03  0.21715136884E+03  0.17179825602E+03 0.  0.
        -24    2    3    3    0    0 -0.24553933313E+02  0.95323798626E+02  0.93768781576E+02  0.15800792170E+03  0.80525751765E+02 0.  0.
          6    2    1    2  501    0  0.43959170382E+02 -0.44760979994E+02 -0.34400693755E+02  0.18653698423E+03  0.17226922176E+03 0.  0.
         24    2    5    5    0    0 -0.31609721819E+02 -0.69518197215E+01 -0.51245405362E+02  0.10024663496E+03  0.79848568796E+02 0.  0.
          5    1    5    5  501    0  0.75568892201E+02 -0.37809160273E+02  0.16844711608E+02  0.86290349276E+02  0.47000000000E+01 0. -1.
        -13    1    6    6    0    0 -0.45870158616E+00  0.23031547487E+02 -0.52138751833E+02  0.57000982707E+02  0.00000000000E+00 0.  1.
         14    1    6    6    0    0 -0.31151020233E+02 -0.29983367209E+02  0.89334647092E+00  0.43245652251E+02  0.00000000000E+00 0. -1.
         -5    1    3    3    0  503 -0.19405237069E+02 -0.50562818632E+02  0.23295825490E+02  0.59143447134E+02  0.47000000000E+01 0.  1.
         13    1    4    4    0    0 -0.17751730868E+02  0.53174887240E+02  0.12053282433E+01  0.56072679604E+02  0.00000000000E+00 0. -1.
        -14    1    4    4    0    0 -0.68022024449E+01  0.42148911386E+02  0.92563453332E+02  0.10193524210E+03  0.00000000000E+00 0.  1.
</event>
<event>
12    1  0.8406581E-002  0.1807623E+03  0.7818608E-02  0.1167902E+00
         21   -1    0    0  503  502  0.00000000000E+00  0.00000000000E+00  0.56773499993E+03  0.56773499993E+03  0.00000000000E+00 0. -1.
         21   -1    0    0  501  503 -0.00000000000E+00 -0.00000000000E+00 -0.16121649881E+03  0.16121649881E+03  0.00000000000E+00 0.  1.
          6    2    1    2  501    0  0.29223621478E+01 -0.59324843956E+02 -0.91213429405E+02  0.19941198783E+03  0.16708463088E+03 0.  0.
         24    2    3    3    0    0 -0.13271399284E+01  0.32077120594E+02 -0.58336616669E+02  0.10207056701E+03  0.77359788258E+02 0.  0.
         -6    2    1    2    0  502 -0.29223621478E+01  0.59324843956E+02  0.49773193052E+03  0.52953951091E+03  0.17072504693E+03 0.  0.
        -24    2    5    5    0    0 -0.16069255539E+02  0.50803840362E+02  0.50362957655E+03  0.51215214375E+03  0.76274614376E+02 0.  0.
          5    1    3    3  501    0  0.42495020762E+01 -0.91401964550E+02 -0.32876812736E+02  0.97341420820E+02  0.47000000000E+01 0. -1.
        -13    1    4    4    0    0  0.56693503724E+01 -0.53533098114E+01 -0.63202993089E+02  0.63682162298E+02  0.00000000000E+00 0.  1.
         14    1    4    4    0    0 -0.69964903008E+01  0.37430430405E+02  0.48663764199E+01  0.38388404712E+02  0.00000000000E+00 0. -1.
         -5    1    5    5    0  502  0.13146893391E+02  0.85210035944E+01 -0.58976460351E+01  0.17387367163E+02  0.47000000000E+01 0.  1.
         13    1    6    6    0    0  0.24739540376E+02  0.34285319504E+02  0.15176667490E+03  0.15754571274E+03  0.00000000000E+00 0. -1.
        -14    1    6    6    0    0 -0.40808795915E+02  0.16518520858E+02  0.35186290165E+03  0.35460643101E+03  0.00000000000E+00 0.  1.
</event>
<event>
12    1  0.8406581E-002  0.1970524E+03  0.7818608E-02  0.1154525E+00
         21   -1    0    0  503  502  0.00000000000E+00  0.00000000000E+00  0.40706199107E+03  0.40706199107E+03  0.00000000000E+00 0. -1.
         21   -1    0    0  501  503 -0.00000000000E+00 -0.00000000000E+00 -0.90531949025E+02  0.90531949025E+02  0.00000000000E+00 0. -1.
          6    2    1    2  501    0  0.43098555870E+02 -0.88921828766E+02  0.14799160933E+03  0.23829708048E+03  0.15849102493E+03 0.  0.
         24    2    3    3    0    0 -0.15873769543E+02 -0.28477723335E+02  0.39469537588E+02  0.10070945348E+03  0.86727114202E+02 0.  0.
         -6    2    1    2    0  502 -0.43098555870E+02  0.88921828766E+02  0.16853843271E+03  0.25929685962E+03  0.17048484084E+03 0.  0.
        -24    2    5    5    0    0 -0.35870983183E+02  0.83632115098E+02  0.19587531117E+03  0.23014872414E+03  0.79499934497E+02 0.  0.
          5    1    3    3  501    0  0.58972325413E+02 -0.60444105431E+02  0.10852207174E+03  0.13758762699E+03  0.47000000000E+01 0. -1.
        -13    1    4    4    0    0  0.73238382702E+00  0.27987936168E+02  0.30105911241E+02  0.41112368561E+02  0.00000000000E+00 0.  1.
         14    1    4    4    0    0 -0.16606153371E+02 -0.56465659504E+02  0.93636263471E+01  0.59597084923E+02  0.00000000000E+00 0. -1.
         -5    1    5    5    0  502 -0.72275726864E+01  0.52897136682E+01 -0.27336878464E+02  0.29148135477E+02  0.47000000000E+01 0.  1.
         11    1    6    6    0    0 -0.43638640731E+02  0.49945715820E+02  0.58328129959E+02  0.88323701452E+02  0.00000000000E+00 0. -1.
        -12    1    6    6    0    0  0.77676575479E+01  0.33686399278E+02  0.13754718122E+03  0.14182502269E+03  0.00000000000E+00 0.  1.
</event>
<event>
12    1  0.8406581E-002  0.2214228E+03  0.7818608E-02  0.1132922E+00
         21   -1    0    0  501  502  0.00000000000E+00  0.00000000000E+00  0.17567666166E+03  0.17567666166E+03  0.00000000000E+00 0.  1.
         21   -1    0    0  502  503 -0.00000000000E+00 -0.00000000000E+00 -0.28331249508E+03  0.28331249508E+03  0.00000000000E+00 0. -1.
         -6    2    1    2    0  503  0.13817429139E+03 -0.15881359049E+02 -0.23644462105E+02  0.22217145648E+03  0.17162966853E+03 0.  0.
        -24    2    3    3    0    0  0.25087301632E+01 -0.21356137307E+02 -0.26124555766E+02  0.86291514754E+02  0.79381073165E+02 0.  0.
          6    2    1    2  501    0 -0.13817429139E+03  0.15881359049E+02 -0.83991371313E+02  0.23681770025E+03  0.17228964081E+03 0.  0.
         24    2    5    5    0    0 -0.22624928783E+00  0.82126285444E+01 -0.49279283814E+02  0.94285280201E+02  0.79961039219E+02 0.  0.
          5    1    5    5  501    0 -0.13794804210E+03  0.76687305041E+01 -0.34712087499E+02  0.14253242005E+03  0.47000000000E+01 0. -1.
        -13    1    6    6    0    0  0.51171726833E+01 -0.35740458452E+02 -0.22278131468E+02  0.42425004046E+02  0.00000000000E+00 0.  1.
         14    1    6    6    0    0 -0.53434219711E+01  0.43953086996E+02 -0.27001152346E+02  0.51860276155E+02  0.00000000000E+00 0. -1.
         -5    1    3    3    0  503  0.13566556123E+03  0.54747782587E+01  0.24800936606E+01  0.13587994173E+03  0.47000000000E+01 0.  1.
         13    1    4    4    0    0 -0.64766964738E+01  0.29444769133E+02 -0.14281297051E+02  0.33360117985E+02  0.00000000000E+00 0. -1.
        -14    1    4    4    0    0  0.89854266371E+01 -0.50800906440E+02 -0.11843258715E+02  0.52931396769E+02  0.00000000000E+00 0.  1.
</event>
<event>
12    1  0.8406581E-002  0.2217176E+03  0.7818608E-02  0.1132725E+00
         21   -1    0    0  503  502  0.00000000000E+00  0.00000000000E+00  0.94116883871E+02  0.94116883871E+02  0.00000000000E+00 0.  1.
         21   -1    0    0  501  503 -0.00000000000E+00 -0.00000000000E+00 -0.61598404722E+03  0.61598404722E+03  0.00000000000E+00 0.  1.
          6    2    1    2  501    0 -0.35579085559E+02 -0.13395209885E+03 -0.40078830334E+03  0.45802835861E+03  0.17305975002E+03 0.  0.
         24    2    3    3    0    0 -0.32764666375E+02 -0.13683922564E+03 -0.19904664922E+03  0.25619168834E+03  0.78842346314E+02 0.  0.
         -6    2    1    2    0  502  0.35579085559E+02  0.13395209885E+03 -0.12107886000E+03  0.25207257248E+03  0.17225404303E+03 0.  0.
        -24    2    5    5    0    0  0.38714940022E+02  0.34887599746E+02 -0.11166753377E+03  0.15240175615E+03  0.89669760689E+02 0.  0.
          5    1    3    3  501    0 -0.28144191837E+01  0.28871267917E+01 -0.20174165413E+03  0.20183667027E+03  0.47000000000E+01 0. -1.
        -13    1    4    4    0    0 -0.40488738398E+02 -0.39278209908E+02 -0.11116413722E+03  0.12465785621E+03  0.00000000000E+00 0.  1.
         14    1    4    4    0    0  0.77240720226E+01 -0.97561015735E+02 -0.87882511994E+02  0.13153383213E+03  0.00000000000E+00 0. -1.
         -5    1    5    5    0  502 -0.31358544633E+01  0.99064499105E+02 -0.94113262313E+01  0.99670816328E+02  0.47000000000E+01 0.  1.
         13    1    6    6    0    0  0.29232247463E+02 -0.17003423508E+02 -0.60650249738E+01  0.34357316989E+02  0.00000000000E+00 0. -1.
        -14    1    6    6    0    0  0.94826925593E+01  0.51891023254E+02 -0.10560250880E+03  0.11804443916E+03  0.00000000000E+00 0.  1.
</event>
<event>
12    1  0.8406581E-002  0.2032805E+03  0.7818608E-02  0.1147303E+00
         21   -1    0    0  503  502  0.00000000000E+00  0.00000000000E+00  0.37627037897E+02  0.37627037897E+02  0.00000000000E+00 0. -1.
         21   -1    0    0  501  503 -0.00000000000E+00 -0.00000000000E+00 -0.12613045886E+04  0.12613045886E+04  0.00000000000E+00 0.  1.
          6    2    1    2  501    0  0.48941018074E+02  0.97202771188E+02 -0.84903826793E+03  0.87269514339E+03  0.16996243973E+03 0.  0.
         24    2    3    3    0    0 -0.33853045720E+02  0.55464312244E+02 -0.34898402852E+03  0.36409580373E+03  0.80954206165E+02 0.  0.
         -6    2    1    2    0  502 -0.48941018074E+02 -0.97202771188E+02 -0.37463928278E+03  0.42623648311E+03  0.17169550185E+03 0.  0.
        -24    2    5    5    0    0 -0.64910787404E+02 -0.10039625414E+03 -0.38207277440E+03  0.40772760245E+03  0.77261728509E+02 0.  0.
          5    1    3    3  501    0  0.82794063794E+02  0.41738458944E+02 -0.50005423941E+03  0.50859933966E+03  0.47000000000E+01 0. -1.
        -13    1    4    4    0    0  0.21904741055E+02  0.10928586422E+02 -0.16413762952E+03  0.16595304488E+03  0.00000000000E+00 0.  1.
         14    1    4    4    0    0 -0.55757786775E+02  0.44535725821E+02 -0.18484639900E+03  0.19814275885E+03  0.00000000000E+00 0. -1.
         -5    1    5    5    0  502  0.15969769331E+02  0.31934829557E+01  0.74334916165E+01  0.18508880665E+02  0.47000000000E+01 0.  1.
         11    1    6    6    0    0 -0.38697225902E+02 -0.10742471937E+03 -0.28770100351E+03  0.30953095652E+03  0.00000000000E+00 0. -1.
        -12    1    6    6    0    0 -0.26213561502E+02  0.70284652280E+01 -0.94371770892E+02  0.98196645928E+02  0.00000000000E+00 0.  1.
</event>
<event>
12    1  0.8406581E-002  0.2064386E+03  0.7818608E-02  0.1144452E+00
         21   -1    0    0  501  502  0.00000000000E+00  0.00000000000E+00  0.42437380011E+03  0.42437380011E+03  0.00000000000E+00 0.  1.
         21   -1    0    0  502  503 -0.00000000000E+00 -0.00000000000E+00 -0.14604177698E+03  0.14604177698E+03  0.00000000000E+00 0.  1.
         -6    2    1    2    0  503  0.11644975339E+03  0.34239869935E+02 -0.20422123384E+02  0.20727520018E+03  0.16677239499E+03 0.  0.
        -24    2    3    3    0    0  0.27234630504E+02  0.52484678677E+02 -0.50688679352E+02  0.11120040844E+03  0.79371418213E+02 0.  0.
          6    2    1    2  501    0 -0.11644975339E+03 -0.34239869935E+02  0.29875414652E+03  0.36314037691E+03  0.16698496795E+03 0.  0.
         24    2    5    5    0    0 -0.45192872329E+02  0.41368273307E+02  0.12571591006E+03  0.16125314180E+03  0.80276746029E+02 0.  0.
          5    1    5    5  501    0 -0.71256881062E+02 -0.75608143241E+02  0.17303823646E+03  0.20188723511E+03  0.47000000000E+01 0. -1.
        -13    1    6    6    0    0 -0.55776391868E+02 -0.23170516608E+01  0.74804425457E+02  0.93338505914E+02  0.00000000000E+00 0.  1.
         14    1    6    6    0    0  0.10583519539E+02  0.43685324967E+02  0.50911484601E+02  0.67914635887E+02  0.00000000000E+00 0. -1.
         -5    1    3    3    0  503  0.89215122887E+02 -0.18244808742E+02  0.30266555968E+02  0.96074791741E+02  0.47000000000E+01 0.  1.
         13    1    4    4    0    0 -0.21931807691E+02  0.38597350414E+01 -0.33022405481E+02  0.39829398777E+02  0.00000000000E+00 0. -1.
        -14    1    4    4    0    0  0.49166438195E+02  0.48624943635E+02 -0.17666273871E+02  0.71371009667E+02  0.00000000000E+00 0.  1.
</event>
<event>
12    1  0.8406581E-002  0.1867583E+03  0.7818608E-02  0.1162041E+00
         21   -1    0    0  503  502  0.00000000000E+00  0.00000000000E+00  0.20909189421E+03  0.20909189421E+03  0.00000000000E+00 0. -1.
         21   -1    0    0  501  503 -0.00000000000E+00 -0.00000000000E+00 -0.25563802477E+03  0.25563802477E+03  0.00000000000E+00 0. -1.
          6    2    1    2  501    0  0.71450637539E+02 -0.15268642105E+02 -0.16196259538E+03  0.24518576407E+03  0.16895517620E+03 0.  0.
         24    2    3    3    0    0  0.46479081028E+02 -0.64251297622E+02 -0.53980116980E+02  0.12392082760E+03  0.78447334339E+02 0.  0.
         -6    2    1    2    0  502 -0.71450637539E+02  0.15268642105E+02  0.11541646481E+03  0.21954415491E+03  0.17187306527E+03 0.  0.
        -24    2    5    5    0    0 -0.10519515061E+03  0.29442917844E+02  0.12178223990E+03  0.18209798891E+03  0.79974111352E+02 0.  0.
          5    1    3    3  501    0  0.24971556511E+02  0.48982655517E+02 -0.10798247840E+03  0.12126493647E+03  0.47000000000E+01 0. -1.
        -13    1    4    4    0    0  0.29601348576E+02 -0.33287695247E+02  0.14539936876E+02  0.46858513172E+02  0.00000000000E+00 0.  1.
         14    1    4    4    0    0  0.16877732452E+02 -0.30963602375E+02 -0.68520053856E+02  0.77062314430E+02  0.00000000000E+00 0. -1.
         -5    1    5    5    0  502  0.33744513075E+02 -0.14174275738E+02 -0.63657750850E+01  0.37446165996E+02  0.47000000000E+01 0.  1.
         11    1    6    6    0    0 -0.77518741187E+02  0.53798882680E+02  0.65681275814E+02  0.11496740845E+03  0.00000000000E+00 0. -1.
        -12    1    6    6    0    0 -0.27676409427E+02 -0.24355964837E+02  0.56100964083E+02  0.67130580461E+02  0.00000000000E+00 0.  1.
</event>
<event>
12    1  0.8406581E-002  0.1848721E+03  0.7818608E-02  0.1163419E+00
         21   -1    0    0  501  502  0.00000000000E+00  0.00000000000E+00  0.66887723781E+02  0.66887723781E+02  0.00000000000E+00 0. -1.
         21   -1    0    0  502  503 -0.00000000000E+00 -0.00000000000E+00 -0.68665081779E+03  0.68665081779E+03  0.00000000000E+00 0. -1.
         -6    2    1    2    0  503  0.68050155400E+02 -0.40401988186E+01 -0.50138223444E+03  0.53401243161E+03  0.17069852150E+03 0.  0.
        -24    2    3    3    0    0  0.17607926426E+02  0.55058258898E+02 -0.20660062764E+03  0.22912666304E+03  0.80459663356E+02 0.  0.
          6    2    1    2  501    0 -0.68050155400E+02  0.40401988186E+01 -0.11838085957E+03  0.21952610997E+03  0.17184451748E+03 0.  0.
         24    2    5    5    0    0 -0.10380402644E+02  0.25664078930E+02 -0.13068759302E+03  0.15654247509E+03  0.81608221594E+02 0.  0.
          5    1    5    5  501    0 -0.57669752756E+02 -0.21623880111E+02  0.12306733450E+02  0.62983634876E+02  0.47000000000E+01 0. -1.
        -11    1    6    6    0    0 -0.43816694295E+01 -0.72448973546E+01 -0.12157877357E+03  0.12187323639E+03  0.00000000000E+00 0.  1.
         12    1    6    6    0    0 -0.59987332143E+01  0.32908976285E+02 -0.91088194453E+01  0.34669238699E+02  0.00000000000E+00 0. -1.
         -5    1    3    3    0  503  0.50442228974E+02 -0.59098457717E+02 -0.29478160680E+03  0.30488576857E+03  0.47000000000E+01 0.  1.
         13    1    4    4    0    0 -0.81517898068E+01  0.20621096163E+02 -0.17335932120E+03  0.17477166684E+03  0.00000000000E+00 0. -1.
        -14    1    4    4    0    0  0.25759716232E+02  0.34437162735E+02 -0.33241306445E+02  0.54354996199E+02  0.00000000000E+00 0.  1.
</event>
<event>
12    1  0.8406581E-002  0.2388924E+03  0.7818608E-02  0.1120559E+00
         21   -1    0    0  503  502  0.00000000000E+00  0.00000000000E+00  0.12963695645E+03  0.12963695645E+03  0.00000000000E+00 0.  1.
         21   -1    0    0  501  503 -0.00000000000E+00 -0.00000000000E+00 -0.44009503621E+03  0.44009503621E+03  0.00000000000E+00 0. -1.
          6    2    1    2  501    0 -0.26759125789E+02 -0.16425490190E+03 -0.16053417960E+03  0.28769168659E+03  0.17117114272E+03 0.  0.
         24    2    3    3    0    0 -0.66802447406E+02 -0.51413212662E+02 -0.63813732326E+02  0.13369931873E+03  0.81837827321E+02 0.  0.
         -6    2    1    2    0  502  0.26759125789E+02  0.16425490190E+03 -0.14992390015E+03  0.28204030608E+03  0.17138796575E+03 0.  0.
        -24    2    5    5    0    0 -0.57487302992E+01  0.15293341927E+03 -0.16961612183E+03  0.24210523038E+03  0.80147583640E+02 0.  0.
          5    1    3    3  501    0  0.40043321617E+02 -0.11284168924E+03 -0.96720447274E+02  0.15399236785E+03  0.47000000000E+01 0. -1.
        -11    1    4    4    0    0  0.38602502116E+01  0.17010500941E+02 -0.18419674639E+02  0.25368151052E+02  0.00000000000E+00 0.  1.
         12    1    4    4    0    0 -0.70662697618E+02 -0.68423713604E+02 -0.45394057687E+02  0.10833116768E+03  0.00000000000E+00 0. -1.
         -5    1    5    5    0  502  0.32507856088E+02  0.11321482630E+02  0.19692221674E+02  0.39935075696E+02  0.47000000000E+01 0.  1.
         13    1    6    6    0    0  0.34786591512E+02  0.48276886107E+02 -0.46560510912E+02  0.75555581247E+02  0.00000000000E+00 0. -1.
        -14    1    6    6    0    0 -0.40535321811E+02  0.10465653316E+03 -0.12305561092E+03  0.16654964913E+03  0.00000000000E+00 0.  1.
</event>
<event>
12    1  0.8406581E-002  0.2383746E+03  0.7818608E-02  0.1121055E+00
         21   -1    0    0  503  502  0.00000000000E+00  0.00000000000E+00  0.11359296745E+04  0.11359296745E+04  0.00000000000E+00 0.  1.
         21   -1    0    0  501  503 -0.00000000000E+00 -0.00000000000E+00 -0.62938004718E+02  0.62938004718E+02  0.00000000000E+00 0. -1.
          6    2    1    2  501    0  0.36531943753E+02 -0.15912015162E+03  0.26360610183E+03  0.35540205993E+03  0.17369122520E+03 0.  0.
         24    2    3    3    0    0  0.73511429548E+02 -0.52328439406E+02  0.17355024726E+03  0.21081956061E+03  0.78632073391E+02 0.  0.
         -6    2    1    2    0  502 -0.36531943753E+02  0.15912015162E+03  0.80938556796E+03  0.84346561930E+03  0.17226563137E+03 0.  0.
        -24    2    5    5    0    0 -0.58069149650E+02  0.37453559321E+02  0.26365463157E+03  0.28390243622E+03  0.79448305826E+02 0.  0.
          5    1    3    3  501    0 -0.36979485794E+02 -0.10679171221E+03  0.90055854574E+02  0.14458249932E+03  0.47000000000E+01 0. -1.
        -13    1    4    4    0    0  0.43824843252E+02  0.14479197014E+02  0.58640143578E+02  0.74625266974E+02  0.00000000000E+00 0.  1.
         14    1    4    4    0    0  0.29686586296E+02 -0.66807636420E+02  0.11491010368E+03  0.13619429363E+03  0.00000000000E+00 0. -1.
         -5    1    5    5    0  502  0.21537205897E+02  0.12166659230E+03  0.54573093639E+03  0.55956318308E+03  0.47000000000E+01 0.  1.
         13    1    6    6    0    0 -0.50182158319E+02  0.36272041139E+02  0.85481533790E+02  0.10555094789E+03  0.00000000000E+00 0. -1.
        -14    1    6    6    0    0 -0.78869913309E+01  0.11815181816E+01  0.17817309778E+03  0.17835148833E+03  0.00000000000E+00 0.  1.
</event>
<event>
12    1  0.8406581E-002  0.1832538E+03  0.7818608E-02  0.1164755E+00
         21   -1    0    0  501  502  0.00000000000E+00  0.00000000000E+00  0.83029443987E+02  0.83029443987E+02  0.00000000000E+00 0. -1.
         21   -1    0    0  502  503 -0.00000000000E+00 -0.00000000000E+00 -0.42113561583E+03  0.42113561583E+03  0.00000000000E+00 0. -1.
         -6    2    1    2    0  503  0.51421292555E+02 -0.37877882138E+02 -0.22023466435E+03  0.28650522679E+03  0.17176453158E+03 0.  0.
        -24    2    3    3    0    0  0.15524004434E+02 -0.86751290458E+02 -0.11885434308E+03  0.16827965901E+03  0.80155521686E+02 0.  0.
          6    2    1    2  501    0 -0.51421292555E+02  0.37877882138E+02 -0.11787150749E+03  0.21765983303E+03  0.17147369289E+03 0.  0.
         24    2    5    5    0    0  0.34761991336E+02  0.39363895612E+02 -0.43320029338E+02  0.10359941241E+03  0.78091619203E+02 0.  0.
          5    1    5    5  501    0 -0.86183283892E+02 -0.14860134741E+01 -0.74551478149E+02  0.11406042062E+03  0.47000000000E+01 0. -1.
        -11    1    6    6    0    0  0.27195247699E+02  0.40212976007E+01 -0.58314012259E+02  0.64469189212E+02  0.00000000000E+00 0.  1.
         12    1    6    6    0    0  0.75667436374E+01  0.35342598011E+02  0.14993982921E+02  0.39130223195E+02  0.00000000000E+00 0. -1.
         -5    1    3    3    0  503  0.35897288121E+02  0.48873408320E+02 -0.10138032127E+03  0.11822556778E+03  0.47000000000E+01 0.  1.
         11    1    4    4    0    0  0.17939317997E+02 -0.70046886721E+02 -0.30752131297E+02  0.78575308137E+02  0.00000000000E+00 0. -1.
        -12    1    4    4    0    0 -0.24153135627E+01 -0.16704403736E+02 -0.88102211787E+02  0.89704350873E+02  0.00000000000E+00 0.  1.
</event>
<event>
12    1  0.8406581E-002  0.2672212E+03  0.7818608E-02  0.1102899E+00
         21   -1    0    0  503  502  0.00000000000E+00  0.00000000000E+00  0.33336797149E+03  0.33336797149E+03  0.00000000000E+00 0.  1.
         21   -1    0    0  501  503 -0.00000000000E+00 -0.00000000000E+00 -0.22030832335E+03  0.22030832335E+03  0.00000000000E+00 0.  1.
          6    2    1    2  501    0  0.19597072678E+03 -0.58739227983E+02  0.10299186468E+03  0.28626555432E+03  0.17171435799E+03 0.  0.
         24    2    3    3    0    0  0.13317926125E+03  0.15687651274E+02  0.18404216965E+02  0.15719468756E+03  0.79928946985E+02 0.  0.
         -6    2    1    2    0  502 -0.19597072678E+03  0.58739227983E+02  0.10067783467E+02  0.26741074052E+03  0.17190788586E+03 0.  0.
        -24    2    5    5    0    0 -0.20771841007E+03  0.17801739369E+02 -0.19175297379E+01  0.22291777738E+03  0.78897520516E+02 0.  0.
          5    1    3    3  501    0  0.62791465537E+02 -0.74426879257E+02  0.84587647713E+02  0.12907086676E+03  0.47000000000E+01 0. -1.
        -11    1    4    4    0    0  0.48046280043E+02  0.28528774476E+01  0.46207917755E+02  0.66721477793E+02  0.00000000000E+00 0.  1.
         12    1    4    4    0    0  0.85132981203E+02  0.12834773826E+02 -0.27803700790E+02  0.90473209766E+02  0.00000000000E+00 0. -1.
         -5    1    5    5    0  502  0.11747683287E+02  0.40937488614E+02  0.11985313205E+02  0.44492963144E+02  0.47000000000E+01 0.  1.
         11    1    6    6    0    0 -0.13756565893E+03  0.40169688001E+02  0.23081387618E+02  0.14515737944E+03  0.00000000000E+00 0. -1.
        -12    1    6    6    0    0 -0.70152751136E+02 -0.22367948633E+02 -0.24998917356E+02  0.77760397935E+02  0.00000000000E+00 0.  1.
</event>
<event>
12    1  0.8406581E-002  0.2059588E+03  0.7818608E-02  0.1144995E+00
         21   -1    0    0  503  502  0.00000000000E+00  0.00000000000E+00  0.14373580870E+03  0.14373580870E+03  0.00000000000E+00 0. -1.
         21   -1    0    0  501  503 -0.00000000000E+00 -0.00000000000E+00 -0.32374172089E+03  0.32374172089E+03  0.00000000000E+00 0.  1.
          6    2    1    2  501    0 -0.30547349774E+02 -0.10750774473E+03 -0.19093938651E+02  0.20684201098E+03  0.17299706141E+03 0.  0.
         24    2    3    3    0    0 -0.15926652969E+02 -0.51297816154E+02  0.55901961593E+02  0.11186940493E+03  0.80651163870E+02 0.  0.
         -6    2    1    2    0  502  0.30547349774E+02  0.10750774473E+03 -0.16091197354E+03  0.26063551861E+03  0.17189285783E+03 0.  0.
        -24    2    5    5    0    0  0.59002769423E+02  0.28334006413E+02 -0.13901086705E+03  0.17357266652E+03  0.80742223687E+02 0.  0.
          5    1    3    3  501    0 -0.14620696805E+02 -0.56209928580E+02 -0.74995900243E+02  0.94972606047E+02  0.47000000000E+01 0. -1.
        -11    1    4    4    0    0 -0.82799947916E+01  0.12674868116E+02 -0.11209302763E+02  0.18837703255E+02  0.00000000000E+00 0.  1.
         12    1    4    4    0    0 -0.76466581774E+01 -0.63972684269E+02  0.67111264356E+02  0.93031701679E+02  0.00000000000E+00 0. -1.
         -5    1    5    5    0  502 -0.28455419649E+02  0.79173738320E+02 -0.21901106489E+02  0.87062852081E+02  0.47000000000E+01 0.  1.
         11    1    6    6    0    0 -0.13805178873E+02 -0.11976752821E+02 -0.12497051344E+02  0.22140502798E+02  0.00000000000E+00 0. -1.
        -12    1    6    6    0    0  0.72807948296E+02  0.40310759234E+02 -0.12651381571E+03  0.15143216373E+03  0.00000000000E+00 0.  1.
</event>
<event>
12    1  0.8406581E-002  0.3993592E+03  0.7818608E-02  0.1044038E+00
         21   -1    0    0  501  502  0.00000000000E+00  0.00000000000E+00  0.14479358172E+04  0.14479358172E+04  0.00000000000E+00 0.  1.
         21   -1    0    0  502  503 -0.00000000000E+00 -0.00000000000E+00 -0.11035642683E+03  0.11035642683E+03  0.00000000000E+00 0.  1.
         -6    2    1    2    0  503 -0.30975213521E+03 -0.18350034267E+03  0.62691376061E+03  0.74330926428E+03  0.17282661281E+03 0.  0.
        -24    2    3    3    0    0 -0.12090558000E+03 -0.65705353014E+02  0.37863141555E+03  0.40983528648E+03  0.75285194497E+02 0.  0.
          6    2    1    2  501    0  0.30975213521E+03  0.18350034267E+03  0.71066562976E+03  0.81498297975E+03  0.17185126980E+03 0.  0.
         24    2    5    5    0    0  0.19635986652E+03  0.40584178425E+02  0.38183612172E+03  0.43890616318E+03  0.81458722752E+02 0.  0.
          5    1    5    5  501    0  0.11339226870E+03  0.14291616424E+03  0.32882950804E+03  0.37607681657E+03  0.47000000000E+01 0. -1.
        -13    1    6    6    0    0  0.18844357823E+03  0.46200747156E+02  0.30516419541E+03  0.36162228551E+03  0.00000000000E+00 0.  1.
         14    1    6    6    0    0  0.79162882836E+01 -0.56165687308E+01  0.76671926307E+02  0.77283877673E+02  0.00000000000E+00 0. -1.
         -5    1    3    3    0  503 -0.18884655521E+03 -0.11779498966E+03  0.24828234505E+03  0.33347397780E+03  0.47000000000E+01 0.  1.
         11    1    4    4    0    0  0.47241228102E+01 -0.23653449027E+02  0.50334923284E+02  0.55815835470E+02  0.00000000000E+00 0. -1.
        -12    1    4    4    0    0 -0.12562970281E+03 -0.42051903987E+02  0.32829649227E+03  0.35401945101E+03  0.00000000000E+00 0.  1.
</event>
<event>
12    1  0.8406581E-002  0.1856404E+03  0.7818608E-02  0.1162543E+00
         21   -1    0    0  503  502  0.00000000000E+00  0.00000000000E+00  0.47451697437E+02  0.47451697437E+02  0.00000000000E+00 0.  1.
         21   -1    0    0  501  503 -0.00000000000E+00 -0.00000000000E+00 -0.89992047937E+03  0.89992047937E+03  0.00000000000E+00 0.  1.
          6    2    1    2  501    0 -0.42027676090E+02  0.56087164815E+02 -0.63557514522E+03  0.66213149854E+03  0.17190189215E+03 0.  0.
         24    2    3    3    0    0 -0.36543118062E+02  0.96691621564E+02 -0.38974154435E+03  0.41286246396E+03  0.88725833872E+02 0.  0.
         -6    2    1    2    0  502  0.42027676090E+02 -0.56087164815E+02 -0.21689363671E+03  0.28524067827E+03  0.17148556579E+03 0.  0.
        -24    2    5    5    0    0  0.22032030069E+02  0.22988061659E+02 -0.17107560640E+03  0.19157051651E+03  0.80115780978E+02 0.  0.
          5    1    3    3  501    0 -0.54845580280E+01 -0.40604456749E+02 -0.24583360086E+03  0.24926903458E+03  0.47000000000E+01 0. -1.
        -11    1    4    4    0    0 -0.19921032503E+02  0.18454114057E+02 -0.25294850806E+03  0.25440194495E+03  0.00000000000E+00 0.  1.
         12    1    4    4    0    0 -0.16622085559E+02  0.78237507507E+02 -0.13679303629E+03  0.15846051902E+03  0.00000000000E+00 0. -1.
         -5    1    5    5    0  502  0.19995646021E+02 -0.79075226475E+02 -0.45818030311E+02  0.93670161756E+02  0.47000000000E+01 0.  1.
         13    1    6    6    0    0  0.50295446248E+02  0.55801771119E+01 -0.12436846129E+03  0.13426944721E+03  0.00000000000E+00 0. -1.
        -14    1    6    6    0    0 -0.28263416178E+02  0.17407884547E+02 -0.46707145110E+02  0.57301069299E+02  0.00000000000E+00 0.  1.
</event>
<event>
12    1  0.8406581E-002  0.2058318E+03  0.7818608E-02  0.1145950E+00
         21   -1    0    0  503  502  0.00000000000E+00  0.00000000000E+00  0.29053236677E+03  0.29053236677E+03  0.00000000000E+00 0.  1.
         21   -1    0    0  501  503 -0.00000000000E+00 -0.00000000000E+00 -0.20433845330E+03  0.20433845330E+03  0.00000000000E+00 0.  1.
          6    2    1    2  501    0 -0.92859016327E+02 -0.46465611134E+02 -0.92897080122E+02  0.22582427387E+03  0.17772136969E+03 0.  0.
         24    2    3    3    0    0 -0.12669087282E+03 -0.38322502334E+02 -0.10691012875E+03  0.18801739267E+03  0.80009829862E+02 0.  0.
         -6    2    1    2    0  502  0.92859016327E+02  0.46465611134E+02  0.17909099360E+03  0.26904654620E+03  0.17184472672E+03 0.  0.
        -24    2    5    5    0    0  0.12703805435E+02  0.74448841683E+02  0.70137236043E+02  0.13084043088E+03  0.80597579200E+02 0.  0.
          5    1    3    3  501    0  0.33831856491E+02 -0.81431088008E+01  0.14013048629E+02  0.37806881205E+02  0.47000000000E+01 0. -1.
        -11    1    4    4    0    0 -0.10917933274E+03 -0.72955855559E+01 -0.48702363652E+02  0.11977175164E+03  0.00000000000E+00 0.  1.
         12    1    4    4    0    0 -0.17511540076E+02 -0.31026916778E+02 -0.58207765100E+02  0.68245641022E+02  0.00000000000E+00 0. -1.
         -5    1    5    5    0  502  0.80155210893E+02 -0.27983230548E+02  0.10895375756E+03  0.13820611532E+03  0.47000000000E+01 0.  1.
         13    1    6    6    0    0 -0.27080616919E+02  0.46046088425E+01  0.31060902545E+02  0.41464947874E+02  0.00000000000E+00 0. -1.
        -14    1    6    6    0    0  0.39784422354E+02  0.69844232840E+02  0.39076333499E+02  0.89375483007E+02  0.00000000000E+00 0.  1.
</event>
<event>
12    1  0.8406581E-002  0.1728332E+03  0.7818608E-02  0.1175199E+00
         21   -1    0    0  503  502  0.00000000000E+00  0.00000000000E+00  0.19371248400E+03  0.19371248400E+03  0.00000000000E+00 0. -1.
         21   -1    0    0  501  503 -0.00000000000E+00 -0.00000000000E+00 -0.15341728231E+03  0.15341728231E+03  0.00000000000E+00 0. -1.
          6    2    1    2  501    0 -0.20817979456E+01  0.17433388707E+00  0.14475303122E+02  0.17343827832E+03  0.17282053613E+03 0.  0.
         24    2    3    3    0    0  0.19684190007E+02 -0.18936844524E+02 -0.52740935960E+02  0.10009587470E+03  0.80569885127E+02 0.  0.
         -6    2    1    2    0  502  0.20817979456E+01 -0.17433388707E+00  0.25819898569E+02  0.17369148800E+03  0.17174894924E+03 0.  0.
        -24    2    5    5    0    0 -0.28973301531E+02  0.26065505612E+02 -0.39108094098E+02  0.96940705513E+02  0.79681833419E+02 0.  0.
          5    1    3    3  501    0 -0.21765987952E+02  0.19111178411E+02  0.67216239082E+02  0.73342403616E+02  0.47000000000E+01 0. -1.
        -11    1    4    4    0    0  0.26566119976E+02  0.26914728899E+02 -0.16559552909E+02  0.41284139265E+02  0.00000000000E+00 0.  1.
         12    1    4    4    0    0 -0.68819299688E+01 -0.45851573424E+02 -0.36181383051E+02  0.58811735436E+02  0.00000000000E+00 0. -1.
         -5    1    5    5    0  502  0.31055099477E+02 -0.26239839499E+02  0.64927992667E+02  0.76750782486E+02  0.47000000000E+01 0.  1.
         11    1    6    6    0    0 -0.35857723892E+02  0.20850500035E+02  0.13505893580E+02  0.43622573008E+02  0.00000000000E+00 0. -1.
        -12    1    6    6    0    0  0.68844223612E+01  0.52150055771E+01 -0.52613987678E+02  0.53318132505E+02  0.00000000000E+00 0.  1.
</event>
<event>
12    1  0.8406581E-002  0.1923904E+03  0.7818608E-02  0.1156684E+00
         21   -1    0    0  501  502  0.00000000000E+00  0.00000000000E+00  0.47108061302E+03  0.47108061302E+03  0.00000000000E+00 0.  1.
         21   -1    0    0  502  503 -0.00000000000E+00 -0.00000000000E+00 -0.11007654564E+03  0.11007654564E+03  0.00000000000E+00 0.  1.
         -6    2    1    2    0  503 -0.53780930593E+02  0.63705811921E+02  0.23968658540E+02  0.19387769712E+03  0.17338755976E+03 0.  0.
        -24    2    3    3    0    0 -0.98627591225E+02  0.16945052386E+02  0.11956550206E+02  0.12781581440E+03  0.78609075598E+02 0.  0.
          6    2    1    2  501    0  0.53780930593E+02 -0.63705811921E+02  0.33703540885E+03  0.38727946154E+03  0.17158582559E+03 0.  0.
         24    2    5    5    0    0  0.75637492343E+02  0.80442990845E+01  0.17201982064E+03  0.20595648430E+03  0.83913727953E+02 0.  0.
          5    1    5    5  501    0 -0.21856561749E+02 -0.71750111005E+02  0.16501558821E+03  0.18132297723E+03  0.47000000000E+01 0. -1.
        -13    1    6    6    0    0  0.46011587948E+02 -0.22352077280E+02  0.14928446570E+03  0.15780536520E+03  0.00000000000E+00 0.  1.
         14    1    6    6    0    0  0.29625904395E+02  0.30396376365E+02  0.22735354933E+02  0.48151119107E+02  0.00000000000E+00 0. -1.
         -5    1    3    3    0  503  0.44846660632E+02  0.46760759535E+02  0.12012108334E+02  0.66061882721E+02  0.47000000000E+01 0.  1.
         11    1    4    4    0    0  0.72806862306E+01  0.81879573077E+01  0.18330075142E+02  0.21355156088E+02  0.00000000000E+00 0. -1.
        -12    1    4    4    0    0 -0.10590827746E+03  0.87570950787E+01 -0.63735249358E+01  0.10646065831E+03  0.00000000000E+00 0.  1.
</event>
<event>
12    1  0.8406581E-002  0.1937489E+03  0.7818608E-02  0.1155845E+00
         21   -1    0    0  503  502  0.00000000000E+00  0.00000000000E+00  0.29596297059E+03  0.29596297059E+03  0.00000000000E+00 0.  1.
         21   -1    0    0  501  503 -0.00000000000E+00 -0.00000000000E+00 -0.20704939028E+03  0.20704939028E+03  0.00000000000E+00 0. -1.
          6    2    1    2  501    0  0.75498650557E+02  0.39882934846E+02 -0.11436688831E+03  0.22218930736E+03  0.17028684164E+03 0.  0.
         24    2    3    3    0    0  0.59887096597E+02  0.90521186877E+02 -0.99146970993E+02  0.16685677562E+03  0.78933592973E+02 0.  0.
         -6    2    1    2    0  502 -0.75498650557E+02 -0.39882934846E+02  0.20328046861E+03  0.28082305352E+03  0.17391935987E+03 0.  0.
        -24    2    5    5    0    0 -0.10862957599E+03 -0.11793137952E+02  0.19308402259E+03  0.23595934412E+03  0.80348674005E+02 0.  0.
          5    1    3    3  501    0  0.15611553959E+02 -0.50638252031E+02 -0.15219917314E+02  0.55332531741E+02  0.47000000000E+01 0. -1.
        -13    1    4    4    0    0  0.22354347152E+02  0.47722674581E+02 -0.19483052052E+00  0.52699226415E+02  0.00000000000E+00 0.  1.
         14    1    4    4    0    0  0.37532749446E+02  0.42798512296E+02 -0.98952140472E+02  0.11415754920E+03  0.00000000000E+00 0. -1.
         -5    1    5    5    0  502  0.33130925432E+02 -0.28089796893E+02  0.10196446022E+02  0.44863709398E+02  0.47000000000E+01 0.  1.
         13    1    6    6    0    0 -0.54907835576E+02 -0.14258405357E+02  0.29867113928E+02  0.64110974297E+02  0.00000000000E+00 0. -1.
        -14    1    6    6    0    0 -0.53721740412E+02  0.24652674049E+01  0.16321690866E+03  0.17184836982E+03  0.00000000000E+00 0.  1.
</event>
<event>
12    1  0.8406581E-002  0.1803380E+03  0.7818608E-02  0.1167838E+00
         21   -1    0    0  501  502  0.00000000000E+00  0.00000000000E+00  0.65467141926E+03  0.65467141926E+03  0.00000000000E+00 0. -1.
         21   -1    0    0  502  503 -0.00000000000E+00 -0.00000000000E+00 -0.69664340273E+02  0.69664340273E+02  0.00000000000E+00 0. -1.
         -6    2    1    2    0  503  0.31550741601E+02 -0.39352126622E+02  0.95669911829E+02  0.20282576410E+03  0.17158531227E+03 0.  0.
        -24    2    3    3    0    0  0.74031340784E+02  0.82225870082E+01  0.36687170485E+02  0.11582571547E+03  0.80755170305E+02 0.  0.
          6    2    1    2  501    0 -0.31550741601E+02  0.39352126622E+02  0.48933716716E+03  0.52150999544E+03  0.17314090508E+03 0.  0.
         24    2    5    5    0    0 -0.80974976442E+02  0.57342067962E+02  0.36248004581E+03  0.38410107209E+03  0.79352318186E+02 0.  0.
          5    1    5    5  501    0  0.49424234841E+02 -0.17989941339E+02  0.12685712135E+03  0.13740892335E+03  0.47000000000E+01 0. -1.
        -13    1    6    6    0    0 -0.42772377839E+02  0.27083822831E+02  0.63675814684E+02  0.81348750088E+02  0.00000000000E+00 0.  1.
         14    1    6    6    0    0 -0.38202598603E+02  0.30258245130E+02  0.29880423112E+03  0.30275232200E+03  0.00000000000E+00 0. -1.
         -5    1    3    3    0  503 -0.42480599184E+02 -0.47574713631E+02  0.58982741344E+02  0.87000048623E+02  0.47000000000E+01 0.  1.
         11    1    4    4    0    0  0.32963074991E+02  0.40866148088E+02  0.12524340338E+01  0.52518329785E+02  0.00000000000E+00 0. -1.
        -12    1    4    4    0    0  0.41068265793E+02 -0.32643561079E+02  0.35434736451E+02  0.63307385687E+02  0.00000000000E+00 0.  1.
</event>
<event>
12    1  0.8406581E-002  0.2506599E+03  0.7818608E-02  0.1113011E+00
         21   -1    0    0  501  502  0.00000000000E+00  0.00000000000E+00  0.83744568507E+02  0.83744568507E+02  0.00000000000E+00 0.  1.
         21   -1    0    0  502  503 -0.00000000000E+00 -0.00000000000E+00 -0.76375858971E+03  0.76375858971E+03  0.00000000000E+00 0.  1.
         -6    2    1    2    0  503  0.16829409825E+03 -0.68247365197E+02 -0.40150567761E+03  0.47332569027E+03  0.17277092798E+03 0.  0.
        -24    2    3    3    0    0  0.80419268438E+02  0.27551511246E+01 -0.96303299093E+02  0.14785076821E+03  0.78170804337E+02 0.  0.
          6    2    1    2  501    0 -0.16829409825E+03  0.68247365197E+02 -0.27850834360E+03  0.37417746795E+03  0.17164286674E+03 0.  0.
         24    2    5    5    0    0 -0.30316616891E+02 -0.40134993276E+01 -0.14570291928E+03  0.16943668395E+03  0.80896500199E+02 0.  0.
          5    1    5    5  501    0 -0.13797748136E+03  0.72260864524E+02 -0.13280542432E+03  0.20474078400E+03  0.47000000000E+01 0. -1.
        -13    1    6    6    0    0 -0.58029697308E+02 -0.84941406626E+00 -0.89100303528E+02  0.10633452573E+03  0.00000000000E+00 0.  1.
         14    1    6    6    0    0  0.27713080417E+02 -0.31640852613E+01 -0.56602615750E+02  0.63102158216E+02  0.00000000000E+00 0. -1.
         -5    1    3    3    0  503  0.87874829816E+02 -0.71002516321E+02 -0.30520237851E+03  0.32547492206E+03  0.47000000000E+01 0.  1.
         11    1    4    4    0    0  0.31853355350E+02  0.18292038203E+02 -0.89073697167E+02  0.96350186485E+02  0.00000000000E+00 0. -1.
        -12    1    4    4    0    0  0.48565913087E+02 -0.15536887079E+02 -0.72296019260E+01  0.51500581726E+02  0.00000000000E+00 0.  1.
</event>
<event>
12    1  0.8406581E-002  0.2541050E+03  0.7818608E-02  0.1112310E+00
         21   -1    0    0  501  502  0.00000000000E+00  0.00000000000E+00  0.10312853764E+04  0.10312853764E+04  0.00000000000E+00 0. -1.
         21   -1    0    0  502  503 -0.00000000000E+00 -0.00000000000E+00 -0.72174379497E+02  0.72174379497E+02  0.00000000000E+00 0.  1.
         -6    2    1    2    0  503  0.15272343446E+03 -0.84057590254E+02  0.26269413546E+03  0.36548267076E+03  0.18487630434E+03 0.  0.
        -24    2    3    3    0    0  0.11345214457E+03 -0.93985910535E+02  0.27472606644E+03  0.32296604912E+03  0.84426991012E+02 0.  0.
          6    2    1    2  501    0 -0.15272343446E+03  0.84057590254E+02  0.69641686141E+03  0.73797708511E+03  0.17094913682E+03 0.  0.
         24    2    5    5    0    0 -0.13958595866E+03  0.58669362525E+02  0.68712685358E+03  0.70755423805E+03  0.74587887230E+02 0.  0.
          5    1    5    5  501    0 -0.13137475802E+02  0.25388227729E+02  0.92900078323E+01  0.30422847060E+02  0.47000000000E+01 0. -1.
        -13    1    6    6    0    0 -0.25226369017E+02  0.35660237058E+02  0.10276732651E+03  0.11166532855E+03  0.00000000000E+00 0.  1.
         14    1    6    6    0    0 -0.11435958964E+03  0.23009125467E+02  0.58435952707E+03  0.59588890951E+03  0.00000000000E+00 0. -1.
         -5    1    3    3    0  503  0.39271289884E+02  0.99283202806E+01 -0.12031930979E+02  0.42516621642E+02  0.47000000000E+01 0.  1.
         13    1    4    4    0    0  0.85448662860E+02 -0.16753414144E+02  0.12807508213E+03  0.15487213284E+03  0.00000000000E+00 0. -1.
        -14    1    4    4    0    0  0.28003481714E+02 -0.77232496390E+02  0.14665098432E+03  0.16809391627E+03  0.00000000000E+00 0.  1.
</event>
<event>
12    1  0.8406581E-002  0.1776681E+03  0.7818608E-02  0.1170338E+00
         21   -1    0    0  501  502  0.00000000000E+00  0.00000000000E+00  0.14805639015E+03  0.14805639015E+03  0.00000000000E+00 0. -1.
         21   -1    0    0  502  503 -0.00000000000E+00 -0.00000000000E+00 -0.38437770665E+03  0.38437770665E+03  0.00000000000E+00 0. -1.
         -6    2    1    2    0  503  0.63980936406E+01  0.35297502919E+02 -0.29665757912E+03  0.34579134729E+03  0.17400887132E+03 0.  0.
        -24    2    3    3    0    0  0.39948676745E+02  0.73021856853E+02 -0.14013573771E+03  0.18126188080E+03  0.79307982539E+02 0.  0.
          6    2    1    2  501    0 -0.63980936406E+01 -0.35297502919E+02  0.60336262618E+02  0.18664274951E+03  0.17293987986E+03 0.  0.
         24    2    5    5    0    0  0.63482661363E+02 -0.21596256917E+02  0.30297153550E+02  0.10921225077E+03  0.80702859916E+02 0.  0.
          5    1    5    5  501    0 -0.69880755004E+02 -0.13701246002E+02  0.30039109067E+02  0.77430498742E+02  0.47000000000E+01 0. -1.
        -11    1    6    6    0    0  0.36813306567E+02 -0.49819099228E+02  0.33186886678E+02  0.70274687019E+02  0.00000000000E+00 0.  1.
         12    1    6    6    0    0  0.26669354796E+02  0.28222842311E+02 -0.28897331281E+01  0.38937563752E+02  0.00000000000E+00 0. -1.
         -5    1    3    3    0  503 -0.33550583105E+02 -0.37724353934E+02 -0.15652184141E+03  0.16452946650E+03  0.47000000000E+01 0.  1.
         11    1    4    4    0    0  0.38956216284E+02  0.29189616859E+01 -0.24749008266E+02  0.46245221749E+02  0.00000000000E+00 0. -1.
        -12    1    4    4    0    0  0.99246046132E+00  0.70102895167E+02 -0.11538672944E+03  0.13501665905E+03  0.00000000000E+00 0.  1.
</event>
<event>
12    1  0.8406581E-002  0.2255550E+03  0.7818608E-02  0.1129817E+00
         21   -1    0    0  501  502  0.00000000000E+00  0.00000000000E+00  0.10167452153E+04  0.10167452153E+04  0.00000000000E+00 0. -1.
         21   -1    0    0  502  503 -0.00000000000E+00 -0.00000000000E+00 -0.55787880876E+02  0.55787880876E+02  0.00000000000E+00 0. -1.
         -6    2    1    2    0  503  0.59812844564E+02 -0.13250905317E+03  0.30819182798E+03  0.38191263063E+03  0.17244949712E+03 0.  0.
        -24    2    3    3    0    0  0.62959018669E+02 -0.16284317469E+03  0.24296513850E+03  0.30975538317E+03  0.80215966645E+02 0.  0.
          6    2    1    2  501    0 -0.59812844564E+02  0.13250905317E+03  0.65276550642E+03  0.69062046553E+03  0.17238792150E+03 0.  0.
         24    2    5    5    0    0 -0.81541897748E+01  0.11407477046E+03  0.27091088628E+03  0.30481808046E+03  0.80260885909E+02 0.  0.
          5    1    5    5  501    0 -0.51658654790E+02  0.18434282709E+02  0.38185462014E+03  0.38580238506E+03  0.47000000000E+01 0. -1.
        -13    1    6    6    0    0 -0.13218457355E+02 -0.84590835283E+01  0.19017884003E+02  0.24656918318E+02  0.00000000000E+00 0.  1.
         14    1    6    6    0    0  0.50642675805E+01  0.12253385399E+03  0.25189300228E+03  0.28016116215E+03  0.00000000000E+00 0. -1.
         -5    1    3    3    0  503 -0.31461741048E+01  0.30334121522E+02  0.65226689480E+02  0.72157247457E+02  0.47000000000E+01 0.  1.
         13    1    4    4    0    0  0.61030371893E+02 -0.11818081314E+03  0.12083668487E+03  0.17970229630E+03  0.00000000000E+00 0. -1.
        -14    1    4    4    0    0  0.19286467765E+01 -0.44662361550E+02  0.12212845363E+03  0.13005308687E+03  0.00000000000E+00 0.  1.
</event>
<event>
12    1  0.8406581E-002  0.2952728E+03  0.7818608E-02  0.1087674E+00
         21   -1    0    0  503  502  0.00000000000E+00  0.00000000000E+00  0.11161188759E+03  0.11161188759E+03  0.00000000000E+00 0. -1.
         21   -1    0    0  501  503 -0.00000000000E+00 -0.00000000000E+00 -0.80828677826E+03  0.80828677826E+03  0.00000000000E+00 0.  1.
          6    2    1    2  501    0  0.44628021077E+02 -0.23551907082E+03 -0.26237690769E+03  0.39473127351E+03  0.17178545809E+03 0.  0.
         24    2    3    3    0    0  0.85601634703E+02 -0.21807040120E+03 -0.20176970244E+03  0.31937467849E+03  0.80042692932E+02 0.  0.
         -6    2    1    2    0  502 -0.44628021077E+02  0.23551907082E+03 -0.43429798297E+03  0.52516739233E+03  0.17240985751E+03 0.  0.
        -24    2    5    5    0    0 -0.22704291841E+02  0.79137196405E+02 -0.89420861159E+02  0.14582815141E+03  0.80570333321E+02 0.  0.
          5    1    3    3  501    0 -0.40973613625E+02 -0.17448669618E+02 -0.60607205253E+02  0.75356595024E+02  0.47000000000E+01 0. -1.
        -11    1    4    4    0    0  0.38455543357E+02 -0.23322657025E+02 -0.54729191764E+02  0.70838263507E+02  0.00000000000E+00 0.  1.
         12    1    4    4    0    0  0.47146091346E+02 -0.19474774418E+03 -0.14704051068E+03  0.24853641498E+03  0.00000000000E+00 0. -1.
         -5    1    5    5    0  502 -0.21923729236E+02  0.15638187442E+03 -0.34487712182E+03  0.37933924092E+03  0.47000000000E+01 0.  1.
         11    1    6    6    0    0 -0.51943200859E+02  0.54832389714E+02 -0.70664663306E+02  0.10343201495E+03  0.00000000000E+00 0. -1.
        -12    1    6    6    0    0  0.29238909018E+02  0.24304806692E+02 -0.18756197853E+02  0.42396136461E+02  0.00000000000E+00 0.  1.
</event>
<event>
12    1  0.8406581E-002  0.2076634E+03  0.7818608E-02  0.1143716E+00
         21   -1    0    0  501  502  0.00000000000E+00  0.00000000000E+00  0.36551069388E+03  0.36551069388E+03  0.00000000000E+00 0.  1.
         21   -1    0    0  502  503 -0.00000000000E+00 -0.00000000000E+00 -0.12414251891E+03  0.12414251891E+03  0.00000000000E+00 0. -1.
         -6    2    1    2    0  503  0.92794214056E+02 -0.66154647796E+02  0.63081177188E+02  0.21703303527E+03  0.17359982689E+03 0.  0.
        -24    2    3    3    0    0 -0.32171373878E+01 -0.28458589154E+02  0.74584638611E+02  0.11314082156E+03  0.80110772796E+02 0.  0.
          6    2    1    2  501    0 -0.92794214056E+02  0.66154647796E+02  0.17828699778E+03  0.27262017752E+03  0.17189620131E+03 0.  0.
         24    2    5    5    0    0 -0.28501312713E+02 -0.26366438406E+02  0.47585574301E+02  0.99997233926E+02  0.78914802229E+02 0.  0.
          5    1    5    5  501    0 -0.64292901343E+02  0.92521086202E+02  0.13070142348E+03  0.17262294359E+03  0.47000000000E+01 0. -1.
        -13    1    6    6    0    0 -0.15712661742E+02  0.52429204653E+01  0.61109633394E+02  0.63314794855E+02  0.00000000000E+00 0.  1.
         14    1    6    6    0    0 -0.12788650970E+02 -0.31609358871E+02 -0.13524059093E+02  0.36682439071E+02  0.00000000000E+00 0. -1.
         -5    1    3    3    0  503  0.96011351444E+02 -0.37696058643E+02 -0.11503461424E+02  0.10389221370E+03  0.47000000000E+01 0.  1.
         13    1    4    4    0    0 -0.15494021425E+02 -0.53949518289E+02  0.56009694386E+02  0.79295025624E+02  0.00000000000E+00 0. -1.
        -14    1    4    4    0    0  0.12276884037E+02  0.25490929136E+02  0.18574944225E+02  0.33845795940E+02  0.00000000000E+00 0.  1.
</event>
<event>
12    1  0.8406581E-002  0.1836321E+03  0.7818608E-02  0.1164376E+00
         21   -1    0    0  503  502  0.00000000000E+00  0.00000000000E+00  0.16668399472E+04  0.16668399472E+04  0.00000000000E+00 0. -1.
         21   -1    0    0  501  503 -0.00000000000E+00 -0.00000000000E+00 -0.26919735045E+02  0.26919735045E+02  0.00000000000E+00 0. -1.
          6    2    1    2  501    0  0.60964873583E+02 -0.11258908431E+02  0.12430434002E+04  0.12565339823E+04  0.17285044136E+03 0.  0.
         24    2    3    3    0    0  0.50048241061E+02  0.45079997737E+02  0.46638777689E+03  0.47774691742E+03  0.78660829154E+02 0.  0.
         -6    2    1    2    0  502 -0.60964873583E+02  0.11258908431E+02  0.39687681195E+03  0.43722569994E+03  0.17266044709E+03 0.  0.
        -24    2    5    5    0    0 -0.49725966614E+02 -0.15173089426E+02  0.97043274033E+02  0.13598293404E+03  0.79818963398E+02 0.  0.
          5    1    3    3  501    0  0.10916632522E+02 -0.56338906167E+02  0.77665562327E+03  0.77878706484E+03  0.47000000000E+01 0. -1.
        -13    1    4    4    0    0 -0.63476183585E+01  0.42416285899E+02  0.27073176454E+03  0.27410786545E+03  0.00000000000E+00 0.  1.
         14    1    4    4    0    0  0.56395859420E+02  0.26637118373E+01  0.19565601235E+03  0.20363905197E+03  0.00000000000E+00 0. -1.
         -5    1    5    5    0  502 -0.11238906970E+02  0.26431997857E+02  0.29983353792E+03  0.30124276589E+03  0.47000000000E+01 0.  1.
         11    1    6    6    0    0 -0.14178581187E+01  0.14089983410E+02 -0.83285170082E+01  0.16428698965E+02  0.00000000000E+00 0. -1.
        -12    1    6    6    0    0 -0.48308108495E+02 -0.29263072836E+02  0.10537179104E+03  0.11955423508E+03  0.00000000000E+00 0.  1.
</event>
<event>
12    1  0.8406581E-002  0.2206180E+03  0.7818608E-02  0.1133454E+00
         21   -1    0    0  503  502  0.00000000000E+00  0.00000000000E+00  0.13664031173E+03  0.13664031173E+03  0.00000000000E+00 0. -1.
         21   -1    0    0  501  503 -0.00000000000E+00 -0.00000000000E+00 -0.39400977263E+03  0.39400977263E+03  0.00000000000E+00 0.  1.
          6    2    1    2  501    0 -0.53966225727E+02  0.12773256741E+03 -0.21111313219E+03  0.30523500579E+03  0.17138171397E+03 0.  0.
         24    2    3    3    0    0  0.14086309677E+02  0.15944873757E+02 -0.11258214197E+03  0.14135065004E+03  0.82780459389E+02 0.  0.
         -6    2    1    2    0  502  0.53966225727E+02 -0.12773256741E+03 -0.46256328711E+02  0.22541507857E+03  0.17159355292E+03 0.  0.
        -24    2    5    5    0    0  0.92917593897E+02 -0.10246128719E+03 -0.68336350746E+02  0.17378694613E+03  0.80000319900E+02 0.  0.
          5    1    3    3  501    0 -0.68052535404E+02  0.11178769366E+03 -0.98530990223E+02  0.16388435576E+03  0.47000000000E+01 0. -1.
        -13    1    4    4    0    0  0.34669423357E+02  0.40068329467E+02 -0.79368084829E+02  0.95429203243E+02  0.00000000000E+00 0.  1.
         14    1    4    4    0    0 -0.20583113680E+02 -0.24123455710E+02 -0.33214057136E+02  0.45921446793E+02  0.00000000000E+00 0. -1.
         -5    1    5    5    0  502 -0.38951368170E+02 -0.25271280221E+02  0.22080022034E+02  0.51628132441E+02  0.47000000000E+01 0.  1.
         13    1    6    6    0    0 -0.63831733925E+00  0.63399305093E+01 -0.22142619430E+02  0.23041218785E+02  0.00000000000E+00 0. -1.
        -14    1    6    6    0    0  0.93555911236E+02 -0.10880121770E+03 -0.46193731316E+02  0.15074572735E+03  0.00000000000E+00 0.  1.
</event>
<event>
12    1  0.8406581E-002  0.2914079E+03  0.7818608E-02  0.1089661E+00
         21   -1    0    0  501  502  0.00000000000E+00  0.00000000000E+00  0.15490066479E+03  0.15490066479E+03  0.00000000000E+00 0. -1.
         21   -1    0    0  502  503 -0.00000000000E+00 -0.00000000000E+00 -0.63725561129E+03  0.63725561129E+03  0.00000000000E+00 0.  1.
         -6    2    1    2    0  503  0.20639560949E+03  0.11183568809E+03 -0.38964534592E+03  0.48635628645E+03  0.17208304108E+03 0.  0.
        -24    2    3    3    0    0  0.11351546668E+03  0.11669470031E+03 -0.32759694452E+03  0.37445264467E+03  0.79947550232E+02 0.  0.
          6    2    1    2  501    0 -0.20639560949E+03 -0.11183568809E+03 -0.92709600583E+02  0.30579998963E+03  0.17266208290E+03 0.  0.
         24    2    5    5    0    0 -0.13002998310E+03 -0.87071388157E+02 -0.12944151503E+03  0.21739013168E+03  0.77550889076E+02 0.  0.
          5    1    5    5  501    0 -0.76365626382E+02 -0.24764299936E+02  0.36731914448E+02  0.88409857952E+02  0.47000000000E+01 0. -1.
        -11    1    6    6    0    0 -0.37321997707E+02 -0.62950354404E+02 -0.83865550337E+02  0.11130637523E+03  0.00000000000E+00 0.  1.
         12    1    6    6    0    0 -0.92707985397E+02 -0.24121033753E+02 -0.45575964694E+02  0.10608375645E+03  0.00000000000E+00 0. -1.
         -5    1    3    3    0  503  0.92880142803E+02 -0.48590122132E+01 -0.62048401397E+02  0.11190364178E+03  0.47000000000E+01 0.  1.
         11    1    4    4    0    0  0.12231087422E+03  0.11283088279E+03 -0.27852057831E+03  0.32444486528E+03  0.00000000000E+00 0. -1.
        -12    1    4    4    0    0 -0.87954075355E+01  0.38638175116E+01 -0.49076366209E+02  0.50007779392E+02  0.00000000000E+00 0.  1.
</event>
<event>
12    1  0.8406581E-002  0.1847252E+03  0.7818608E-02  0.1163710E+00
         21   -1    0    0  501  502  0.00000000000E+00  0.00000000000E+00  0.33675307139E+03  0.33675307139E+03  0.00000000000E+00 0. -1.
         21   -1    0    0  502  503 -0.00000000000E+00 -0.00000000000E+00 -0.16506550427E+03  0.16506550427E+03  0.00000000000E+00 0. -1.
         -6    2    1    2    0  503 -0.65779331849E+02  0.82702362694E+01 -0.70965964689E+02  0.19788776796E+03  0.17241833794E+03 0.  0.
        -24    2    3    3    0    0 -0.10753477533E+03 -0.40886821364E+00 -0.25915542094E+02  0.13567463035E+03  0.78562681463E+02 0.  0.
          6    2    1    2  501    0  0.65779331849E+02 -0.82702362694E+01  0.24265353181E+03  0.30393080771E+03  0.17058101321E+03 0.  0.
         24    2    5    5    0    0 -0.23851060099E+02 -0.21337284530E+02  0.16517061781E+03  0.18464104758E+03  0.76071221120E+02 0.  0.
          5    1    5    5  501    0  0.89630391948E+02  0.13067048260E+02  0.77482913993E+02  0.11928976013E+03  0.47000000000E+01 0. -1.
        -13    1    6    6    0    0  0.54964210764E+01 -0.31369950627E+02  0.14303337155E+03  0.14653610417E+03  0.00000000000E+00 0.  1.
         14    1    6    6    0    0 -0.29347481175E+02  0.10032666097E+02  0.22137246264E+02  0.38104943413E+02  0.00000000000E+00 0. -1.
         -5    1    3    3    0  503  0.41755443485E+02  0.86791044830E+01 -0.45050422595E+02  0.62213137610E+02  0.47000000000E+01 0.  1.
         11    1    4    4    0    0 -0.32765978740E+02 -0.36945557368E+02 -0.15776088498E+02  0.51840799959E+02  0.00000000000E+00 0. -1.
        -12    1    4    4    0    0 -0.74768796594E+02  0.36536689155E+02 -0.10139453595E+02  0.83833830389E+02  0.00000000000E+00 0.  1.
</event>
<event>
12    1  0.8406581E-002  0.3068659E+03  0.7818608E-02  0.1081867E+00
         21   -1    0    0  503  502  0.00000000000E+00  0.00000000000E+00  0.15605565638E+04  0.15605565638E+04  0.00000000000E+00 0. -1.
         21   -1    0    0  501  503 -0.00000000000E+00 -0.00000000000E+00 -0.32084724611E+03  0.32084724611E+03  0.00000000000E+00 0. -1.
          6    2    1    2  501    0  0.21345149861E+03  0.13807417973E+03 -0.22782459754E+03  0.38212982946E+03  0.17173566302E+03 0.  0.
         24    2    3    3    0    0  0.99787907556E+02 -0.97561345999E+00 -0.10309298397E+03  0.16341923909E+03  0.78224715045E+02 0.  0.
         -6    2    1    2    0  502 -0.21345149861E+03 -0.13807417973E+03  0.14675339152E+04  0.14992739804E+04  0.17187395013E+03 0.  0.
        -24    2    5    5    0    0 -0.16083261078E+03 -0.29099872537E+02  0.79008562486E+03  0.81108619859E+03  0.83136006936E+02 0.  0.
          5    1    3    3  501    0  0.11366359106E+03  0.13904979319E+03 -0.12473161357E+03  0.21871059037E+03  0.47000000000E+01 0. -1.
        -13    1    4    4    0    0  0.83352971043E+01  0.28407242801E+02 -0.34068469801E+02  0.45134346743E+02  0.00000000000E+00 0.  1.
         14    1    4    4    0    0  0.91452610452E+02 -0.29382856261E+02 -0.69024514173E+02  0.11828489235E+03  0.00000000000E+00 0. -1.
         -5    1    5    5    0  502 -0.52618887836E+02 -0.10897430719E+03  0.67744829035E+03  0.68818778184E+03  0.47000000000E+01 0.  1.
         13    1    6    6    0    0 -0.51573906314E+02  0.28363766680E+02  0.21585297748E+03  0.22373394682E+03  0.00000000000E+00 0. -1.
        -14    1    6    6    0    0 -0.10925870446E+03 -0.57463639217E+02  0.57423264738E+03  0.58735225176E+03  0.00000000000E+00 0.  1.
</event>
<event>
12    1  0.8406581E-002  0.2148034E+03  0.7818608E-02  0.1137842E+00
         21   -1    0    0  503  502  0.00000000000E+00  0.00000000000E+00  0.84798819844E+02  0.84798819844E+02  0.00000000000E+00 0.  1.
         21   -1    0    0  501  503 -0.00000000000E+00 -0.00000000000E+00 -0.88996369159E+03  0.88996369159E+03  0.00000000000E+00 0.  1.
          6    2    1    2  501    0 -0.12845939366E+03  0.25390235531E+01 -0.70647515716E+03  0.73837266529E+03  0.17198483278E+03 0.  0.
         24    2    3    3    0    0 -0.84934195564E+02  0.61733086642E+02 -0.49214322805E+03  0.51174820542E+03  0.93040191737E+02 0.  0.
         -6    2    1    2    0  502  0.12845939366E+03 -0.25390235531E+01 -0.98689714586E+02  0.23638984614E+03  0.17214016712E+03 0.  0.
        -24    2    5    5    0    0  0.15637313096E+03  0.21448114914E+02 -0.75008344370E+02  0.19237329428E+03  0.80427948557E+02 0.  0.
          5    1    3    3  501    0 -0.43525198092E+02 -0.59194063089E+02 -0.21433192911E+03  0.22662445987E+03  0.47000000000E+01 0. -1.
        -13    1    4    4    0    0 -0.96772307386E+02  0.23081082717E+02 -0.33234112961E+03  0.34691244181E+03  0.00000000000E+00 0.  1.
         14    1    4    4    0    0  0.11838111823E+02  0.38652003925E+02 -0.15980209844E+03  0.16483576361E+03  0.00000000000E+00 0. -1.
         -5    1    5    5    0  502 -0.27913737303E+02 -0.23987138467E+02 -0.23681370216E+02  0.44016551857E+02  0.47000000000E+01 0.  1.
         11    1    6    6    0    0  0.26238559801E+02  0.37122495335E+02 -0.26440902510E+02  0.52589571265E+02  0.00000000000E+00 0. -1.
        -12    1    6    6    0    0  0.13013457116E+03 -0.15674380421E+02 -0.48567441860E+02  0.13978372302E+03  0.00000000000E+00 0.  1.
</event>
<event>
12    1  0.8406581E-002  0.2280508E+03  0.7818608E-02  0.1128111E+00
         21   -1    0    0  503  502  0.00000000000E+00  0.00000000000E+00  0.77618212474E+02  0.77618212474E+02  0.00000000000E+00 0.  1.
         21   -1    0    0  501  503 -0.00000000000E+00 -0.00000000000E+00 -0.66856963836E+03  0.66856963836E+03  0.00000000000E+00 0. -1.
          6    2    1    2  501    0 -0.13381278088E+03 -0.67974860794E+02 -0.29822527462E+03  0.37511403156E+03  0.17101397669E+03 0.  0.
         24    2    3    3    0    0 -0.34346275344E+02 -0.72841304724E+01 -0.21527681308E+03  0.23200747077E+03  0.79060957836E+02 0.  0.
         -6    2    1    2    0  502  0.13381278088E+03  0.67974860794E+02 -0.29272615126E+03  0.37107381927E+03  0.17169955646E+03 0.  0.
        -24    2    5    5    0    0  0.96902751335E+02  0.11043455499E+03 -0.19546363787E+03  0.25861377115E+03  0.84196880872E+02 0.  0.
          5    1    3    3  501    0 -0.99466505535E+02 -0.60690730322E+02 -0.82948461534E+02  0.14310656079E+03  0.47000000000E+01 0. -1.
        -11    1    4    4    0    0 -0.17565796133E+02 -0.20843925636E+02 -0.16084548398E+02  0.31650262667E+02  0.00000000000E+00 0.  1.
         12    1    4    4    0    0 -0.16780479211E+02  0.13559795164E+02 -0.19919226469E+03  0.20035720810E+03  0.00000000000E+00 0. -1.
         -5    1    5    5    0  502  0.36910029543E+02 -0.42459694192E+02 -0.97262513391E+02  0.11246004812E+03  0.47000000000E+01 0.  1.
         11    1    6    6    0    0 -0.67929785373E+01  0.82348768956E+01 -0.55974736874E+02  0.56983584680E+02  0.00000000000E+00 0. -1.
        -12    1    6    6    0    0  0.10369572987E+03  0.10219967809E+03 -0.13948890100E+03  0.20163018647E+03  0.00000000000E+00 0.  1.
</event>
<event>
12    1  0.8406581E-002  0.2791522E+03  0.7818608E-02  0.1096674E+00
         21   -1    0    0  501  502  0.00000000000E+00  0.00000000000E+00  0.47492055224E+03  0.47492055224E+03  0.00000000000E+00 0.  1.
         21   -1    0    0  502  503 -0.00000000000E+00 -0.00000000000E+00 -0.26378559586E+03  0.26378559586E+03  0.00000000000E+00 0. -1.
         -6    2    1    2    0  503 -0.20554870230E+02 -0.21669267101E+03 -0.12356990380E+03  0.30527936085E+03  0.17477914828E+03 0.  0.
        -24    2    3    3    0    0  0.46522083981E+02 -0.15109278576E+03 -0.11531702207E+03  0.21097738426E+03  0.78867654232E+02 0.  0.
          6    2    1    2  501    0  0.20554870230E+02  0.21669267101E+03  0.33470486018E+03  0.43342678726E+03  0.16868082325E+03 0.  0.
         24    2    5    5    0    0  0.61089775836E+02  0.16970209023E+03  0.17954183291E+03  0.26624769681E+03  0.78241971795E+02 0.  0.
          5    1    5    5  501    0 -0.40534905606E+02  0.46990580779E+02  0.15516302727E+03  0.16717909046E+03  0.47000000000E+01 0. -1.
        -13    1    6    6    0    0  0.66790210663E+02  0.16418747925E+03  0.18531530061E+03  0.25643755814E+03  0.00000000000E+00 0.  1.
         14    1    6    6    0    0 -0.57004348271E+01  0.55146109758E+01 -0.57734676988E+01  0.98101386689E+01  0.00000000000E+00 0. -1.
         -5    1    3    3    0  503 -0.67076954211E+02 -0.65599885252E+02 -0.82528817278E+01  0.94301976586E+02  0.47000000000E+01 0.  1.
         13    1    4    4    0    0  0.54984027638E+02 -0.53231395404E+02 -0.66034049225E+02  0.10108076182E+03  0.00000000000E+00 0. -1.
        -14    1    4    4    0    0 -0.84619436574E+01 -0.97861390353E+02 -0.49282972844E+02  0.10989662244E+03  0.00000000000E+00 0.  1.
</event>
<event>
12    1  0.8406581E-002  0.1940601E+03  0.7818608E-02  0.1155186E+00
         21   -1    0    0  501  502  0.00000000000E+00  0.00000000000E+00  0.90097345627E+03  0.90097345627E+03  0.00000000000E+00 0.  1.
         21   -1    0    0  502  503 -0.00000000000E+00 -0.00000000000E+00 -0.14072787087E+03  0.14072787087E+03  0.00000000000E+00 0. -1.
         -6    2    1    2    0  503  0.19932531898E+02  0.86951410293E+02 -0.56860029934E+02  0.20221861061E+03  0.17234108592E+03 0.  0.
        -24    2    3    3    0    0 -0.54531467667E+02  0.58870969785E+02 -0.22809902850E+02  0.11553009047E+03  0.79921449477E+02 0.  0.
          6    2    1    2  501    0 -0.19932531898E+02 -0.86951410293E+02  0.81710561533E+03  0.83948271652E+03  0.17062177809E+03 0.  0.
         24    2    5    5    0    0 -0.11912479502E+02 -0.12548507521E+03  0.52008989992E+03  0.53983360544E+03  0.70981732123E+02 0.  0.
          5    1    5    5  501    0 -0.80200523957E+01  0.38533664917E+02  0.29701571541E+03  0.29964911108E+03  0.47000000000E+01 0. -1.
        -11    1    6    6    0    0  0.32147253519E+01 -0.52608205926E+02  0.35303644918E+03  0.35694914517E+03  0.00000000000E+00 0.  1.
         12    1    6    6    0    0 -0.15127204854E+02 -0.72876869284E+02  0.16705345075E+03  0.18288446028E+03  0.00000000000E+00 0. -1.
         -5    1    3    3    0  503  0.74463999565E+02  0.28080440508E+02 -0.34050127084E+02  0.86688520145E+02  0.47000000000E+01 0.  1.
         13    1    4    4    0    0 -0.32074366008E+00  0.33315822237E+02  0.22667095608E+02  0.40296949154E+02  0.00000000000E+00 0. -1.
        -14    1    4    4    0    0 -0.54210724007E+02  0.25555147548E+02 -0.45476998457E+02  0.75233141316E+02  0.00000000000E+00 0.  1.
</event>
<event>
12    1  0.8406581E-002  0.2057954E+03  0.7818608E-02  0.1145135E+00
         21   -1    0    0  503  502  0.00000000000E+00  0.00000000000E+00  0.18366983712E+03  0.18366983712E+03  0.00000000000E+00 0.  1.
         21   -1    0    0  501  503 -0.00000000000E+00 -0.00000000000E+00 -0.10883366669E+04  0.10883366669E+04  0.00000000000E+00 0.  1.
          6    2    1    2  501    0 -0.63940150146E+02  0.91855063350E+02 -0.10170861499E+04  0.10375073177E+04  0.17155612038E+03 0.  0.
         24    2    3    3    0    0 -0.31202955349E+02  0.83907819523E+02 -0.97958554053E+03  0.98687858759E+03  0.79544759835E+02 0.  0.
         -6    2    1    2    0  502  0.63940150146E+02 -0.91855063350E+02  0.11241932018E+03  0.23449918628E+03  0.17270225637E+03 0.  0.
        -24    2    5    5    0    0  0.77575863028E+02 -0.48217077340E+01  0.36518711644E+02  0.11812165395E+03  0.81103917549E+02 0.  0.
          5    1    3    3  501    0 -0.32737194797E+02  0.79472438264E+01 -0.37500609391E+02  0.50628730107E+02  0.47000000000E+01 0. -1.
        -11    1    4    4    0    0  0.25643113626E+02  0.32280097420E+02 -0.42644863906E+03  0.42843671145E+03  0.00000000000E+00 0.  1.
         12    1    4    4    0    0 -0.56846068974E+02  0.51627722104E+02 -0.55313690147E+03  0.55844187613E+03  0.00000000000E+00 0. -1.
         -5    1    5    5    0  502 -0.13635712882E+02 -0.87033355616E+02  0.75900608539E+02  0.11637753233E+03  0.47000000000E+01 0.  1.
         11    1    6    6    0    0  0.59928280389E+02 -0.13767469143E+02 -0.14693298120E+02  0.63220526783E+02  0.00000000000E+00 0. -1.
        -12    1    6    6    0    0  0.17647582639E+02  0.89457614089E+01  0.51212009764E+02  0.54901127168E+02  0.00000000000E+00 0.  1.
</event>
<event>
12    1  0.8406581E-002  0.2039107E+03  0.7818608E-02  0.1146592E+00
         21   -1    0    0  503  502  0.00000000000E+00  0.00000000000E+00  0.28392771175E+03  0.28392771175E+03  0.00000000000E+00 0.  1.
         21   -1    0    0  501  503 -0.00000000000E+00 -0.00000000000E+00 -0.24386131061E+03  0.24386131061E+03  0.00000000000E+00 0. -1.
          6    2    1    2  501    0 -0.78186594011E+02  0.76348901107E+02 -0.14707487385E+03  0.25141715284E+03  0.17215477932E+03 0.  0.
         24    2    3    3    0    0  0.16015090210E+02  0.16132705789E+02 -0.27660395140E+02  0.87765525251E+02  0.80130784676E+02 0.  0.
         -6    2    1    2    0  502  0.78186594011E+02 -0.76348901107E+02  0.18714127499E+03  0.27637186952E+03  0.17151459201E+03 0.  0.
        -24    2    5    5    0    0  0.99169348839E+02 -0.17294915594E+02  0.12064574131E+03  0.18487654065E+03  0.97417999013E+02 0.  0.
          5    1    3    3  501    0 -0.94201684220E+02  0.60216195318E+02 -0.11941447870E+03  0.16365162759E+03  0.47000000000E+01 0. -1.
        -11    1    4    4    0    0  0.23021697975E+02 -0.29262036612E+02 -0.14805745027E+02  0.40068384671E+02  0.00000000000E+00 0.  1.
         12    1    4    4    0    0 -0.70066077656E+01  0.45394742401E+02 -0.12854650113E+02  0.47697140580E+02  0.00000000000E+00 0. -1.
         -5    1    5    5    0  502 -0.20982754828E+02 -0.59053985514E+02  0.66495533684E+02  0.91495328871E+02  0.47000000000E+01 0.  1.
         11    1    6    6    0    0  0.19744785502E+02  0.24712755483E+02  0.80451146127E+02  0.86446305596E+02  0.00000000000E+00 0. -1.
        -12    1    6    6    0    0  0.79424563337E+02 -0.42007671077E+02  0.40194595182E+02  0.98430235052E+02  0.00000000000E+00 0.  1.
</event>
<event>
12    1  0.8406581E-002  0.1856671E+03  0.7818608E-02  0.1162578E+00
         21   -1    0    0  503  502  0.00000000000E+00  0.00000000000E+00  0.16379911642E+03  0.16379911642E+03  0.00000000000E+00 0.  1.
         21   -1    0    0  501  503 -0.00000000000E+00 -0.00000000000E+00 -0.30263975275E+03  0.30263975275E+03  0.00000000000E+00 0.  1.
          6    2    1    2  501    0 -0.66698738734E+02  0.91408475512E+01 -0.19872580819E+03  0.27196365505E+03  0.17303180628E+03 0.  0.
         24    2    3    3    0    0 -0.64175726386E+02 -0.71882993200E+01 -0.22126080580E+03  0.24362776356E+03  0.78917345923E+02 0.  0.
         -6    2    1    2    0  502  0.66698738734E+02 -0.91408475512E+01  0.59885171862E+02  0.19447521412E+03  0.17234296694E+03 0.  0.
        -24    2    5    5    0    0 -0.25997843135E+02 -0.44233289750E+01  0.57933892104E+02  0.10151926345E+03  0.79084583265E+02 0.  0.
          5    1    3    3  501    0 -0.25230123477E+01  0.16329146871E+02  0.22534997617E+02  0.28335891489E+02  0.47000000000E+01 0. -1.
        -11    1    4    4    0    0 -0.28106607064E+02 -0.25056046340E+02 -0.29905139839E+02  0.48084344725E+02  0.00000000000E+00 0.  1.
         12    1    4    4    0    0 -0.36069119322E+02  0.17867747020E+02 -0.19135566597E+03  0.19554341883E+03  0.00000000000E+00 0. -1.
         -5    1    5    5    0  502  0.92696581869E+02 -0.47175185762E+01  0.19512797575E+01  0.92955950667E+02  0.47000000000E+01 0.  1.
         11    1    6    6    0    0  0.18998084849E+02 -0.12640292856E+02 -0.53483006628E+01  0.23437332429E+02  0.00000000000E+00 0. -1.
        -12    1    6    6    0    0 -0.44995927984E+02  0.82169638806E+01  0.63282192767E+02  0.78081931021E+02  0.00000000000E+00 0.  1.
</event>
<event>
12    1  0.8406581E-002  0.4232567E+03  0.7818608E-02  0.1036040E+00
         21   -1    0    0  501  502  0.00000000000E+00  0.00000000000E+00  0.39167152323E+03  0.39167152323E+03  0.00000000000E+00 0. -1.
         21   -1    0    0  502  503 -0.00000000000E+00 -0.00000000000E+00 -0.67009120027E+03  0.67009120027E+03  0.00000000000E+00 0.  1.
         -6    2    1    2    0  503  0.25235622877E+03  0.29259815605E+03 -0.43861623158E+03  0.60953298128E+03  0.17276836963E+03 0.  0.
        -24    2    3    3    0    0  0.23008250573E+03  0.28504778961E+03 -0.33302521625E+03  0.50125242306E+03  0.78472894430E+02 0.  0.
          6    2    1    2  501    0 -0.25235622877E+03 -0.29259815605E+03  0.16019655454E+03  0.45222974222E+03  0.17190537088E+03 0.  0.
         24    2    5    5    0    0 -0.73501957612E+02 -0.18816398567E+03  0.91234683905E+02  0.23388786383E+03  0.74642762712E+02 0.  0.
          5    1    5    5  501    0 -0.17885427116E+03 -0.10443417038E+03  0.68961870631E+02  0.21834187838E+03  0.47000000000E+01 0. -1.
        -13    1    6    6    0    0 -0.16270645201E+01 -0.90835802205E+02  0.60182652803E+02  0.10897587806E+03  0.00000000000E+00 0.  1.
         14    1    6    6    0    0 -0.71874893092E+02 -0.97328183466E+02  0.31052031102E+02  0.12491198577E+03  0.00000000000E+00 0. -1.
         -5    1    3    3    0  503  0.22273723042E+02  0.75503664421E+01 -0.10559101533E+03  0.10828055823E+03  0.47000000000E+01 0.  1.
         13    1    4    4    0    0  0.76941284987E+02  0.11420198984E+03 -0.78199486109E+02  0.15835787144E+03  0.00000000000E+00 0. -1.
        -14    1    4    4    0    0  0.15314122074E+03  0.17084579977E+03 -0.25482573014E+03  0.34289455162E+03  0.00000000000E+00 0.  1.
</event>
<event>
12    1  0.8406581E-002  0.1979901E+03  0.7818608E-02  0.1152113E+00
         21   -1    0    0  501  502  0.00000000000E+00  0.00000000000E+00  0.22649318275E+03  0.22649318275E+03  0.00000000000E+00 0. -1.
         21   -1    0    0  502  503 -0.00000000000E+00 -0.00000000000E+00 -0.17140222599E+03  0.17140222599E+03  0.00000000000E+00 0. -1.
         -6    2    1    2    0  503  0.86071311348E+02 -0.36424383355E+02  0.11963395099E+02  0.19526253460E+03  0.17102434989E+03 0.  0.
        -24    2    3    3    0    0  0.82219635823E+02  0.21689189517E+02 -0.34299126768E+02  0.12073513235E+03  0.78549682559E+02 0.  0.
          6    2    1    2  501    0 -0.86071311348E+02  0.36424383355E+02  0.43127561666E+02  0.20263287414E+03  0.17454251278E+03 0.  0.
         24    2    5    5    0    0 -0.71278755544E+02  0.39566258035E+02  0.93786247137E+02  0.14955666951E+03  0.83217711321E+02 0.  0.
          5    1    5    5  501    0 -0.14792555804E+02 -0.31418746799E+01 -0.50658685471E+02  0.53076204625E+02  0.47000000000E+01 0. -1.
        -11    1    6    6    0    0  0.27910313200E+01  0.31666932074E+02  0.27204760759E+01  0.31905883985E+02  0.00000000000E+00 0.  1.
         12    1    6    6    0    0 -0.74069786864E+02  0.78993259608E+01  0.91065771061E+02  0.11765078553E+03  0.00000000000E+00 0. -1.
         -5    1    3    3    0  503  0.38516755248E+01 -0.58113572872E+02  0.46262521867E+02  0.74527402247E+02  0.47000000000E+01 0.  1.
         11    1    4    4    0    0  0.19384586168E+02  0.12477336344E+02  0.24887599641E+02  0.33924013899E+02  0.00000000000E+00 0. -1.
        -12    1    4    4    0    0  0.62835049655E+02  0.92118531729E+01 -0.59186726409E+02  0.86811118453E+02  0.00000000000E+00 0.  1.
</event>
<event>
12    1  0.8406581E-002  0.1842932E+03  0.7818608E-02  0.1163867E+00
         21   -1    0    0  501  502  0.00000000000E+00  0.00000000000E+00  0.17563588528E+03  0.17563588528E+03  0.00000000000E+00 0. -1.
         21   -1    0    0  502  503 -0.00000000000E+00 -0.00000000000E+00 -0.27286273145E+03  0.27286273145E+03  0.00000000000E+00 0. -1.
         -6    2    1    2    0  503  0.35914959447E+02 -0.53574699021E+02 -0.17023255931E+03  0.25088466989E+03  0.17263794672E+03 0.  0.
        -24    2    3    3    0    0 -0.24714833633E+02  0.16533471446E+02 -0.11532841470E+03  0.14305293768E+03  0.79242167201E+02 0.  0.
          6    2    1    2  501    0 -0.35914959447E+02  0.53574699021E+02  0.73005713134E+02  0.19761394684E+03  0.17193401393E+03 0.  0.
         24    2    5    5    0    0  0.27477541376E+02  0.65448706561E+02  0.95431522016E+01  0.10700937821E+03  0.79507149371E+02 0.  0.
          5    1    5    5  501    0 -0.63392500823E+02 -0.11874007540E+02  0.63462560933E+02  0.90604568625E+02  0.47000000000E+01 0. -1.
        -11    1    6    6    0    0  0.44232570692E+02  0.20111872059E+02  0.27038549194E+02  0.55606572006E+02  0.00000000000E+00 0.  1.
         12    1    6    6    0    0 -0.16755029317E+02  0.45336834502E+02 -0.17495396993E+02  0.51402806207E+02  0.00000000000E+00 0. -1.
         -5    1    3    3    0  503  0.60629793080E+02 -0.70108170467E+02 -0.54904144608E+02  0.10783173220E+03  0.47000000000E+01 0.  1.
         11    1    4    4    0    0 -0.31226906481E+01  0.34132427549E+02 -0.10930569040E+03  0.11455351484E+03  0.00000000000E+00 0. -1.
        -12    1    4    4    0    0 -0.21592142985E+02 -0.17598956102E+02 -0.60227242998E+01  0.28499422846E+02  0.00000000000E+00 0.  1.
</event>
<event>
12    1  0.8406581E-002  0.3448568E+03  0.7818608E-02  0.1064793E+00
         21   -1    0    0  503  502  0.00000000000E+00  0.00000000000E+00  0.41557954916E+03  0.41557954916E+03  0.00000000000E+00 0. -1.
         21   -1    0    0  501  503 -0.00000000000E+00 -0.00000000000E+00 -0.28581082952E+03  0.28581082952E+03  0.00000000000E+00 0.  1.
          6    2    1    2  501    0 -0.18298879918E+03  0.23621870535E+03  0.67434708359E+02  0.35094526912E+03  0.17126285250E+03 0.  0.
         24    2    3    3    0    0 -0.85279388890E+02  0.61609943929E+02 -0.17464444398E+02  0.13353941694E+03  0.80370452893E+02 0.  0.
         -6    2    1    2    0  502  0.18298879918E+03 -0.23621870535E+03  0.62334011287E+02  0.35044510956E+03  0.17216872094E+03 0.  0.
        -24    2    5    5    0    0  0.12574726592E+03 -0.24880547563E+03  0.49930098449E+02  0.29035378764E+03  0.63998184943E+02 0.  0.
          5    1    3    3  501    0 -0.97709410290E+02  0.17460876142E+03  0.84899152757E+02  0.21740585218E+03  0.47000000000E+01 0. -1.
        -11    1    4    4    0    0 -0.50213690459E+02  0.72908646590E+02 -0.31717023819E+02  0.94037519411E+02  0.00000000000E+00 0.  1.
         12    1    4    4    0    0 -0.35065698431E+02 -0.11298702661E+02  0.14252579421E+02  0.39501897529E+02  0.00000000000E+00 0. -1.
         -5    1    5    5    0  502  0.57241533263E+02  0.12586770285E+02  0.12403912838E+02  0.60091321921E+02  0.47000000000E+01 0.  1.
         11    1    6    6    0    0  0.10549633003E+03 -0.19666961962E+03  0.64958320050E+02  0.23243923566E+03  0.00000000000E+00 0. -1.
        -12    1    6    6    0    0  0.20250935886E+02 -0.52135856015E+02 -0.15028221601E+02  0.57914551980E+02  0.00000000000E+00 0.  1.
</event>
<event>
12    1  0.8406581E-002  0.1910043E+03  0.7818608E-02  0.1157787E+00
         21   -1    0    0  501  502  0.00000000000E+00  0.00000000000E+00  0.51880822866E+03  0.51880822866E+03  0.00000000000E+00 0.  1.
         21   -1    0    0  502  503 -0.00000000000E+00 -0.00000000000E+00 -0.10806499920E+03  0.10806499920E+03  0.00000000000E+00 0.  1.
         -6    2    1    2    0  503  0.67164230309E+02  0.48491270905E+02  0.18859521460E+02  0.19091967721E+03  0.17097427997E+03 0.  0.
        -24    2    3    3    0    0  0.65355904525E+02 -0.28120934207E+02 -0.68268844299E+01  0.10995930751E+03  0.83559929157E+02 0.  0.
          6    2    1    2  501    0 -0.67164230309E+02 -0.48491270905E+02  0.39188370800E+03  0.43595355064E+03  0.17210526004E+03 0.  0.
         24    2    5    5    0    0 -0.10340348336E+03 -0.31557288321E+02  0.36250684006E+03  0.38610243633E+03  0.77302907039E+02 0.  0.
          5    1    5    5  501    0  0.36239253049E+02 -0.16933982584E+02  0.29376867948E+02  0.49851114312E+02  0.47000000000E+01 0. -1.
        -13    1    6    6    0    0 -0.68845797663E+02 -0.44689804515E+02  0.15562384805E+03  0.17594233307E+03  0.00000000000E+00 0.  1.
         14    1    6    6    0    0 -0.34557685696E+02  0.13132516195E+02  0.20688299201E+03  0.21016010327E+03  0.00000000000E+00 0. -1.
         -5    1    3    3    0  503  0.18083257842E+01  0.76612205112E+02  0.25686405890E+02  0.80960369699E+02  0.47000000000E+01 0.  1.
         11    1    4    4    0    0 -0.17271106195E+02  0.28568286724E+00  0.11411303850E+02  0.20702429313E+02  0.00000000000E+00 0. -1.
        -12    1    4    4    0    0  0.82627010721E+02 -0.28406617075E+02 -0.18238188280E+02  0.89256878200E+02  0.00000000000E+00 0.  1.
</event>
<event>
12    1  0.8406581E-002  0.2374396E+03  0.7818608E-02  0.1121768E+00
         21   -1    0    0  503  502  0.00000000000E+00  0.00000000000E+00  0.37259520211E+03  0.37259520211E+03  0.00000000000E+00 0. -1.
         21   -1    0    0  501  503 -0.00000000000E+00 -0.00000000000E+00 -0.16875913317E+03  0.16875913317E+03  0.00000000000E+00 0. -1.
          6    2    1    2  501    0  0.14673627906E+03  0.69175186415E+02  0.12210742663E+02  0.23623499728E+03  0.17129252667E+03 0.  0.
         24    2    3    3    0    0  0.14446496249E+03  0.11503987553E+02  0.43078808696E+02  0.17061447032E+03  0.79063560558E+02 0.  0.
         -6    2    1    2    0  502 -0.14673627906E+03 -0.69175186415E+02  0.19162532627E+03  0.30511933800E+03  0.17338051432E+03 0.  0.
        -24    2    5    5    0    0 -0.25961294067E+02 -0.60734286633E+02  0.13469854772E+03  0.17125151549E+03  0.82587774126E+02 0.  0.
          5    1    3    3  501    0  0.22713165715E+01  0.57671198862E+02 -0.30868066033E+02  0.65620526954E+02  0.47000000000E+01 0. -1.
        -11    1    4    4    0    0  0.80694170817E+02 -0.19626889882E+02  0.53648097974E+02  0.98868005070E+02  0.00000000000E+00 0.  1.
         12    1    4    4    0    0  0.63770791672E+02  0.31130877435E+02 -0.10569289277E+02  0.71746465253E+02  0.00000000000E+00 0. -1.
         -5    1    5    5    0  502 -0.12077498499E+03 -0.84408997822E+01  0.56926778546E+02  0.13386782252E+03  0.47000000000E+01 0.  1.
         11    1    6    6    0    0 -0.38859546202E+02 -0.24698402300E+02  0.12283373138E+03  0.13118003268E+03  0.00000000000E+00 0. -1.
        -12    1    6    6    0    0  0.12898252135E+02 -0.36035884333E+02  0.11864816339E+02  0.40071482809E+02  0.00000000000E+00 0.  1.
</event>
<event>
12    1  0.8406581E-002  0.1726976E+03  0.7818608E-02  0.1175351E+00
         21   -1    0    0  503  502  0.00000000000E+00  0.00000000000E+00  0.21366692876E+03  0.21366692876E+03  0.00000000000E+00 0. -1.
         21   -1    0    0  501  503 -0.00000000000E+00 -0.00000000000E+00 -0.16772314865E+03  0.16772314865E+03  0.00000000000E+00 0. -1.
          6    2    1    2  501    0  0.15653355349E+02  0.12382294511E+02 -0.56319495070E+02  0.18164898370E+03  0.17154042964E+03 0.  0.
         24    2    3    3    0    0 -0.27568516657E+02 -0.32046009792E+02 -0.53774626983E+02  0.11943507210E+03  0.97908406615E+02 0.  0.
         -6    2    1    2    0  502 -0.15653355349E+02 -0.12382294511E+02  0.10226327519E+03  0.19974109371E+03  0.17041237724E+03 0.  0.
        -24    2    5    5    0    0 -0.19237496299E+02 -0.81777254073E+01 -0.13920150576E+02  0.83331459708E+02  0.79456938830E+02 0.  0.
          5    1    3    3  501    0  0.43221872005E+02  0.44428304303E+02 -0.25448680867E+01  0.62213911599E+02  0.47000000000E+01 0. -1.
        -11    1    4    4    0    0 -0.23698140235E+01  0.20554219301E+02 -0.57382776077E+02  0.60998974909E+02  0.00000000000E+00 0.  1.
         12    1    4    4    0    0 -0.25198702633E+02 -0.52600229092E+02  0.36081490941E+01  0.58436097190E+02  0.00000000000E+00 0. -1.
         -5    1    5    5    0  502  0.35841409499E+01 -0.42045691042E+01  0.11618342576E+03  0.11640963401E+03  0.47000000000E+01 0.  1.
         13    1    6    6    0    0 -0.43960971843E+02  0.82139897259E+01 -0.25507756291E+02  0.51484777397E+02  0.00000000000E+00 0. -1.
        -14    1    6    6    0    0  0.24723475545E+02 -0.16391715133E+02  0.11587605715E+02  0.31846682311E+02  0.00000000000E+00 0.  1.
</event>
<event>
12    1  0.8406581E-002  0.2117599E+03  0.7818608E-02  0.1140530E+00
         21   -1    0    0  503  502  0.00000000000E+00  0.00000000000E+00  0.16505887291E+03  0.16505887291E+03  0.00000000000E+00 0. -1.
         21   -1    0    0  501  503 -0.00000000000E+00 -0.00000000000E+00 -0.28309317879E+03  0.28309317879E+03  0.00000000000E+00 0.  1.
          6    2    1    2  501    0  0.82371345854E+01  0.12046668873E+03 -0.94887749727E+01  0.21019326374E+03  0.17178794426E+03 0.  0.
         24    2    3    3    0    0  0.30802471493E+02  0.14794168076E+03 -0.22357042556E+02  0.17209140122E+03  0.79246954935E+02 0.  0.
         -6    2    1    2    0  502 -0.82371345854E+01 -0.12046668873E+03 -0.10854553090E+03  0.23795878796E+03  0.17396027998E+03 0.  0.
        -24    2    5    5    0    0  0.27484404356E+01 -0.65904724161E+02  0.12255604512E+02  0.10486973825E+03  0.80600716911E+02 0.  0.
          5    1    3    3  501    0 -0.22565336908E+02 -0.27474992033E+02  0.12868267583E+02  0.38101862521E+02  0.47000000000E+01 0. -1.
        -13    1    4    4    0    0  0.28347655059E+02  0.63920874139E+01 -0.34434287256E+01  0.29262698615E+02  0.00000000000E+00 0.  1.
         14    1    4    4    0    0  0.24548164338E+01  0.14154959335E+03 -0.18913613830E+02  0.14282870261E+03  0.00000000000E+00 0. -1.
         -5    1    5    5    0  502 -0.10985575021E+02 -0.54561964565E+02 -0.12080113542E+03  0.13308904971E+03  0.47000000000E+01 0.  1.
         11    1    6    6    0    0  0.32316542767E+02 -0.47079699615E+02 -0.16600451823E+02  0.59467907757E+02  0.00000000000E+00 0. -1.
        -12    1    6    6    0    0 -0.29568102332E+02 -0.18825024547E+02  0.28856056336E+02  0.45401830491E+02  0.00000000000E+00 0.  1.
</event>
<event>
12    1  0.8406581E-002  0.2189431E+03  0.7818608E-02  0.1136037E+00
         21   -1    0    0  503  502  0.00000000000E+00  0.00000000000E+00  0.27969110522E+02  0.27969110522E+02  0.00000000000E+00 0. -1.
         21   -1    0    0  501  503 -0.00000000000E+00 -0.00000000000E+00 -0.30251458657E+04  0.30251458657E+04  0.00000000000E+00 0. -1.
          6    2    1    2  501    0 -0.23303953634E+01 -0.12459205328E+03 -0.25382029973E+04  0.25476284118E+04  0.18002071846E+03 0.  0.
         24    2    3    3    0    0 -0.72657567407E+02 -0.58838130378E+02 -0.14289513986E+04  0.14341964702E+04  0.79223531527E+02 0.  0.
         -6    2    1    2    0  502  0.23303953634E+01  0.12459205328E+03 -0.45897375793E+03  0.50548656439E+03  0.17126338144E+03 0.  0.
        -24    2    5    5    0    0  0.59628656238E+02  0.10152526384E+03 -0.37376509402E+03  0.40014059209E+03  0.80927078817E+02 0.  0.
          5    1    3    3  501    0  0.70327172043E+02 -0.65753922898E+02 -0.11092515986E+04  0.11134319416E+04  0.47000000000E+01 0. -1.
        -11    1    4    4    0    0 -0.33342329097E+02 -0.53766684931E+02 -0.44807341392E+03  0.45251779145E+03  0.00000000000E+00 0.  1.
         12    1    4    4    0    0 -0.39315238310E+02 -0.50714454469E+01 -0.98087798469E+03  0.98167867878E+03  0.00000000000E+00 0. -1.
         -5    1    5    5    0  502 -0.57298260875E+02  0.23066789435E+02 -0.85208663916E+02  0.10534597230E+03  0.47000000000E+01 0.  1.
         13    1    6    6    0    0 -0.13287475997E+02  0.53801247410E+02 -0.13267311394E+03  0.14378207956E+03  0.00000000000E+00 0. -1.
        -14    1    6    6    0    0  0.72916132235E+02  0.47724016431E+02 -0.24109198008E+03  0.25635851252E+03  0.00000000000E+00 0.  1.
</event>
<event>
12    1  0.8406581E-002  0.2209969E+03  0.7818608E-02  0.1133202E+00
         21   -1    0    0  503  502  0.00000000000E+00  0.00000000000E+00  0.72475494390E+03  0.72475494390E+03  0.00000000000E+00 0.  1.
         21   -1    0    0  501  503 -0.00000000000E+00 -0.00000000000E+00 -0.67382107041E+02  0.67382107041E+02  0.00000000000E+00 0. -1.
          6    2    1    2  501    0  0.91815228212E+01  0.13770159446E+03  0.31368576257E+03  0.38352911873E+03  0.17219116643E+03 0.  0.
         24    2    3    3    0    0 -0.22655605274E+02  0.15394596815E+03  0.29403368588E+03  0.34247090980E+03  0.81350341553E+02 0.  0.
         -6    2    1    2    0  502 -0.91815228212E+01 -0.13770159446E+03  0.34368707428E+03  0.40860793221E+03  0.17260824938E+03 0.  0.
        -24    2    5    5    0    0 -0.18860116452E+02 -0.27884029657E+02  0.68400215970E+02  0.11202992042E+03  0.82090745048E+02 0.  0.
          5    1    3    3  501    0  0.31837128095E+02 -0.16244373690E+02  0.19652076692E+02  0.41058208927E+02  0.47000000000E+01 0. -1.
        -11    1    4    4    0    0  0.90002329454E+01  0.36049581019E+02  0.14571153044E+03  0.15037428832E+03  0.00000000000E+00 0.  1.
         12    1    4    4    0    0 -0.31655838219E+02  0.11789638713E+03  0.14832215544E+03  0.19209662149E+03  0.00000000000E+00 0. -1.
         -5    1    5    5    0  502  0.96785936307E+01 -0.10981756480E+03  0.27528685831E+03  0.29657801178E+03  0.47000000000E+01 0.  1.
         13    1    6    6    0    0  0.20233422747E+02 -0.34917208594E+02  0.10300272897E+02  0.41649711570E+02  0.00000000000E+00 0. -1.
        -14    1    6    6    0    0 -0.39093539199E+02  0.70331789375E+01  0.58099943073E+02  0.70380208853E+02  0.00000000000E+00 0.  1.
</event>
<event>
12    1  0.8406581E-002  0.2467358E+03  0.7818608E-02  0.1115492E+00
         21   -1    0    0  503  502  0.00000000000E+00  0.00000000000E+00  0.23695392554E+03  0.23695392554E+03  0.00000000000E+00 0.  1.
         21   -1    0    0  501  503 -0.00000000000E+00 -0.00000000000E+00 -0.34144570978E+03  0.34144570978E+03  0.00000000000E+00 0.  1.
          6    2    1    2  501    0  0.13685721162E+03 -0.11279344885E+03 -0.19677670354E+03  0.31559409737E+03  0.17154097108E+03 0.  0.
         24    2    3    3    0    0  0.11739385731E+03 -0.10874936082E+03 -0.22143066456E+03  0.28357715493E+03  0.76004752361E+02 0.  0.
         -6    2    1    2    0  502 -0.13685721162E+03  0.11279344885E+03  0.92284919304E+02  0.26280553794E+03  0.17058131774E+03 0.  0.
        -24    2    5    5    0    0 -0.11628139642E+03  0.41286923072E+02  0.24410057832E+01  0.14605552210E+03  0.78104313959E+02 0.  0.
          5    1    3    3  501    0  0.19463354318E+02 -0.40440880341E+01  0.24653961014E+02  0.32016942437E+02  0.47000000000E+01 0. -1.
        -13    1    4    4    0    0  0.11095482940E+03 -0.58725504382E+02 -0.17215002175E+03  0.21306170238E+03  0.00000000000E+00 0.  1.
         14    1    4    4    0    0  0.64390279066E+01 -0.50023856438E+02 -0.49280642805E+02  0.70515452552E+02  0.00000000000E+00 0. -1.
         -5    1    5    5    0  502 -0.20575815209E+02  0.71506525782E+02  0.89843913521E+02  0.11675001584E+03  0.47000000000E+01 0.  1.
         11    1    6    6    0    0 -0.48223503149E+02 -0.10583392508E+02 -0.26105976720E+02  0.55848334563E+02  0.00000000000E+00 0. -1.
        -12    1    6    6    0    0 -0.68057893267E+02  0.51870315580E+02  0.28546982503E+02  0.90207187542E+02  0.00000000000E+00 0.  1.
</event>
<event>
12    1  0.8406581E-002  0.2381602E+03  0.7818608E-02  0.1121083E+00
         21   -1    0    0  503  502  0.00000000000E+00  0.00000000000E+00  0.29013137303E+03  0.29013137303E+03  0.00000000000E+00 0.  1.
         21   -1    0    0  501  503 -0.00000000000E+00 -0.00000000000E+00 -0.19762931685E+03  0.19762931685E+03  0.00000000000E+00 0. -1.
          6    2    1    2  501    0 -0.12259750704E+03  0.11105370686E+03  0.19251211545E+02  0.23859013125E+03  0.17085539806E+03 0.  0.
         24    2    3    3    0    0 -0.87247640648E+02  0.61339133542E+01  0.41681241911E+02  0.12552832344E+03  0.79813898332E+02 0.  0.
         -6    2    1    2    0  502  0.12259750704E+03 -0.11105370686E+03  0.73250844631E+02  0.24917055863E+03  0.17133944820E+03 0.  0.
        -24    2    5    5    0    0  0.30659541659E+02 -0.11313491179E+03  0.22227684127E+02  0.14389770458E+03  0.80454730644E+02 0.  0.
          5    1    3    3  501    0 -0.35349866390E+02  0.10491979351E+03 -0.22430030367E+02  0.11306180781E+03  0.47000000000E+01 0. -1.
        -13    1    4    4    0    0 -0.14061719336E+01  0.28775466404E+02  0.40037494865E+01  0.29086677297E+02  0.00000000000E+00 0.  1.
         14    1    4    4    0    0 -0.85841468714E+02 -0.22641553049E+02  0.37677492425E+02  0.96441646144E+02  0.00000000000E+00 0. -1.
         -5    1    5    5    0  502  0.91937965379E+02  0.20812049260E+01  0.51023160504E+02  0.10527285405E+03  0.47000000000E+01 0.  1.
         11    1    6    6    0    0  0.23111352483E+02  0.65123193900E+00 -0.10303003112E+02  0.25312261649E+02  0.00000000000E+00 0. -1.
        -12    1    6    6    0    0  0.75481891752E+01 -0.11378614373E+03  0.32530687239E+02  0.11858544293E+03  0.00000000000E+00 0.  1.
</event>
<event>
12    1  0.8406581E-002  0.1744008E+03  0.7818608E-02  0.1173522E+00
         21   -1    0    0  501  502  0.00000000000E+00  0.00000000000E+00  0.41689556920E+02  0.41689556920E+02  0.00000000000E+00 0. -1.
         21   -1    0    0  502  503 -0.00000000000E+00 -0.00000000000E+00 -0.72943001121E+03  0.72943001121E+03  0.00000000000E+00 0. -1.
         -6    2    1    2    0  503 -0.26717900749E+02  0.14554199620E+02 -0.36768893119E+03  0.40663551942E+03  0.17097258431E+03 0.  0.
        -24    2    3    3    0    0 -0.78121975810E+02  0.37218592665E+02 -0.27373553814E+03  0.29706643751E+03  0.76348259370E+02 0.  0.
          6    2    1    2  501    0  0.26717900749E+02 -0.14554199620E+02 -0.32005152310E+03  0.36448404872E+03  0.17172644927E+03 0.  0.
         24    2    5    5    0    0 -0.46972794899E+01 -0.73176575818E+02 -0.19766213595E+03  0.22511135186E+03  0.78917203861E+02 0.  0.
          5    1    5    5  501    0  0.31415180238E+02  0.58622376198E+02 -0.12238938716E+03  0.13937269686E+03  0.47000000000E+01 0. -1.
        -11    1    6    6    0    0  0.26001156240E+02 -0.68991801745E+02 -0.16122038970E+03  0.17727927936E+03  0.00000000000E+00 0.  1.
         12    1    6    6    0    0 -0.30698435730E+02 -0.41847740730E+01 -0.36441746245E+02  0.47832072500E+02  0.00000000000E+00 0. -1.
         -5    1    3    3    0  503  0.51404075061E+02 -0.22664393045E+02 -0.93953393046E+02  0.10956908191E+03  0.47000000000E+01 0.  1.
         11    1    4    4    0    0 -0.48019034472E+02 -0.18870045489E+02 -0.13012823450E+03  0.13998308363E+03  0.00000000000E+00 0. -1.
        -12    1    4    4    0    0 -0.30102941337E+02  0.56088638153E+02 -0.14360730365E+03  0.15708335389E+03  0.00000000000E+00 0.  1.
</event>
<event>
12    1  0.8406581E-002  0.1876191E+03  0.7818608E-02  0.1161480E+00
         21   -1    0    0  503  502  0.00000000000E+00  0.00000000000E+00  0.38823515784E+03  0.38823515784E+03  0.00000000000E+00 0.  1.
         21   -1    0    0  501  503 -0.00000000000E+00 -0.00000000000E+00 -0.11796158757E+03  0.11796158757E+03  0.00000000000E+00 0.  1.
          6    2    1    2  501    0 -0.35058894328E+02 -0.62655673944E+02  0.10520176748E+02  0.18791378239E+03  0.17333798183E+03 0.  0.
         24    2    3    3    0    0  0.12629866082E+02 -0.97358010380E+02  0.21001156411E+02  0.12782708704E+03  0.79124079198E+02 0.  0.
         -6    2    1    2    0  502  0.35058894328E+02  0.62655673944E+02  0.25975339352E+03  0.31828296302E+03  0.16934390912E+03 0.  0.
        -24    2    5    5    0    0  0.59110982307E+02  0.77648092543E+02  0.26036257133E+03  0.28954732924E+03  0.80781512805E+02 0.  0.
          5    1    3    3  501    0 -0.47688760410E+02  0.34702336435E+02 -0.10480979663E+02  0.60086695351E+02  0.47000000000E+01 0. -1.
        -13    1    4    4    0    0 -0.14856468142E+02 -0.62038104969E+02 -0.20282772673E+02  0.66939016882E+02  0.00000000000E+00 0.  1.
         14    1    4    4    0    0  0.27486334225E+02 -0.35319905410E+02  0.41283929084E+02  0.60888070161E+02  0.00000000000E+00 0. -1.
         -5    1    5    5    0  502 -0.24052087980E+02 -0.14992418598E+02 -0.60917780894E+00  0.28735633788E+02  0.47000000000E+01 0.  1.
         13    1    6    6    0    0  0.24440025992E+02 -0.12765226140E+02  0.83177549011E+02  0.87628594240E+02  0.00000000000E+00 0. -1.
        -14    1    6    6    0    0  0.34670956315E+02  0.90413318682E+02  0.17718502232E+03  0.20191873500E+03  0.00000000000E+00 0.  1.
</event>
<event>
12    1  0.8406581E-002  0.1966055E+03  0.7818608E-02  0.1152877E+00
         21   -1    0    0  501  502  0.00000000000E+00  0.00000000000E+00  0.80252134698E+02  0.80252134698E+02  0.00000000000E+00 0. -1.
         21   -1    0    0  502  503 -0.00000000000E+00 -0.00000000000E+00 -0.66650877886E+03  0.66650877886E+03  0.00000000000E+00 0. -1.
         -6    2    1    2    0  503 -0.91736399163E+02 -0.27092769276E+02 -0.49181774680E+03  0.52965877853E+03  0.17176769350E+03 0.  0.
        -24    2    3    3    0    0 -0.10076294360E+03 -0.63493613692E+02 -0.45503682590E+03  0.47691955100E+03  0.78798067338E+02 0.  0.
          6    2    1    2  501    0  0.91736399163E+02  0.27092769276E+02 -0.94438897360E+02  0.21710213502E+03  0.17048474014E+03 0.  0.
         24    2    5    5    0    0  0.87154328692E+01 -0.33032162778E+02 -0.17574724823E+02  0.88892621653E+02  0.80161990269E+02 0.  0.
          5    1    5    5  501    0  0.83020966294E+02  0.60124932055E+02 -0.76864172538E+02  0.12820951337E+03  0.47000000000E+01 0. -1.
        -11    1    6    6    0    0 -0.19390625954E+02  0.11035888904E+02  0.15384036476E+02  0.27100844951E+02  0.00000000000E+00 0.  1.
         12    1    6    6    0    0  0.28106058823E+02 -0.44068051683E+02 -0.32958761299E+02  0.61791776702E+02  0.00000000000E+00 0. -1.
         -5    1    3    3    0  503  0.90265444411E+01  0.36400844415E+02 -0.36780920904E+02  0.52739227537E+02  0.47000000000E+01 0.  1.
         11    1    4    4    0    0 -0.48488207140E+02 -0.49010236775E+02 -0.12773124505E+03  0.14514951086E+03  0.00000000000E+00 0. -1.
        -12    1    4    4    0    0 -0.52274736464E+02 -0.14483376917E+02 -0.32730558085E+03  0.33177004014E+03  0.00000000000E+00 0.  1.
</event>
<event>
12    1  0.8406581E-002  0.1839520E+03  0.7818608E-02  0.1164417E+00
         21   -1    0    0  501  502  0.00000000000E+00  0.00000000000E+00  0.78995037861E+03  0.78995037861E+03  0.00000000000E+00 0.  1.
         21   -1    0    0  502  503 -0.00000000000E+00 -0.00000000000E+00 -0.49499186359E+02  0.49499186359E+02  0.00000000000E+00 0.  1.
         -6    2    1    2    0  503  0.32177249821E+02 -0.53701821795E+02  0.21333492608E+03  0.28169157749E+03  0.17297136490E+03 0.  0.
        -24    2    3    3    0    0  0.37194250591E+02 -0.21958464551E+01  0.21212929598E+03  0.22971485832E+03  0.79886443782E+02 0.  0.
          6    2    1    2  501    0 -0.32177249821E+02  0.53701821795E+02  0.52711626617E+03  0.55775798747E+03  0.17124004631E+03 0.  0.
         24    2    5    5    0    0 -0.33690002081E+02  0.12440230153E+02  0.49728877849E+03  0.50660550576E+03  0.89795510381E+02 0.  0.
          5    1    5    5  501    0  0.15127522596E+01  0.41261591642E+02  0.29827487676E+02  0.51152481712E+02  0.47000000000E+01 0. -1.
        -11    1    6    6    0    0  0.54141579158E+01  0.41007612774E+02  0.32562339103E+03  0.32824004965E+03  0.00000000000E+00 0.  1.
         12    1    6    6    0    0 -0.39104159996E+02 -0.28567382621E+02  0.17166538747E+03  0.17836545611E+03  0.00000000000E+00 0. -1.
         -5    1    3    3    0  503 -0.50170007695E+01 -0.51505975340E+02  0.12056300998E+01  0.51976719177E+02  0.47000000000E+01 0.  1.
         13    1    4    4    0    0 -0.21001098144E+02  0.43966721329E+01  0.10921216899E+03  0.11129993128E+03  0.00000000000E+00 0. -1.
        -14    1    4    4    0    0  0.58195348734E+02 -0.65925185880E+01  0.10291712699E+03  0.11841492703E+03  0.00000000000E+00 0.  1.
</event>
<event>
12    1  0.8406581E-002  0.2501276E+03  0.7818608E-02  0.1113444E+00
         21   -1    0    0  501  502  0.00000000000E+00  0.00000000000E+00  0.19193184480E+03  0.19193184480E+03  0.00000000000E+00 0. -1.
         21   -1    0    0  502  503 -0.00000000000E+00 -0.00000000000E+00 -0.32835080832E+03  0.32835080832E+03  0.00000000000E+00 0.  1.
         -6    2    1    2    0  503 -0.10461485125E+03 -0.14876798657E+03 -0.97762030226E+02  0.26855396975E+03  0.17171965288E+03 0.  0.
        -24    2    3    3    0    0 -0.59629674928E+02 -0.15074876654E+03 -0.24189288365E+02  0.18216746662E+03  0.79491983732E+02 0.  0.
          6    2    1    2  501    0  0.10461485125E+03  0.14876798657E+03 -0.38656933291E+02  0.25172868338E+03  0.16969617148E+03 0.  0.
         24    2    5    5    0    0  0.63616613112E+02  0.96501788445E+01 -0.29100428205E+02  0.10630503762E+03  0.79458962282E+02 0.  0.
          5    1    5    5  501    0  0.40998238134E+02  0.13911780772E+03 -0.95565050853E+01  0.14542364576E+03  0.47000000000E+01 0. -1.
        -11    1    6    6    0    0  0.75660164241E+02 -0.11675607950E+02 -0.14892851332E+02  0.77990879562E+02  0.00000000000E+00 0.  1.
         12    1    6    6    0    0 -0.12043551129E+02  0.21325786794E+02 -0.14207576873E+02  0.28314158062E+02  0.00000000000E+00 0. -1.
         -5    1    3    3    0  503 -0.44985176317E+02  0.19807799737E+01 -0.73572741861E+02  0.86386503127E+02  0.47000000000E+01 0.  1.
         11    1    4    4    0    0 -0.63886221084E+02 -0.82860359991E+02  0.11660229574E+02  0.10527701295E+03  0.00000000000E+00 0. -1.
        -12    1    4    4    0    0  0.42565461551E+01 -0.67888406549E+02 -0.35849517939E+02  0.76890453669E+02  0.00000000000E+00 0.  1.
</event>
<event>
12    1  0.8406581E-002  0.1819918E+03  0.7818608E-02  0.1165972E+00
         21   -1    0    0  501  502  0.00000000000E+00  0.00000000000E+00  0.34124573492E+03  0.34124573492E+03  0.00000000000E+00 0. -1.
         21   -1    0    0  502  503 -0.00000000000E+00 -0.00000000000E+00 -0.12786064128E+03  0.12786064128E+03  0.00000000000E+00 0. -1.
         -6    2    1    2    0  503 -0.44513155500E+02 -0.37640191931E+02 -0.86971223805E+01  0.18219949218E+03  0.17240304507E+03 0.  0.
        -24    2    3    3    0    0 -0.51560335862E+02  0.19073911511E+02  0.43035445535E+02  0.10496931114E+03  0.78385103010E+02 0.  0.
          6    2    1    2  501    0  0.44513155500E+02  0.37640191931E+02  0.22208221602E+03  0.28690688402E+03  0.17203733423E+03 0.  0.
         24    2    5    5    0    0 -0.36733837760E+02  0.44875285985E+02  0.10855882401E+03  0.14703883537E+03  0.80450200182E+02 0.  0.
          5    1    5    5  501    0  0.81246993260E+02 -0.72350940540E+01  0.11352339201E+03  0.13986804865E+03  0.47000000000E+01 0. -1.
        -11    1    6    6    0    0 -0.80259332544E+01  0.54623888763E+02  0.30004064404E+02  0.62836523686E+02  0.00000000000E+00 0.  1.
         12    1    6    6    0    0 -0.28707904506E+02 -0.97486027777E+01  0.78554759601E+02  0.84202311685E+02  0.00000000000E+00 0. -1.
         -5    1    3    3    0  503  0.70471803616E+01 -0.56714103442E+02 -0.51732567915E+02  0.77230181039E+02  0.47000000000E+01 0.  1.
         13    1    4    4    0    0 -0.14699598012E+02 -0.29185477549E+02  0.43473845946E+01  0.32966195326E+02  0.00000000000E+00 0. -1.
        -14    1    4    4    0    0 -0.36860737850E+02  0.48259389060E+02  0.38688060940E+02  0.72003115811E+02  0.00000000000E+00 0.  1.
</event>
<event>
12    1  0.8406581E-002  0.1904710E+03  0.7818608E-02  0.1159787E+00
         21   -1    0    0  503  502  0.00000000000E+00  0.00000000000E+00  0.14091925053E+02  0.14091925053E+02  0.00000000000E+00 0. -1.
         21   -1    0    0  501  503 -0.00000000000E+00 -0.00000000000E+00 -0.25140296238E+04  0.25140296238E+04  0.00000000000E+00 0.  1.
          6    2    1    2  501    0  0.39310285122E+01  0.72203081539E+02 -0.10625231387E+04  0.10781422968E+04  0.16794836628E+03 0.  0.
         24    2    3    3    0    0 -0.54483206918E+02  0.67326374888E+02 -0.83018654523E+03  0.83847922523E+03  0.79601825847E+02 0.  0.
         -6    2    1    2    0  502 -0.39310285122E+01 -0.72203081539E+02 -0.14374145601E+04  0.14499792521E+04  0.17621145312E+03 0.  0.
        -24    2    5    5    0    0 -0.62844631210E+02 -0.11823200485E+02 -0.67014279657E+03  0.67806954780E+03  0.81226277234E+02 0.  0.
          5    1    3    3  501    0  0.58414235431E+02  0.48767066511E+01 -0.23233659351E+03  0.23966307152E+03  0.47000000000E+01 0. -1.
        -11    1    4    4    0    0 -0.13848375954E+02  0.39146633177E+02 -0.65864172147E+03  0.65994935690E+03  0.00000000000E+00 0.  1.
         12    1    4    4    0    0 -0.40634830965E+02  0.28179741711E+02 -0.17154482375E+03  0.17852986833E+03  0.00000000000E+00 0. -1.
         -5    1    5    5    0  502  0.58913602698E+02 -0.60379881054E+02 -0.76727176349E+03  0.77190970435E+03  0.47000000000E+01 0.  1.
         13    1    6    6    0    0 -0.57097762391E+02  0.11189729450E+02 -0.61860631533E+03  0.62133657376E+03  0.00000000000E+00 0. -1.
        -14    1    6    6    0    0 -0.57468688193E+01 -0.23012929935E+02 -0.51536481236E+02  0.56732974042E+02  0.00000000000E+00 0.  1.
</event>
<event>
12    1  0.8406581E-002  0.2499235E+03  0.7818608E-02  0.1113702E+00
         21   -1    0    0  501  502  0.00000000000E+00  0.00000000000E+00  0.26154599139E+03  0.26154599139E+03  0.00000000000E+00 0.  1.
         21   -1    0    0  502  503 -0.00000000000E+00 -0.00000000000E+00 -0.25680704534E+03  0.25680704534E+03  0.00000000000E+00 0.  1.
         -6    2    1    2    0  503 -0.71553945030E+02 -0.16521960001E+03 -0.70102328597E+02  0.25956902380E+03  0.17333279656E+03 0.  0.
        -24    2    3    3    0    0 -0.24360715132E+02 -0.64225618817E+01 -0.16895252097E+02  0.85509312040E+02  0.79948102912E+02 0.  0.
          6    2    1    2  501    0  0.71553945030E+02  0.16521960001E+03  0.74841274650E+02  0.25878401294E+03  0.17014836374E+03 0.  0.
         24    2    5    5    0    0  0.10318563515E+03  0.12139089369E+03  0.18573635265E+02  0.18061972084E+03  0.83039022485E+02 0.  0.
          5    1    5    5  501    0 -0.31631690120E+02  0.43828706319E+02  0.56267639385E+02  0.78164292100E+02  0.47000000000E+01 0. -1.
        -13    1    6    6    0    0  0.15373272791E+01  0.61262150830E+02  0.11133680213E+02  0.62284615553E+02  0.00000000000E+00 0.  1.
         14    1    6    6    0    0  0.10164830787E+03  0.60128742862E+02  0.74399550517E+01  0.11833510528E+03  0.00000000000E+00 0. -1.
         -5    1    3    3    0  503 -0.47193229898E+02 -0.15879703813E+03 -0.53207076499E+02  0.17405971176E+03  0.47000000000E+01 0.  1.
         11    1    4    4    0    0  0.29479822185E+02 -0.43334919500E+01 -0.36094860043E+01  0.30014454148E+02  0.00000000000E+00 0. -1.
        -12    1    4    4    0    0 -0.53840537317E+02 -0.20890699317E+01 -0.13285766093E+02  0.55494857892E+02  0.00000000000E+00 0.  1.
</event>
<event>
12    1  0.8406581E-002  0.1843004E+03  0.7818608E-02  0.1168129E+00
         21   -1    0    0  501  502  0.00000000000E+00  0.00000000000E+00  0.13754596384E+04  0.13754596384E+04  0.00000000000E+00 0.  1.
         21   -1    0    0  502  503 -0.00000000000E+00 -0.00000000000E+00 -0.51856178591E+02  0.51856178591E+02  0.00000000000E+00 0.  1.
         -6    2    1    2    0  503  0.48774480653E+02 -0.44488155135E+02  0.12142715525E+04  0.12281783377E+04  0.17207114894E+03 0.  0.
        -24    2    3    3    0    0  0.63292132894E+02 -0.81265571986E+02  0.11191598509E+04  0.11250683654E+04  0.51478808916E+02 0.  0.
          6    2    1    2  501    0 -0.48774480653E+02  0.44488155135E+02  0.10933190738E+03  0.19913747927E+03  0.15278783907E+03 0.  0.
         24    2    5    5    0    0  0.20990285544E+00  0.90685936024E+01  0.11224973012E+03  0.13843641786E+03  0.80513082344E+02 0.  0.
          5    1    5    5  501    0 -0.48984383509E+02  0.35419561533E+02 -0.29178227419E+01  0.60701061411E+02  0.47000000000E+01 0. -1.
        -13    1    6    6    0    0 -0.35946334635E+02  0.88408822097E+01  0.26946179976E+02  0.45786425796E+02  0.00000000000E+00 0.  1.
         14    1    6    6    0    0  0.36156237490E+02  0.22771139268E+00  0.85303550147E+02  0.92649992065E+02  0.00000000000E+00 0. -1.
         -5    1    3    3    0  503 -0.14517652241E+02  0.36777416851E+02  0.95111701571E+02  0.10310997232E+03  0.47000000000E+01 0.  1.
         11    1    4    4    0    0  0.19547371663E+02 -0.43100484949E+02  0.28607003823E+03  0.28995830444E+03  0.00000000000E+00 0. -1.
        -12    1    4    4    0    0  0.43744761232E+02 -0.38165087037E+02  0.83308981265E+03  0.83511006098E+03  0.00000000000E+00 0.  1.
</event>
<event>
12    1  0.8406581E-002  0.2033815E+03  0.7818608E-02  0.1148163E+00
         21   -1    0    0  501  502  0.00000000000E+00  0.00000000000E+00  0.50360555032E+02  0.50360555032E+02  0.00000000000E+00 0. -1.
         21   -1    0    0  502  503 -0.00000000000E+00 -0.00000000000E+00 -0.10167373024E+04  0.10167373024E+04  0.00000000000E+00 0. -1.
         -6    2    1    2    0  503 -0.90482690595E+02 -0.41255128022E+02 -0.72528426107E+03  0.75167809702E+03  0.17056845931E+03 0.  0.
        -24    2    3    3    0    0 -0.11388007891E+03 -0.60675473492E+02 -0.57163723499E+03  0.59498066175E+03  0.10287212441E+03 0.  0.
          6    2    1    2  501    0  0.90482690595E+02  0.41255128022E+02 -0.24109248633E+03  0.31541976044E+03  0.17741176799E+03 0.  0.
         24    2    5    5    0    0  0.61504769625E+02 -0.17908626865E+02 -0.22623193629E+03  0.24772193371E+03  0.77985330937E+02 0.  0.
          5    1    5    5  501    0  0.28977920971E+02  0.59163754886E+02 -0.14860550044E+02  0.67697826728E+02  0.47000000000E+01 0. -1.
        -11    1    6    6    0    0 -0.11788159860E+02  0.42238011377E+01 -0.94745796840E+02  0.95569698272E+02  0.00000000000E+00 0.  1.
         12    1    6    6    0    0  0.73292929484E+02 -0.22132428002E+02 -0.13148613945E+03  0.15215223544E+03  0.00000000000E+00 0. -1.
         -5    1    3    3    0  503  0.23397388311E+02  0.19420345471E+02 -0.15364702608E+03  0.15669743527E+03  0.47000000000E+01 0.  1.
         13    1    4    4    0    0 -0.11470747902E+03 -0.53422519419E+02 -0.57362419107E+03  0.58741508655E+03  0.00000000000E+00 0. -1.
        -14    1    4    4    0    0  0.82740010911E+00 -0.72529540731E+01  0.19869560823E+01  0.75655752062E+01  0.00000000000E+00 0.  1.
</event>
<event>
12    1  0.8406581E-002  0.2117052E+03  0.7818608E-02  0.1140441E+00
         21   -1    0    0  501  502  0.00000000000E+00  0.00000000000E+00  0.74681201415E+02  0.74681201415E+02  0.00000000000E+00 0. -1.
         21   -1    0    0  502  503 -0.00000000000E+00 -0.00000000000E+00 -0.69845587407E+03  0.69845587407E+03  0.00000000000E+00 0.  1.
         -6    2    1    2    0  503  0.25900121972E+02 -0.11937074576E+03 -0.45852448344E+03  0.50457287025E+03  0.17154850105E+03 0.  0.
        -24    2    3    3    0    0 -0.48446512257E+02 -0.58628201526E+02 -0.29494823615E+03  0.31484581003E+03  0.79681186740E+02 0.  0.
          6    2    1    2  501    0 -0.25900121972E+02  0.11937074576E+03 -0.16525018921E+03  0.26856420524E+03  0.17291303028E+03 0.  0.
         24    2    5    5    0    0 -0.19489788435E+02 -0.69725726154E+01 -0.47707672209E+02  0.95815660303E+02  0.80474531061E+02 0.  0.
          5    1    5    5  501    0 -0.64103335369E+01  0.12634331837E+03 -0.11754251701E+03  0.17274854494E+03  0.47000000000E+01 0. -1.
        -13    1    6    6    0    0  0.19315065885E+02 -0.23521338229E+02  0.21424339596E+01  0.30510902076E+02  0.00000000000E+00 0.  1.
         14    1    6    6    0    0 -0.38804854320E+02  0.16548765613E+02 -0.49850106168E+02  0.65304758227E+02  0.00000000000E+00 0. -1.
         -5    1    3    3    0  503  0.74346634229E+02 -0.60742544232E+02 -0.16357624729E+03  0.18972706022E+03  0.47000000000E+01 0.  1.
         11    1    4    4    0    0  0.17888019768E+02  0.32384370482E+01 -0.33575470148E+02  0.38180897336E+02  0.00000000000E+00 0. -1.
        -12    1    4    4    0    0 -0.66334532025E+02 -0.61866638574E+02 -0.26137276600E+03  0.27666491269E+03  0.00000000000E+00 0.  1.
</event>
<event>
12    1  0.8406581E-002  0.2780118E+03  0.7818608E-02  0.1096913E+00
         21   -1    0    0  503  502  0.00000000000E+00  0.00000000000E+00  0.89711388603E+03  0.89711388603E+03  0.00000000000E+00 0.  1.
         21   -1    0    0  501  503 -0.00000000000E+00 -0.00000000000E+00 -0.10517777243E+03  0.10517777243E+03  0.00000000000E+00 0.  1.
          6    2    1    2  501    0 -0.51141881173E+02  0.21159079180E+03  0.18060678093E+03  0.33071580887E+03  0.17137088939E+03 0.  0.
         24    2    3    3    0    0 -0.77422489319E+02  0.21351723261E+03  0.18490778562E+03  0.30360547541E+03  0.80009655937E+02 0.  0.
         -6    2    1    2    0  502  0.51141881173E+02 -0.21159079180E+03  0.61132933267E+03  0.67157584959E+03  0.17292892638E+03 0.  0.
        -24    2    5    5    0    0  0.14204285426E+02 -0.21557984219E+03  0.43737489577E+03  0.49363615581E+03  0.75521022194E+02 0.  0.
          5    1    3    3  501    0  0.26280608146E+02 -0.19264408102E+01 -0.43010046866E+01  0.27110333455E+02  0.47000000000E+01 0. -1.
        -13    1    4    4    0    0 -0.62311837182E+02  0.20327713816E+03  0.13852146565E+03  0.25375688444E+03  0.00000000000E+00 0.  1.
         14    1    4    4    0    0 -0.15110652136E+02  0.10240094449E+02  0.46386319962E+02  0.49848590973E+02  0.00000000000E+00 0. -1.
         -5    1    5    5    0  502  0.36937595747E+02  0.39890503857E+01  0.17395443690E+03  0.17793969377E+03  0.47000000000E+01 0.  1.
         11    1    6    6    0    0 -0.26464806741E+02 -0.99342825651E+02  0.16040429732E+03  0.19052275875E+03  0.00000000000E+00 0. -1.
        -12    1    6    6    0    0  0.40669092166E+02 -0.11623701654E+03  0.27697059845E+03  0.30311339706E+03  0.00000000000E+00 0.  1.
</event>
<event>
12    1  0.8406581E-002  0.1762353E+03  0.7818608E-02  0.1171637E+00
         21   -1    0    0  501  502  0.00000000000E+00  0.00000000000E+00  0.34063106494E+02  0.34063106494E+02  0.00000000000E+00 0. -1.
         21   -1    0    0  502  503 -0.00000000000E+00 -0.00000000000E+00 -0.23269373702E+04  0.23269373702E+04  0.00000000000E+00 0. -1.
         -6    2    1    2    0  503  0.11451886135E+02  0.34892019404E+02 -0.20672691176E+04  0.20747199136E+04  0.17179207423E+03 0.  0.
        -24    2    3    3    0    0  0.67853479973E+02  0.51775845295E+02 -0.13747779760E+04  0.13797146802E+04  0.79456166995E+02 0.  0.
          6    2    1    2  501    0 -0.11451886135E+02 -0.34892019404E+02 -0.22560514611E+03  0.28628056305E+03  0.17236670246E+03 0.  0.
         24    2    5    5    0    0  0.15946592275E+02  0.34695517258E+02 -0.66246700369E+02  0.11018312949E+03  0.79332364091E+02 0.  0.
          5    1    5    5  501    0 -0.27398478410E+02 -0.69587536662E+02 -0.15935844574E+03  0.17609743356E+03  0.47000000000E+01 0. -1.
        -13    1    6    6    0    0  0.28656701019E+02  0.11857142502E+02 -0.76157759619E+02  0.82230181149E+02  0.00000000000E+00 0.  1.
         14    1    6    6    0    0 -0.12710108744E+02  0.22838374756E+02  0.99110592491E+01  0.27952948346E+02  0.00000000000E+00 0. -1.
         -5    1    3    3    0  503 -0.56401593838E+02 -0.16883825891E+02 -0.69249114156E+03  0.69500523343E+03  0.47000000000E+01 0.  1.
         11    1    4    4    0    0  0.34242051123E+00  0.48336383852E+02 -0.64759430091E+03  0.64939579751E+03  0.00000000000E+00 0. -1.
        -12    1    4    4    0    0  0.67511059462E+02  0.34394614432E+01 -0.72718367511E+03  0.73031888267E+03  0.00000000000E+00 0.  1.
</event>
<event>
12    1  0.8406581E-002  0.1908708E+03  0.7818608E-02  0.1158649E+00
         21   -1    0    0  503  502  0.00000000000E+00  0.00000000000E+00  0.93747277736E+03  0.93747277736E+03  0.00000000000E+00 0. -1.
         21   -1    0    0  501  503 -0.00000000000E+00 -0.00000000000E+00 -0.56810881699E+02  0.56810881699E+02  0.00000000000E+00 0. -1.
          6    2    1    2  501    0 -0.79290566977E+02  0.22038965180E+02  0.15089977645E+03  0.23997310094E+03  0.16746234396E+03 0.  0.
         24    2    3    3    0    0  0.17628143400E+02  0.37820980173E+01  0.10128388440E+03  0.12947252916E+03  0.78610780829E+02 0.  0.
         -6    2    1    2    0  502  0.79290566977E+02 -0.22038965180E+02  0.72976211921E+03  0.75431055812E+03  0.17221776174E+03 0.  0.
        -24    2    5    5    0    0  0.52610014506E+02 -0.75952978708E+02  0.58440281559E+03  0.59692571170E+03  0.79101111327E+02 0.  0.
          5    1    3    3  501    0 -0.96918710376E+02  0.18256867163E+02  0.49615892049E+02  0.11050057178E+03  0.47000000000E+01 0. -1.
        -13    1    4    4    0    0 -0.27924980608E+02 -0.14569604194E+02  0.41667660090E+02  0.52232861359E+02  0.00000000000E+00 0.  1.
         14    1    4    4    0    0  0.45553124008E+02  0.18351702211E+02  0.59616224310E+02  0.77239667801E+02  0.00000000000E+00 0. -1.
         -5    1    5    5    0  502  0.26680552470E+02  0.53914013527E+02  0.14535930362E+03  0.15738484642E+03  0.47000000000E+01 0.  1.
         13    1    6    6    0    0  0.27770317915E+02 -0.56933160283E+02  0.17124996847E+03  0.18259005175E+03  0.00000000000E+00 0. -1.
        -14    1    6    6    0    0  0.24839696592E+02 -0.19019818425E+02  0.41315284713E+03  0.41433565995E+03  0.00000000000E+00 0.  1.
</event>
<event>
12    1  0.8406581E-002  0.2557131E+03  0.7818608E-02  0.1111099E+00
         21   -1    0    0  503  502  0.00000000000E+00  0.00000000000E+00  0.13143393270E+03  0.13143393270E+03  0.00000000000E+00 0. -1.
         21   -1    0    0  501  503 -0.00000000000E+00 -0.00000000000E+00 -0.73479042145E+03  0.73479042145E+03  0.00000000000E+00 0. -1.
          6    2    1    2  501    0  0.16560863164E+03  0.64040157591E+02 -0.50465408938E+02  0.26064528482E+03  0.18401588612E+03 0.  0.
         24    2    3    3    0    0  0.92844986726E+02  0.10679015358E+03 -0.64293890344E+02  0.17499817701E+03  0.80413488671E+02 0.  0.
         -6    2    1    2    0  502 -0.16560863164E+03 -0.64040157591E+02 -0.55289107981E+03  0.60557906932E+03  0.17178504711E+03 0.  0.
        -24    2    5    5    0    0 -0.18139428419E+03 -0.52454770265E+02 -0.54676705370E+03  0.58453146324E+03  0.84068015601E+02 0.  0.
          5    1    3    3  501    0  0.72763644910E+02 -0.42749995993E+02  0.13828481406E+02  0.85647107808E+02  0.47000000000E+01 0. -1.
        -11    1    4    4    0    0 -0.57546902729E+01 -0.67897162336E+01 -0.13646919401E+02  0.16292793370E+02  0.00000000000E+00 0.  1.
         12    1    4    4    0    0  0.98599676999E+02  0.11357986982E+03 -0.50646970944E+02  0.15870538364E+03  0.00000000000E+00 0. -1.
         -5    1    5    5    0  502  0.15785652550E+02 -0.11585387326E+02 -0.61240261076E+01  0.21047606080E+02  0.47000000000E+01 0.  1.
         13    1    6    6    0    0 -0.16964189780E+03 -0.42250401853E+02 -0.39488140967E+03  0.43185043435E+03  0.00000000000E+00 0. -1.
        -14    1    6    6    0    0 -0.11752386387E+02 -0.10204368413E+02 -0.15188564403E+03  0.15268102889E+03  0.00000000000E+00 0.  1.
</event>
<event>
12    1  0.8406581E-002  0.2157098E+03  0.7818608E-02  0.1137403E+00
         21   -1    0    0  503  502  0.00000000000E+00  0.00000000000E+00  0.52649844321E+03  0.52649844321E+03  0.00000000000E+00 0.  1.
         21   -1    0    0  501  503 -0.00000000000E+00 -0.00000000000E+00 -0.90705891940E+02  0.90705891940E+02  0.00000000000E+00 0.  1.
          6    2    1    2  501    0  0.44845848453E+02  0.11865500979E+03  0.27403578862E+03  0.34874969611E+03  0.17447227752E+03 0.  0.
         24    2    3    3    0    0  0.93985308281E+02  0.61090011165E+02  0.19933921541E+03  0.24230683055E+03  0.80070279733E+02 0.  0.
         -6    2    1    2    0  502 -0.44845848453E+02 -0.11865500979E+03  0.16175676265E+03  0.26845463904E+03  0.17266291289E+03 0.  0.
        -24    2    5    5    0    0 -0.22775931061E+02 -0.11023961275E+03  0.39261380345E+02  0.14361430563E+03  0.80075573927E+02 0.  0.
          5    1    3    3  501    0 -0.49139459828E+02  0.57564998622E+02  0.74696573216E+02  0.10644286556E+03  0.47000000000E+01 0. -1.
        -11    1    4    4    0    0  0.31458082364E+02  0.66627782708E+02  0.90920508223E+02  0.11702739504E+03  0.00000000000E+00 0.  1.
         12    1    4    4    0    0  0.62527225917E+02 -0.55377715435E+01  0.10841870719E+03  0.12527943551E+03  0.00000000000E+00 0. -1.
         -5    1    5    5    0  502 -0.22069917392E+02 -0.84153970413E+01  0.12249538231E+03  0.12484033342E+03  0.47000000000E+01 0.  1.
         13    1    6    6    0    0  0.86570893123E+01 -0.81714452089E+01 -0.18649509738E+02  0.22125142387E+02  0.00000000000E+00 0. -1.
        -14    1    6    6    0    0 -0.31433020373E+02 -0.10206816754E+03  0.57910890084E+02  0.12148916324E+03  0.00000000000E+00 0.  1.
</event>
<event>
12    1  0.8406581E-002  0.3674466E+03  0.7818608E-02  0.1055810E+00
         21   -1    0    0  501  502  0.00000000000E+00  0.00000000000E+00  0.24438782032E+03  0.24438782032E+03  0.00000000000E+00 0.  1.
         21   -1    0    0  502  503 -0.00000000000E+00 -0.00000000000E+00 -0.65580909899E+03  0.65580909899E+03  0.00000000000E+00 0. -1.
         -6    2    1    2    0  503  0.27656025081E+03 -0.16939812717E+03 -0.25554853775E+02  0.36833416232E+03  0.17273015591E+03 0.  0.
        -24    2    3    3    0    0  0.14001206956E+03 -0.78739041713E+02 -0.77619758394E+02  0.19629544611E+03  0.81877096675E+02 0.  0.
          6    2    1    2  501    0 -0.27656025081E+03  0.16939812717E+03 -0.38586642490E+03  0.53186275700E+03  0.16971681296E+03 0.  0.
         24    2    5    5    0    0 -0.19859490287E+03  0.86831971601E+02 -0.16667627005E+03  0.28495755351E+03  0.80250243419E+02 0.  0.
          5    1    5    5  501    0 -0.77965347942E+02  0.82566155572E+02 -0.21919015485E+03  0.24690520349E+03  0.47000000000E+01 0. -1.
        -13    1    6    6    0    0 -0.20325539443E+03  0.72357317520E+02 -0.15287767141E+03  0.26442374927E+03  0.00000000000E+00 0.  1.
         14    1    6    6    0    0  0.46604915573E+01  0.14474654080E+02 -0.13798598634E+02  0.20533804240E+02  0.00000000000E+00 0. -1.
         -5    1    3    3    0  503  0.13654818125E+03 -0.90659085459E+02  0.52064904619E+02  0.17203871620E+03  0.47000000000E+01 0.  1.
         13    1    4    4    0    0  0.61604394884E+02 -0.80649818563E+02 -0.50077221580E+02  0.11316900116E+03  0.00000000000E+00 0. -1.
        -14    1    4    4    0    0  0.78407674671E+02  0.19107768497E+01 -0.27542536814E+02  0.83126444948E+02  0.00000000000E+00 0.  1.
</event>
<event>
12    1  0.8406581E-002  0.2002518E+03  0.7818608E-02  0.1150378E+00
         21   -1    0    0  503  502  0.00000000000E+00  0.00000000000E+00  0.31570213503E+02  0.31570213503E+02  0.00000000000E+00 0.  1.
         21   -1    0    0  501  503 -0.00000000000E+00 -0.00000000000E+00 -0.13784064683E+04  0.13784064683E+04  0.00000000000E+00 0.  1.
          6    2    1    2  501    0 -0.48213946334E+02  0.89539915825E+02 -0.88661265073E+03  0.90807374580E+03  0.16785098813E+03 0.  0.
         24    2    3    3    0    0  0.58078429213E+01  0.16068691738E+02 -0.63659633464E+03  0.64190345670E+03  0.80580522192E+02 0.  0.
         -6    2    1    2    0  502  0.48213946334E+02 -0.89539915825E+02 -0.46022360406E+03  0.50190293600E+03  0.17250742096E+03 0.  0.
        -24    2    5    5    0    0 -0.32288501435E+02 -0.54841593651E+02 -0.32623462690E+03  0.34171631465E+03  0.79314943062E+02 0.  0.
          5    1    3    3  501    0 -0.54021789255E+02  0.73471224087E+02 -0.25001631609E+03  0.26617028909E+03  0.47000000000E+01 0. -1.
        -13    1    4    4    0    0  0.32287013132E+01 -0.30376973689E+02 -0.37175253293E+03  0.37300553720E+03  0.00000000000E+00 0.  1.
         14    1    4    4    0    0  0.25791416080E+01  0.46445665427E+02 -0.26484380172E+03  0.26889791951E+03  0.00000000000E+00 0. -1.
         -5    1    5    5    0  502  0.80502447769E+02 -0.34698322174E+02 -0.13398897716E+03  0.16018662135E+03  0.47000000000E+01 0.  1.
         11    1    6    6    0    0 -0.37741188587E+02 -0.41815802793E+02 -0.97923337872E+02  0.11296875134E+03  0.00000000000E+00 0. -1.
        -12    1    6    6    0    0  0.54526871523E+01 -0.13025790858E+02 -0.22831128903E+03  0.22874756331E+03  0.00000000000E+00 0.  1.
</event>
<event>
12    1  0.8406581E-002  0.1767660E+03  0.7818608E-02  0.1171280E+00
         21   -1    0    0  501  502  0.00000000000E+00  0.00000000000E+00  0.41319138004E+03  0.41319138004E+03  0.00000000000E+00 0. -1.
         21   -1    0    0  502  503 -0.00000000000E+00 -0.00000000000E+00 -0.92766195893E+02  0.92766195893E+02  0.00000000000E+00 0. -1.
         -6    2    1    2    0  503 -0.10034851682E+02 -0.36563382732E+02  0.49326455369E+02  0.18232082409E+03  0.17137737451E+03 0.  0.
        -24    2    3    3    0    0 -0.47872221086E+02 -0.33242960159E+02 -0.22956082767E+02  0.10053117286E+03  0.78630089842E+02 0.  0.
          6    2    1    2  501    0  0.10034851682E+02  0.36563382732E+02  0.27109872878E+03  0.32363675185E+03  0.17265180912E+03 0.  0.
         24    2    5    5    0    0  0.53260149802E+02 -0.10432992995E+02  0.12330059300E+03  0.16256700091E+03  0.90991772420E+02 0.  0.
          5    1    5    5  501    0 -0.43225298120E+02  0.46996375727E+02  0.14779813578E+03  0.16106975094E+03  0.47000000000E+01 0. -1.
        -13    1    6    6    0    0  0.36927437059E+02 -0.25227969392E+02  0.83150841689E+01  0.45488753248E+02  0.00000000000E+00 0.  1.
         14    1    6    6    0    0  0.16332712744E+02  0.14794976397E+02  0.11498550884E+03  0.11707824766E+03  0.00000000000E+00 0. -1.
         -5    1    3    3    0  503  0.37837369403E+02 -0.33204225729E+01  0.72282538136E+02  0.81789651233E+02  0.47000000000E+01 0.  1.
         11    1    4    4    0    0  0.12140678328E+02 -0.31247775556E+02 -0.22697578586E+02  0.40484560281E+02  0.00000000000E+00 0. -1.
        -12    1    4    4    0    0 -0.60012899413E+02 -0.19951846022E+01 -0.25850418032E+00  0.60046612577E+02  0.00000000000E+00 0.  1.
</event>
<event>
12    1  0.8406581E-002  0.2126249E+03  0.7818608E-02  0.1139551E+00
         21   -1    0    0  503  502  0.00000000000E+00  0.00000000000E+00  0.46330564036E+03  0.46330564036E+03  0.00000000000E+00 0.  1.
         21   -1    0    0  501  503 -0.00000000000E+00 -0.00000000000E+00 -0.11651720609E+03  0.11651720609E+03  0.00000000000E+00 0.  1.
          6    2    1    2  501    0 -0.11559231223E+03  0.47229152670E+02  0.29052764794E+03  0.35988051554E+03  0.17180074428E+03 0.  0.
         24    2    3    3    0    0 -0.14287985867E+03  0.26130107864E+02  0.27704385359E+03  0.32254845702E+03  0.78656047207E+02 0.  0.
         -6    2    1    2    0  502  0.11559231223E+03 -0.47229152670E+02  0.56260786319E+02  0.21994233091E+03  0.17209641874E+03 0.  0.
        -24    2    5    5    0    0 -0.69002208333E+01 -0.23480353284E+02  0.43532812929E+02  0.94433297634E+02  0.80147375893E+02 0.  0.
          5    1    3    3  501    0  0.27287546446E+02  0.21099044806E+02  0.13483794353E+02  0.37332058515E+02  0.47000000000E+01 0. -1.
        -11    1    4    4    0    0 -0.93167096786E+02 -0.49333057536E+01  0.10336437265E+03  0.13924309305E+03  0.00000000000E+00 0.  1.
         12    1    4    4    0    0 -0.49712761889E+02  0.31063413617E+02  0.17367948094E+03  0.18330536397E+03  0.00000000000E+00 0. -1.
         -5    1    5    5    0  502  0.12249253306E+03 -0.23748799386E+02  0.12727973390E+02  0.12550903328E+03  0.47000000000E+01 0.  1.
         11    1    6    6    0    0 -0.18362780213E+02 -0.47207451335E+02  0.45393397523E+02  0.68016878034E+02  0.00000000000E+00 0. -1.
        -12    1    6    6    0    0  0.11462559380E+02  0.23727098051E+02 -0.18605845944E+01  0.26416419600E+02  0.00000000000E+00 0.  1.
</event>
<event>
12    1  0.8406581E-002  0.2053307E+03  0.7818608E-02  0.1146041E+00
         21   -1    0    0  501  502  0.00000000000E+00  0.00000000000E+00  0.12325148460E+04  0.12325148460E+04  0.00000000000E+00 0.  1.
         21   -1    0    0  502  503 -0.00000000000E+00 -0.00000000000E+00 -0.73326570049E+02  0.73326570049E+02  0.00000000000E+00 0. -1.
         -6    2    1    2    0  503 -0.20972445926E+02 -0.10908940532E+03  0.10145654718E+03  0.22902861966E+03  0.17268565609E+03 0.  0.
        -24    2    3    3    0    0  0.55338510855E+02 -0.59508113070E+02  0.47025997113E+02  0.12288512506E+03  0.79282679397E+02 0.  0.
          6    2    1    2  501    0  0.20972445926E+02  0.10908940532E+03  0.10577317288E+04  0.10768127964E+04  0.16849049400E+03 0.  0.
         24    2    5    5    0    0  0.17871143921E+02  0.14411739265E+03  0.82958069586E+03  0.84591983030E+03  0.79290779403E+02 0.  0.
          5    1    5    5  501    0  0.31013020057E+01 -0.35027987330E+02  0.22815103295E+03  0.23089296612E+03  0.47000000000E+01 0. -1.
        -11    1    6    6    0    0  0.23584043729E+02  0.10656248389E+03  0.74809796705E+03  0.75601741937E+03  0.00000000000E+00 0.  1.
         12    1    6    6    0    0 -0.57128998086E+01  0.37554908752E+02  0.81482728816E+02  0.89902410929E+02  0.00000000000E+00 0. -1.
         -5    1    3    3    0  503 -0.76310956781E+02 -0.49581292246E+02  0.54430550066E+02  0.10614349460E+03  0.47000000000E+01 0.  1.
         13    1    4    4    0    0 -0.59806042175E+01 -0.54405744942E+01 -0.17145241036E+02  0.18955916433E+02  0.00000000000E+00 0. -1.
        -14    1    4    4    0    0  0.61319115073E+02 -0.54067538575E+02  0.64171238149E+02  0.10392920863E+03  0.00000000000E+00 0.  1.
</event>
<event>
12    1  0.8406581E-002  0.2135337E+03  0.7818608E-02  0.1138862E+00
         21   -1    0    0  501  502  0.00000000000E+00  0.00000000000E+00  0.45378618026E+02  0.45378618026E+02  0.00000000000E+00 0. -1.
         21   -1    0    0  502  503 -0.00000000000E+00 -0.00000000000E+00 -0.19464205175E+04  0.19464205175E+04  0.00000000000E+00 0. -1.
         -6    2    1    2    0  503  0.79926431349E+02  0.98280362865E+02 -0.16433943335E+04  0.16571666354E+04  0.17149069397E+03 0.  0.
        -24    2    3    3    0    0 -0.11456209052E+02  0.93094755840E+02 -0.90630240249E+03  0.91439864863E+03  0.77090632155E+02 0.  0.
          6    2    1    2  501    0 -0.79926431349E+02 -0.98280362865E+02 -0.25764756598E+03  0.33463250008E+03  0.17189932432E+03 0.  0.
         24    2    5    5    0    0 -0.31522008841E+02 -0.35246415418E+02 -0.38562805331E+02  0.10153061464E+03  0.81150655649E+02 0.  0.
          5    1    5    5  501    0 -0.48404422508E+02 -0.63033947447E+02 -0.21908476065E+03  0.23310188545E+03  0.47000000000E+01 0. -1.
        -13    1    6    6    0    0  0.69053785505E+01 -0.51648029994E+02 -0.22743388753E+02  0.56854771015E+02  0.00000000000E+00 0.  1.
         14    1    6    6    0    0 -0.38427387392E+02  0.16401614576E+02 -0.15819416578E+02  0.44675843622E+02  0.00000000000E+00 0. -1.
         -5    1    3    3    0  503  0.91382640401E+02  0.51856070255E+01 -0.73709193097E+03  0.74276798678E+03  0.47000000000E+01 0.  1.
         13    1    4    4    0    0 -0.26656864508E+02  0.98904194111E+02 -0.69994545953E+03  0.70740107036E+03  0.00000000000E+00 0. -1.
        -14    1    4    4    0    0  0.15200655455E+02 -0.58094382710E+01 -0.20635694297E+03  0.20699757827E+03  0.00000000000E+00 0.  1.
</event>
<event>
12    1  0.8406581E-002  0.2824392E+03  0.7818608E-02  0.1094367E+00
         21   -1    0    0  501  502  0.00000000000E+00  0.00000000000E+00  0.35638982398E+03  0.35638982398E+03  0.00000000000E+00 0. -1.
         21   -1    0    0  502  503 -0.00000000000E+00 -0.00000000000E+00 -0.27529014933E+03  0.27529014933E+03  0.00000000000E+00 0.  1.
         -6    2    1    2    0  503  0.18521351382E+03  0.12672469535E+03  0.17712066057E+03  0.33336482713E+03  0.17145607441E+03 0.  0.
        -24    2    3    3    0    0  0.14658651200E+03  0.61016579216E+02  0.49499247499E+02  0.18464052894E+03  0.80195517246E+02 0.  0.
          6    2    1    2  501    0 -0.18521351382E+03 -0.12672469535E+03 -0.96020985918E+02  0.29831514618E+03  0.17148965740E+03 0.  0.
         24    2    5    5    0    0 -0.73519653462E+02 -0.99313158131E+02 -0.10909330877E+03  0.18247091267E+03  0.78269030460E+02 0.  0.
          5    1    5    5  501    0 -0.11169386036E+03 -0.27411537216E+02  0.13072322854E+02  0.11584423351E+03  0.47000000000E+01 0. -1.
        -11    1    6    6    0    0 -0.15790244648E+02 -0.81492489353E+02 -0.45123793836E+02  0.94480232944E+02  0.00000000000E+00 0.  1.
         12    1    6    6    0    0 -0.57729408814E+02 -0.17820668778E+02 -0.63969514936E+02  0.87990679727E+02  0.00000000000E+00 0. -1.
         -5    1    3    3    0  503  0.38627001819E+02  0.65708116131E+02  0.12762141308E+03  0.14872429818E+03  0.47000000000E+01 0.  1.
         11    1    4    4    0    0  0.33519520772E+02  0.18698417290E+02  0.51092331794E+02  0.63903172457E+02  0.00000000000E+00 0. -1.
        -12    1    4    4    0    0  0.11306699123E+03  0.42318161926E+02 -0.15930842948E+01  0.12073735649E+03  0.00000000000E+00 0.  1.
</event>
<event>
12    1  0.8406581E-002  0.2269135E+03  0.7818608E-02  0.1128892E+00
         21   -1    0    0  501  502  0.00000000000E+00  0.00000000000E+00  0.43551885701E+03  0.43551885701E+03  0.00000000000E+00 0.  1.
         21   -1    0    0  502  503 -0.00000000000E+00 -0.00000000000E+00 -0.23380968159E+03  0.23380968159E+03  0.00000000000E+00 0.  1.
         -6    2    1    2    0  503  0.13290318008E+03 -0.62837094017E+02 -0.13458812878E+03  0.26382511838E+03  0.17285246026E+03 0.  0.
        -24    2    3    3    0    0  0.10614537858E+03 -0.99785119613E+02 -0.14006427405E+03  0.21763838106E+03  0.80774702458E+02 0.  0.
          6    2    1    2  501    0 -0.13290318008E+03  0.62837094017E+02  0.33629730421E+03  0.40550342023E+03  0.17241053142E+03 0.  0.
         24    2    5    5    0    0 -0.94432268837E+02 -0.28551900972E+02  0.20052654534E+03  0.23731379993E+03  0.79839086923E+02 0.  0.
          5    1    5    5  501    0 -0.38470911242E+02  0.91388994989E+02  0.13577075886E+03  0.16818962031E+03  0.47000000000E+01 0. -1.
        -11    1    6    6    0    0 -0.77958409208E+02 -0.16059490035E+02  0.72614816044E+02  0.10774197091E+03  0.00000000000E+00 0.  1.
         12    1    6    6    0    0 -0.16473859630E+02 -0.12492410938E+02  0.12791172930E+03  0.12957182902E+03  0.00000000000E+00 0. -1.
         -5    1    3    3    0  503  0.26757801504E+02  0.36948025596E+02  0.54761452640E+01  0.46186737314E+02  0.47000000000E+01 0.  1.
         13    1    4    4    0    0  0.41310529196E+02 -0.14682959585E+02 -0.32532654837E+01  0.43962857743E+02  0.00000000000E+00 0. -1.
        -14    1    4    4    0    0  0.64834849380E+02 -0.85102160028E+02 -0.13681100856E+03  0.17367552332E+03  0.00000000000E+00 0.  1.
</event>
<event>
12    1  0.8406581E-002  0.3001580E+03  0.7818608E-02  0.1085210E+00
         21   -1    0    0  501  502  0.00000000000E+00  0.00000000000E+00  0.15477372294E+03  0.15477372294E+03  0.00000000000E+00 0.  1.
         21   -1    0    0  502  503 -0.00000000000E+00 -0.00000000000E+00 -0.58943468076E+03  0.58943468076E+03  0.00000000000E+00 0. -1.
         -6    2    1    2    0  503 -0.55374887272E+02  0.23993363938E+03 -0.26074882517E+03  0.39730748936E+03  0.17096421212E+03 0.  0.
        -24    2    3    3    0    0 -0.69450114127E+02  0.62307128349E+02 -0.11654087351E+03  0.16803186319E+03  0.77119616525E+02 0.  0.
          6    2    1    2  501    0  0.55374887272E+02 -0.23993363938E+03 -0.17391213265E+03  0.34690091435E+03  0.17163998673E+03 0.  0.
         24    2    5    5    0    0  0.23139318647E+02 -0.25081160988E+03 -0.16498145320E+03  0.31141416806E+03  0.79485926104E+02 0.  0.
          5    1    5    5  501    0  0.32235568624E+02  0.10877970501E+02 -0.89306794566E+01  0.35486746291E+02  0.47000000000E+01 0. -1.
        -13    1    6    6    0    0 -0.22995065621E+02 -0.26381492595E+02 -0.22238146176E+02  0.41464338169E+02  0.00000000000E+00 0.  1.
         14    1    6    6    0    0  0.46134384268E+02 -0.22443011729E+03 -0.14274330702E+03  0.26994982989E+03  0.00000000000E+00 0. -1.
         -5    1    3    3    0  503  0.14075226855E+02  0.17762651103E+03 -0.14420795166E+03  0.22927562617E+03  0.47000000000E+01 0.  1.
         13    1    4    4    0    0 -0.18087537566E+02  0.12732365655E+02 -0.88689679796E+02  0.91406408160E+02  0.00000000000E+00 0. -1.
        -14    1    4    4    0    0 -0.51362576561E+02  0.49574762694E+02 -0.27851193714E+02  0.76625455029E+02  0.00000000000E+00 0.  1.
</event>
<event>
12    1  0.8406581E-002  0.1876509E+03  0.7818608E-02  0.1160599E+00
         21   -1    0    0  501  502  0.00000000000E+00  0.00000000000E+00  0.46077936767E+03  0.46077936767E+03  0.00000000000E+00 0.  1.
         21   -1    0    0  502  503 -0.00000000000E+00 -0.00000000000E+00 -0.19228625578E+03  0.19228625578E+03  0.00000000000E+00 0.  1.
         -6    2    1    2    0  503  0.10463265025E+02 -0.74080789381E+02 -0.11922788496E+03  0.22232439936E+03  0.17209127441E+03 0.  0.
        -24    2    3    3    0    0  0.84614697219E+01  0.11294693374E+02 -0.16277234110E+02  0.88481555880E+02  0.85818825512E+02 0.  0.
          6    2    1    2  501    0 -0.10463265025E+02  0.74080789381E+02  0.38772099686E+03  0.43074122409E+03  0.17208424522E+03 0.  0.
         24    2    5    5    0    0 -0.46847027300E+02 -0.30232856103E+01  0.11298353319E+03  0.14304071925E+03  0.74105224985E+02 0.  0.
          5    1    5    5  501    0  0.36383762275E+02  0.77104074991E+02  0.27473746367E+03  0.28770050483E+03  0.47000000000E+01 0. -1.
        -13    1    6    6    0    0 -0.36359039745E+02  0.21047293579E+02  0.10857166277E+03  0.11641638328E+03  0.00000000000E+00 0.  1.
         14    1    6    6    0    0 -0.10487987555E+02 -0.24070579189E+02  0.44118704117E+01  0.26624335972E+02  0.00000000000E+00 0. -1.
         -5    1    3    3    0  503  0.20017953028E+01 -0.85375482755E+02 -0.10295065085E+03  0.13384284348E+03  0.47000000000E+01 0.  1.
         13    1    4    4    0    0 -0.37451040572E+02  0.11299842713E+02  0.17474795390E+01  0.39157637441E+02  0.00000000000E+00 0. -1.
        -14    1    4    4    0    0  0.45912510294E+02 -0.51493394569E-02 -0.18024713649E+02  0.49323918438E+02  0.00000000000E+00 0.  1.
</event>
<event>
12    1  0.8406581E-002  0.1989061E+03  0.7818608E-02  0.1150760E+00
         21   -1    0    0  503  502  0.00000000000E+00  0.00000000000E+00  0.15363650839E+03  0.15363650839E+03  0.00000000000E+00 0. -1.
         21   -1    0    0  501  503 -0.00000000000E+00 -0.00000000000E+00 -0.40488710231E+03  0.40488710231E+03  0.00000000000E+00 0. -1.
          6    2    1    2  501    0  0.96517224972E+02 -0.20312575987E+02 -0.29452616221E+03  0.35540017992E+03  0.17272941902E+03 0.  0.
         24    2    3    3    0    0 -0.94976861893E+01 -0.42200960545E+02 -0.14988907006E+03  0.17467873350E+03  0.78579892469E+02 0.  0.
         -6    2    1    2    0  502 -0.96517224972E+02  0.20312575987E+02  0.43275568288E+02  0.20312343078E+03  0.17221549833E+03 0.  0.
        -24    2    5    5    0    0 -0.92970851774E+02 -0.10117947892E+02 -0.27658387977E+02  0.12571342046E+03  0.79327961716E+02 0.  0.
          5    1    3    3  501    0  0.10601491116E+03  0.21888384558E+02 -0.14463709215E+03  0.18072144641E+03  0.47000000000E+01 0. -1.
        -11    1    4    4    0    0 -0.68940566526E+01  0.17156521369E+02 -0.83771111102E+02  0.85787372601E+02  0.00000000000E+00 0.  1.
         12    1    4    4    0    0 -0.26036295367E+01 -0.59357481914E+02 -0.66117958959E+02  0.88891360901E+02  0.00000000000E+00 0. -1.
         -5    1    5    5    0  502 -0.35463731978E+01  0.30430523879E+02  0.70933956265E+02  0.77410010321E+02  0.47000000000E+01 0.  1.
         13    1    6    6    0    0 -0.20352331898E+02  0.19761897206E+02  0.19213856417E+02  0.34262549136E+02  0.00000000000E+00 0. -1.
        -14    1    6    6    0    0 -0.72618519876E+02 -0.29879845098E+02 -0.46872244394E+02  0.91450871328E+02  0.00000000000E+00 0.  1.
</event>
<event>
12    1  0.8406581E-002  0.2294105E+03  0.7818608E-02  0.1129143E+00
         21   -1    0    0  503  502  0.00000000000E+00  0.00000000000E+00  0.10428295392E+03  0.10428295392E+03  0.00000000000E+00 0. -1.
         21   -1    0    0  501  503 -0.00000000000E+00 -0.00000000000E+00 -0.51833914297E+03  0.51833914297E+03  0.00000000000E+00 0.  1.
          6    2    1    2  501    0 -0.30315089516E+02  0.14648439416E+03 -0.29694606393E+03  0.37524146499E+03  0.17393248627E+03 0.  0.
         24    2    3    3    0    0 -0.43442025816E+02  0.17214330423E+02 -0.16912317920E+03  0.19291251585E+03  0.80181333544E+02 0.  0.
         -6    2    1    2    0  502  0.30315089516E+02 -0.14648439416E+03 -0.11711012512E+03  0.24738063191E+03  0.15844782502E+03 0.  0.
        -24    2    5    5    0    0  0.28222921212E+02 -0.29190705310E+02 -0.92814381479E+02  0.12748667972E+03  0.77393239616E+02 0.  0.
          5    1    3    3  501    0  0.13126936300E+02  0.12927006374E+03 -0.12782288473E+03  0.18232894914E+03  0.47000000000E+01 0. -1.
        -11    1    4    4    0    0  0.18994225665E+02  0.26742542025E-01 -0.10783300033E+02  0.21841723452E+02  0.00000000000E+00 0.  1.
         12    1    4    4    0    0 -0.62436251481E+02  0.17187587881E+02 -0.15833987917E+03  0.17107079239E+03  0.00000000000E+00 0. -1.
         -5    1    5    5    0  502  0.20921683045E+01 -0.11729368885E+03 -0.24295743639E+02  0.11989395219E+03  0.47000000000E+01 0.  1.
         13    1    6    6    0    0  0.22636376825E+02  0.63135733090E+01  0.43396966240E+01  0.23897692995E+02  0.00000000000E+00 0. -1.
        -14    1    6    6    0    0  0.55865443865E+01 -0.35504278619E+02 -0.97154078103E+02  0.10358898672E+03  0.00000000000E+00 0.  1.
</event>
<event>
12    1  0.8406581E-002  0.1746751E+03  0.7818608E-02  0.1173883E+00
         21   -1    0    0  501  502  0.00000000000E+00  0.00000000000E+00  0.11912480640E+03  0.11912480640E+03  0.00000000000E+00 0. -1.
         21   -1    0    0  502  503 -0.00000000000E+00 -0.00000000000E+00 -0.30005500617E+03  0.30005500617E+03  0.00000000000E+00 0. -1.
         -6    2    1    2    0  503  0.10615580778E+02  0.30418128544E+02 -0.17415633588E+03  0.24437340987E+03  0.16837452606E+03 0.  0.
        -24    2    3    3    0    0 -0.30493825916E+02  0.43487658983E+02 -0.17531659976E+03  0.20096566682E+03  0.82645261109E+02 0.  0.
          6    2    1    2  501    0 -0.10615580778E+02 -0.30418128544E+02 -0.67738638914E+01  0.17480640271E+03  0.17167830409E+03 0.  0.
         24    2    5    5    0    0  0.35421015995E+02  0.32663325741E+02 -0.17364194363E+02  0.95857791469E+02  0.81028758578E+02 0.  0.
          5    1    5    5  501    0 -0.46036596773E+02 -0.63081454285E+02  0.10590330472E+02  0.78948611240E+02  0.47000000000E+01 0. -1.
        -13    1    6    6    0    0  0.24490530418E+01  0.38468135117E+02 -0.39917652609E+02  0.55490668315E+02  0.00000000000E+00 0.  1.
         14    1    6    6    0    0  0.32971962954E+02 -0.58048093755E+01  0.22553458246E+02  0.40367123154E+02  0.00000000000E+00 0. -1.
         -5    1    3    3    0  503  0.41109406693E+02 -0.13069530439E+02  0.11602638843E+01  0.43407743052E+02  0.47000000000E+01 0.  1.
         11    1    4    4    0    0 -0.37610201463E+02  0.32297016019E+02 -0.36611758156E+02  0.61628283549E+02  0.00000000000E+00 0. -1.
        -12    1    4    4    0    0  0.71163755473E+01  0.11190642964E+02 -0.13870484161E+03  0.13933738327E+03  0.00000000000E+00 0.  1.
</event>
<event>
12    1  0.8406581E-002  0.2116971E+03  0.7818608E-02  0.1140408E+00
         21   -1    0    0  501  502  0.00000000000E+00  0.00000000000E+00  0.20942308285E+03  0.20942308285E+03  0.00000000000E+00 0. -1.
         21   -1    0    0  502  503 -0.00000000000E+00 -0.00000000000E+00 -0.70766124482E+03  0.70766124482E+03  0.00000000000E+00 0. -1.
         -6    2    1    2    0  503 -0.23946861971E+02 -0.12011380680E+03 -0.63229992776E+03  0.66650857232E+03  0.17155086579E+03 0.  0.
        -24    2    3    3    0    0 -0.27492245193E+02 -0.10141994711E+03 -0.63345368000E+03  0.64687565923E+03  0.78375535590E+02 0.  0.
          6    2    1    2  501    0  0.23946861971E+02  0.12011380680E+03  0.13406176580E+03  0.25057575534E+03  0.17266983910E+03 0.  0.
         24    2    5    5    0    0  0.14721697973E+01 -0.97937333414E+01  0.62339982903E+02  0.10041855466E+03  0.78099476027E+02 0.  0.
          5    1    5    5  501    0  0.22474692174E+02  0.12990754014E+03  0.71721782893E+02  0.15015720068E+03  0.47000000000E+01 0. -1.
        -13    1    6    6    0    0 -0.27916910714E+02  0.27232986267E+01  0.62466101663E+02  0.68474696905E+02  0.00000000000E+00 0.  1.
         14    1    6    6    0    0  0.29389080512E+02 -0.12517031968E+02 -0.12611875976E+00  0.31943857759E+02  0.00000000000E+00 0. -1.
         -5    1    3    3    0  503  0.35453832218E+01 -0.18693859688E+02  0.11537522425E+01  0.19632913092E+02  0.47000000000E+01 0.  1.
         13    1    4    4    0    0 -0.23168802770E+02 -0.26581967895E+01 -0.50826054966E+02  0.55920902133E+02  0.00000000000E+00 0. -1.
        -14    1    4    4    0    0 -0.43234424230E+01 -0.98761750324E+02 -0.58262762504E+03  0.59095475710E+03  0.00000000000E+00 0.  1.
</event>
<event>
12    1  0.8406581E-002  0.1858171E+03  0.7818608E-02  0.1162370E+00
         21   -1    0    0  503  502  0.00000000000E+00  0.00000000000E+00  0.22602840836E+03  0.22602840836E+03  0.00000000000E+00 0.  1.
         21   -1    0    0  501  503 -0.00000000000E+00 -0.00000000000E+00 -0.17078564770E+03  0.17078564770E+03  0.00000000000E+00 0.  1.
          6    2    1    2  501    0  0.52943169210E+02  0.46009106160E+02 -0.37323986917E+02  0.18952856860E+03  0.17207028012E+03 0.  0.
         24    2    3    3    0    0 -0.17930731611E+02  0.71147924310E+02 -0.28797340551E+02  0.11370071294E+03  0.81945268508E+02 0.  0.
         -6    2    1    2    0  502 -0.52943169210E+02 -0.46009106160E+02  0.92566747570E+02  0.20728548746E+03  0.17169406961E+03 0.  0.
        -24    2    5    5    0    0 -0.28662634012E+01  0.82066033779E+00 -0.14110928627E+02  0.80388126873E+02  0.79083776378E+02 0.  0.
          5    1    3    3  501    0  0.70873900821E+02 -0.25138818150E+02 -0.85266463665E+01  0.75827855658E+02  0.47000000000E+01 0. -1.
        -13    1    4    4    0    0  0.13284944898E+02  0.67090574475E+02  0.36535435463E+01  0.68490753571E+02  0.00000000000E+00 0.  1.
         14    1    4    4    0    0 -0.31215676509E+02  0.40573498351E+01 -0.32450884097E+02  0.45209959370E+02  0.00000000000E+00 0. -1.
         -5    1    5    5    0  502 -0.50076905809E+02 -0.46829766498E+02  0.10667767620E+03  0.12689736059E+03  0.47000000000E+01 0.  1.
         13    1    6    6    0    0 -0.15719680672E+02 -0.36457200765E+02 -0.65627493205E+01  0.40240595507E+02  0.00000000000E+00 0. -1.
        -14    1    6    6    0    0  0.12853417271E+02  0.37277861103E+02 -0.75481793065E+01  0.40147531366E+02  0.00000000000E+00 0.  1.
</event>
<event>
12    1  0.8406581E-002  0.1843758E+03  0.7818608E-02  0.1163961E+00
         21   -1    0    0  503  502  0.00000000000E+00  0.00000000000E+00  0.43118732088E+03  0.43118732088E+03  0.00000000000E+00 0.  1.
         21   -1    0    0  501  503 -0.00000000000E+00 -0.00000000000E+00 -0.12619009315E+03  0.12619009315E+03  0.00000000000E+00 0.  1.
          6    2    1    2  501    0  0.46227989912E+02 -0.45713547606E+02 -0.18922094783E+02  0.18534418700E+03  0.17253308813E+03 0.  0.
         24    2    3    3    0    0 -0.31128680940E+02  0.31274095194E+01 -0.35955352416E+02  0.92168463322E+02  0.78888926957E+02 0.  0.
         -6    2    1    2    0  502 -0.46227989912E+02  0.45713547606E+02  0.32391932252E+03  0.37203322703E+03  0.17105039909E+03 0.  0.
        -24    2    5    5    0    0 -0.39545109455E+02  0.88303362201E+02  0.29432215401E+03  0.31952955495E+03  0.78181242548E+02 0.  0.
          5    1    3    3  501    0  0.77356670851E+02 -0.48840957125E+02  0.17033257633E+02  0.93175723682E+02  0.47000000000E+01 0. -1.
        -11    1    4    4    0    0 -0.45067208731E+02 -0.81494570972E+01 -0.51157020571E+02  0.68662272810E+02  0.00000000000E+00 0.  1.
         12    1    4    4    0    0  0.13938527791E+02  0.11276866617E+02  0.15201668155E+02  0.23506190512E+02  0.00000000000E+00 0. -1.
         -5    1    5    5    0  502 -0.66828804564E+01 -0.42589814596E+02  0.29597168501E+02  0.52503672079E+02  0.47000000000E+01 0.  1.
         11    1    6    6    0    0 -0.83408110405E+01 -0.99068922292E+01  0.87544193440E+02  0.88496900779E+02  0.00000000000E+00 0. -1.
        -12    1    6    6    0    0 -0.31204298415E+02  0.98210254431E+02  0.20677796057E+03  0.23103265417E+03  0.00000000000E+00 0.  1.
</event>
<event>
12    1  0.8406581E-002  0.1871441E+03  0.7818608E-02  0.1161130E+00
         21   -1    0    0  503  502  0.00000000000E+00  0.00000000000E+00  0.21688929513E+04  0.21688929513E+04  0.00000000000E+00 0.  1.
         21   -1    0    0  501  503 -0.00000000000E+00 -0.00000000000E+00 -0.18219301333E+02  0.18219301333E+02  0.00000000000E+00 0.  1.
          6    2    1    2  501    0 -0.73584424364E+02 -0.69782118829E+01  0.70509986174E+03  0.72951265892E+03  0.17192888516E+03 0.  0.
         24    2    3    3    0    0 -0.10891385933E+03  0.15639063417E+02  0.62016431301E+03  0.63466621695E+03  0.78042441958E+02 0.  0.
         -6    2    1    2    0  502  0.73584424364E+02  0.69782118829E+01  0.14455737882E+04  0.14575995937E+04  0.17160896081E+03 0.  0.
        -24    2    5    5    0    0  0.61568084276E+02 -0.61211303360E+02  0.94258980586E+03  0.94985046379E+03  0.78758547416E+02 0.  0.
          5    1    3    3  501    0  0.35329434963E+02 -0.22617275300E+02  0.84935548725E+02  0.94846441968E+02  0.47000000000E+01 0. -1.
        -11    1    4    4    0    0 -0.90282009607E+02 -0.18267036172E+02  0.50043138521E+03  0.50883798716E+03  0.00000000000E+00 0.  1.
         12    1    4    4    0    0 -0.18631849720E+02  0.33906099589E+02  0.11973292780E+03  0.12582822979E+03  0.00000000000E+00 0. -1.
         -5    1    5    5    0  502  0.12016340088E+02  0.68189515243E+02  0.50298398233E+03  0.50774912989E+03  0.47000000000E+01 0.  1.
         11    1    6    6    0    0 -0.15429326034E+02 -0.19197780017E+02  0.34245159895E+03  0.34333615668E+03  0.00000000000E+00 0. -1.
        -12    1    6    6    0    0  0.76997410310E+02 -0.42013523343E+02  0.60013820691E+03  0.60651430712E+03  0.00000000000E+00 0.  1.
</event>
<event>
12    1  0.8406581E-002  0.2146601E+03  0.7818608E-02  0.1138000E+00
         21   -1    0    0  503  502  0.00000000000E+00  0.00000000000E+00  0.98455224091E+03  0.98455224091E+03  0.00000000000E+00 0. -1.
         21   -1    0    0  501  503 -0.00000000000E+00 -0.00000000000E+00 -0.10694797552E+03  0.10694797552E+03  0.00000000000E+00 0. -1.
          6    2    1    2  501    0  0.11181440364E+03 -0.62395943911E+02  0.29089361823E+02  0.21625367471E+03  0.17182475427E+03 0.  0.
         24    2    3    3    0    0  0.51342177301E+02 -0.10140323428E+03 -0.12838247286E-01  0.13848808522E+03  0.79122149185E+02 0.  0.
         -6    2    1    2    0  502 -0.11181440364E+03  0.62395943911E+02  0.84851490356E+03  0.87524654171E+03  0.17228828321E+03 0.  0.
        -24    2    5    5    0    0 -0.10120051719E+03  0.69371020051E+02  0.84848618394E+03  0.86170412326E+03  0.86898265820E+02 0.  0.
          5    1    3    3  501    0  0.60472226336E+02  0.39007290368E+02  0.29102200070E+02  0.77765589491E+02  0.47000000000E+01 0. -1.
        -11    1    4    4    0    0 -0.10241084024E+02 -0.15579934191E+02  0.23772039504E+02  0.30211322605E+02  0.00000000000E+00 0.  1.
         12    1    4    4    0    0  0.61583261325E+02 -0.85823300088E+02 -0.23784877751E+02  0.10827676262E+03  0.00000000000E+00 0. -1.
         -5    1    5    5    0  502 -0.10613886450E+02 -0.69750761400E+01  0.28719624132E-01  0.13542418453E+02  0.47000000000E+01 0.  1.
         11    1    6    6    0    0 -0.27809348437E+02  0.70812663678E+02  0.47794533039E+03  0.48396232502E+03  0.00000000000E+00 0. -1.
        -12    1    6    6    0    0 -0.73391168750E+02 -0.14416436273E+01  0.37054085355E+03  0.37774179824E+03  0.00000000000E+00 0.  1.
</event>
<event>
12    1  0.8406581E-002  0.1780905E+03  0.7818608E-02  0.1169755E+00
         21   -1    0    0  501  502  0.00000000000E+00  0.00000000000E+00  0.40275288914E+02  0.40275288914E+02  0.00000000000E+00 0.  1.
         21   -1    0    0  502  503 -0.00000000000E+00 -0.00000000000E+00 -0.26827241548E+04  0.26827241548E+04  0.00000000000E+00 0. -1.
         -6    2    1    2    0  503  0.45814829978E+02 -0.59121231102E+01 -0.24656725237E+04  0.24720689621E+04  0.17161004362E+03 0.  0.
        -24    2    3    3    0    0  0.51407131852E+02  0.58409058763E+02 -0.15962256967E+04  0.16002155551E+04  0.81847641897E+02 0.  0.
          6    2    1    2  501    0 -0.45814829978E+02  0.59121231102E+01 -0.17677634216E+03  0.25093048165E+03  0.17199499885E+03 0.  0.
         24    2    5    5    0    0 -0.41623459332E+02 -0.62946323473E+02 -0.73886819082E+02  0.12696517517E+03  0.70470856852E+02 0.  0.
          5    1    5    5  501    0 -0.41913706462E+01  0.68858446583E+02 -0.10288952307E+03  0.12396530648E+03  0.47000000000E+01 0. -1.
        -13    1    6    6    0    0 -0.44194572491E+02 -0.68051852727E+02 -0.83085285584E+02  0.11613517804E+03  0.00000000000E+00 0.  1.
         14    1    6    6    0    0  0.25711131591E+01  0.51055292542E+01  0.91984665012E+01  0.10829997129E+02  0.00000000000E+00 0. -1.
         -5    1    3    3    0  503 -0.55923018741E+01 -0.64321181873E+02 -0.86944682700E+03  0.87185340698E+03  0.47000000000E+01 0.  1.
         13    1    4    4    0    0  0.64767598861E+02  0.14430727455E+02 -0.10232688330E+04  0.10254180574E+04  0.00000000000E+00 0. -1.
        -14    1    4    4    0    0 -0.13360467008E+02  0.43978331308E+02 -0.57295686372E+03  0.57479749772E+03  0.00000000000E+00 0.  1.
</event>
<event>
12    1  0.8406581E-002  0.1724495E+03  0.7818608E-02  0.1176858E+00
         21   -1    0    0  501  502  0.00000000000E+00  0.00000000000E+00  0.85864785950E+02  0.85864785950E+02  0.00000000000E+00 0. -1.
         21   -1    0    0  502  503 -0.00000000000E+00 -0.00000000000E+00 -0.35809323945E+03  0.35809323945E+03  0.00000000000E+00 0. -1.
         -6    2    1    2    0  503  0.10116232893E+02 -0.39416982480E+01 -0.19520867579E+03  0.26047120207E+03  0.17210736430E+03 0.  0.
        -24    2    3    3    0    0  0.59796114779E+02  0.17035935759E+02 -0.17625673188E+03  0.20311775430E+03  0.79527279140E+02 0.  0.
          6    2    1    2  501    0 -0.10116232893E+02  0.39416982480E+01 -0.77019777703E+02  0.18348682333E+03  0.16618511674E+03 0.  0.
         24    2    5    5    0    0  0.33031047104E+02  0.39327278760E+02 -0.83483866810E+02  0.12711571790E+03  0.80939266074E+02 0.  0.
          5    1    5    5  501    0 -0.43147279997E+02 -0.35385580512E+02  0.64640891072E+01  0.56371105429E+02  0.47000000000E+01 0. -1.
        -11    1    6    6    0    0  0.20828746620E+02  0.58377730749E-01 -0.83434006800E+02  0.85994613695E+02  0.00000000000E+00 0.  1.
         12    1    6    6    0    0  0.12202300484E+02  0.39268901029E+02 -0.49860009303E-01  0.41121104206E+02  0.00000000000E+00 0. -1.
         -5    1    3    3    0  503 -0.49679881886E+02 -0.20977634007E+02 -0.18951943909E+02  0.57353447766E+02  0.47000000000E+01 0.  1.
         11    1    4    4    0    0  0.39783891555E+02 -0.21160952283E+02 -0.40185915773E+02  0.60377576594E+02  0.00000000000E+00 0. -1.
        -12    1    4    4    0    0  0.20012223224E+02  0.38196888042E+02 -0.13607081611E+03  0.14274017771E+03  0.00000000000E+00 0.  1.
</event>
<event>
12    1  0.8406581E-002  0.2918204E+03  0.7818608E-02  0.1089418E+00
         21   -1    0    0  503  502  0.00000000000E+00  0.00000000000E+00  0.12470430838E+03  0.12470430838E+03  0.00000000000E+00 0. -1.
         21   -1    0    0  501  503 -0.00000000000E+00 -0.00000000000E+00 -0.74851585178E+03  0.74851585178E+03  0.00000000000E+00 0.  1.
          6    2    1    2  501    0 -0.23446429438E+03  0.20181683502E+02 -0.18228575199E+03  0.34397149857E+03  0.17235861093E+03 0.  0.
         24    2    3    3    0    0 -0.37423009710E+02 -0.81017596310E+01 -0.88586776806E+02  0.12391057753E+03  0.77718041880E+02 0.  0.
         -6    2    1    2    0  502  0.23446429438E+03 -0.20181683502E+02 -0.44152579141E+03  0.52924866158E+03  0.17256394646E+03 0.  0.
        -24    2    5    5    0    0  0.21603566689E+03 -0.25674394688E+02 -0.45086411717E+03  0.50736079929E+03  0.82498149053E+02 0.  0.
          5    1    3    3  501    0 -0.19704128467E+03  0.28283443132E+02 -0.93698975188E+02  0.22006092104E+03  0.47000000000E+01 0. -1.
        -13    1    4    4    0    0 -0.25506581142E+02  0.11510379234E+02 -0.95841000241E+02  0.99842735533E+02  0.00000000000E+00 0.  1.
         14    1    4    4    0    0 -0.11916428568E+02 -0.19612138865E+02  0.72542234344E+01  0.24067841995E+02  0.00000000000E+00 0. -1.
         -5    1    5    5    0  502  0.18428627493E+02  0.54927111867E+01  0.93383257631E+01  0.21887862288E+02  0.47000000000E+01 0.  1.
         13    1    6    6    0    0  0.45649022005E+02  0.73288456593E+01 -0.39226123654E+02  0.60631954988E+02  0.00000000000E+00 0. -1.
        -14    1    6    6    0    0  0.17038664488E+03 -0.33003240348E+02 -0.41163799352E+03  0.44672884431E+03  0.00000000000E+00 0.  1.
</event>
<event>
12    1  0.8406581E-002  0.2006098E+03  0.7818608E-02  0.1149993E+00
         21   -1    0    0  501  502  0.00000000000E+00  0.00000000000E+00  0.14322379285E+04  0.14322379285E+04  0.00000000000E+00 0. -1.
         21   -1    0    0  502  503 -0.00000000000E+00 -0.00000000000E+00 -0.31684158404E+02  0.31684158404E+02  0.00000000000E+00 0.  1.
         -6    2    1    2    0  503  0.34120124079E+02 -0.91967709292E+02  0.43175813989E+03  0.47457418530E+03  0.17083127225E+03 0.  0.
        -24    2    3    3    0    0  0.38251223776E+02  0.15575056445E+02  0.19811724926E+03  0.21729482698E+03  0.79125589244E+02 0.  0.
          6    2    1    2  501    0 -0.34120124079E+02  0.91967709292E+02  0.96879563023E+03  0.98934790162E+03  0.17499158515E+03 0.  0.
         24    2    5    5    0    0 -0.11170146340E+02  0.54589368482E+02  0.91365935967E+03  0.91873671149E+03  0.78733399629E+02 0.  0.
          5    1    5    5  501    0 -0.22949977738E+02  0.37378340811E+02  0.55136270561E+02  0.70611190128E+02  0.47000000000E+01 0. -1.
        -13    1    6    6    0    0  0.29963561476E+02  0.70642402562E+01  0.20544730785E+03  0.20774098010E+03  0.00000000000E+00 0.  1.
         14    1    6    6    0    0 -0.41133707816E+02  0.47525128225E+02  0.70821205181E+03  0.71099573140E+03  0.00000000000E+00 0. -1.
         -5    1    3    3    0  503 -0.41310996977E+01 -0.10754276574E+03  0.23364089062E+03  0.25727935832E+03  0.47000000000E+01 0.  1.
         13    1    4    4    0    0 -0.13067820382E+02  0.23696749202E+02  0.26080263266E+02  0.37583027876E+02  0.00000000000E+00 0. -1.
        -14    1    4    4    0    0  0.51319044158E+02 -0.81216927565E+01  0.17203698600E+03  0.17971179911E+03  0.00000000000E+00 0.  1.
</event>
<event>
12    1  0.8406581E-002  0.2225210E+03  0.7818608E-02  0.1132189E+00
         21   -1    0    0  503  502  0.00000000000E+00  0.00000000000E+00  0.60005354648E+03  0.60005354648E+03  0.00000000000E+00 0.  1.
         21   -1    0    0  501  503 -0.00000000000E+00 -0.00000000000E+00 -0.82178080693E+02  0.82178080693E+02  0.00000000000E+00 0. -1.
          6    2    1    2  501    0  0.13143683976E+03 -0.50408068602E+02  0.26104544305E+03  0.34241220460E+03  0.17112795882E+03 0.  0.
         24    2    3    3    0    0  0.14261541695E+03  0.67556636688E+01  0.16466491613E+03  0.22970040910E+03  0.72546172829E+02 0.  0.
         -6    2    1    2    0  502 -0.13143683976E+03  0.50408068602E+02  0.25683002273E+03  0.33981942257E+03  0.17233387118E+03 0.  0.
        -24    2    5    5    0    0 -0.57132799248E+02 -0.35040575411E+02  0.15949070760E+03  0.19042198795E+03  0.79569146096E+02 0.  0.
          5    1    3    3  501    0 -0.11178577185E+02 -0.57163732270E+02  0.96380526921E+02  0.11271179550E+03  0.47000000000E+01 0. -1.
        -13    1    4    4    0    0  0.99697176578E+02 -0.29266333729E+02  0.10125556415E+03  0.14508182029E+03  0.00000000000E+00 0.  1.
         14    1    4    4    0    0  0.42918240371E+02  0.36021997397E+02  0.63409351981E+02  0.84618588807E+02  0.00000000000E+00 0. -1.
         -5    1    5    5    0  502 -0.74304040516E+02  0.85448644013E+02  0.97339315132E+02  0.14939743462E+03  0.47000000000E+01 0.  1.
         13    1    6    6    0    0 -0.31955640565E+02  0.58408513451E+01  0.10896795753E+02  0.34263955785E+02  0.00000000000E+00 0. -1.
        -14    1    6    6    0    0 -0.25177158683E+02 -0.40881426756E+02  0.14859391184E+03  0.15615803217E+03  0.00000000000E+00 0.  1.
</event>
<event>
12    1  0.8406581E-002  0.1885695E+03  0.7818608E-02  0.1159856E+00
         21   -1    0    0  501  502  0.00000000000E+00  0.00000000000E+00  0.27161636386E+03  0.27161636386E+03  0.00000000000E+00 0.  1.
         21   -1    0    0  502  503 -0.00000000000E+00 -0.00000000000E+00 -0.18160970194E+03  0.18160970194E+03  0.00000000000E+00 0. -1.
         -6    2    1    2    0  503  0.36258767940E+02 -0.67616729850E+02 -0.75115258510E+02  0.20257946908E+03  0.17178305744E+03 0.  0.
        -24    2    3    3    0    0  0.84579355106E+02 -0.29591034253E+02 -0.24643508680E+02  0.12289057273E+03  0.80408293902E+02 0.  0.
          6    2    1    2  501    0 -0.36258767940E+02  0.67616729850E+02  0.16512192043E+03  0.25064659672E+03  0.17225489089E+03 0.  0.
         24    2    5    5    0    0  0.12983682776E+02 -0.19857391922E+02  0.45478697610E+02  0.94399575316E+02  0.79246929601E+02 0.  0.
          5    1    5    5  501    0 -0.49242450716E+02  0.87474121772E+02  0.11964322282E+03  0.15624702141E+03  0.47000000000E+01 0. -1.
        -13    1    6    6    0    0 -0.35043204958E+01 -0.11622009361E+02  0.65831969796E+02  0.66941762831E+02  0.00000000000E+00 0.  1.
         14    1    6    6    0    0  0.16488003271E+02 -0.82353825604E+01 -0.20353272186E+02  0.27457812485E+02  0.00000000000E+00 0. -1.
         -5    1    3    3    0  503 -0.48320587166E+02 -0.38025695597E+02 -0.50471749830E+02  0.79688896345E+02  0.47000000000E+01 0.  1.
         11    1    4    4    0    0  0.59971967106E+02  0.33835864378E+01  0.18912331657E+02  0.62974294633E+02  0.00000000000E+00 0. -1.
        -12    1    4    4    0    0  0.24607388000E+02 -0.32974620691E+02 -0.43555840338E+02  0.59916278100E+02  0.00000000000E+00 0.  1.
</event>
<event>
12    1  0.8406581E-002  0.5280002E+03  0.7818608E-02  0.1006834E+00
         21   -1    0    0  501  502  0.00000000000E+00  0.00000000000E+00  0.61027792875E+03  0.61027792875E+03  0.00000000000E+00 0. -1.
         21   -1    0    0  502  503 -0.00000000000E+00 -0.00000000000E+00 -0.46347082530E+03  0.46347082530E+03  0.00000000000E+00 0.  1.
         -6    2    1    2    0  503 -0.49444195020E+03 -0.62299225947E+02  0.14648854565E+01  0.52610962315E+03  0.16862726353E+03 0.  0.
        -24    2    3    3    0    0 -0.25317470591E+03  0.10193037845E+02 -0.42859414963E+02  0.27027423645E+03  0.83725167691E+02 0.  0.
          6    2    1    2  501    0  0.49444195020E+03  0.62299225947E+02  0.14534221800E+03  0.54763913090E+03  0.17444260284E+03 0.  0.
         24    2    5    5    0    0  0.35486304369E+03  0.57139795453E+02  0.33445973420E+02  0.36860910432E+03  0.74574141953E+02 0.  0.
          5    1    5    5  501    0  0.13957890652E+03  0.51594304945E+01  0.11189624458E+03  0.17903002659E+03  0.47000000000E+01 0. -1.
        -13    1    6    6    0    0  0.26033065371E+03  0.16344765406E+02  0.46064509366E+02  0.26487948135E+03  0.00000000000E+00 0.  1.
         14    1    6    6    0    0  0.94532389973E+02  0.40795030047E+02 -0.12618535946E+02  0.10372962296E+03  0.00000000000E+00 0. -1.
         -5    1    3    3    0  503 -0.24126724429E+03 -0.72492263792E+02  0.44324300419E+02  0.25583538669E+03  0.47000000000E+01 0.  1.
         11    1    4    4    0    0 -0.60109706883E+02 -0.28989569431E+02  0.68866844641E+01  0.67089480697E+02  0.00000000000E+00 0. -1.
        -12    1    4    4    0    0 -0.19306499903E+03  0.39182607276E+02 -0.49746099427E+02  0.20318475576E+03  0.00000000000E+00 0.  1.
</event>
<event>
12    1  0.8406581E-002  0.1937620E+03  0.7818608E-02  0.1155280E+00
         21   -1    0    0  503  502  0.00000000000E+00  0.00000000000E+00  0.34175866006E+03  0.34175866006E+03  0.00000000000E+00 0. -1.
         21   -1    0    0  501  503 -0.00000000000E+00 -0.00000000000E+00 -0.11662854593E+03  0.11662854593E+03  0.00000000000E+00 0. -1.
          6    2    1    2  501    0  0.33316206860E+02 -0.81031458731E+02  0.55795724019E+02  0.20163547507E+03  0.17282255363E+03 0.  0.
         24    2    3    3    0    0  0.84577022804E+02 -0.36548057373E+02  0.17768392546E+02  0.12369567659E+03  0.80596968612E+02 0.  0.
         -6    2    1    2    0  502 -0.33316206860E+02  0.81031458731E+02  0.16933439011E+03  0.25675173092E+03  0.17196292830E+03 0.  0.
        -24    2    5    5    0    0 -0.80873337412E+02  0.87783288955E+02  0.11401586021E+03  0.18333853300E+03  0.79793475800E+02 0.  0.
          5    1    3    3  501    0 -0.51260815943E+02 -0.44483401358E+02  0.38027331473E+02  0.77939798476E+02  0.47000000000E+01 0. -1.
        -11    1    4    4    0    0  0.43129005060E+01  0.20914835252E+02 -0.59591266518E+01  0.22170760809E+02  0.00000000000E+00 0.  1.
         12    1    4    4    0    0  0.80264122298E+02 -0.57462892625E+02  0.23727519198E+02  0.10152491578E+03  0.00000000000E+00 0. -1.
         -5    1    5    5    0  502  0.47557130552E+02 -0.67518302237E+01  0.55318529898E+02  0.73413197913E+02  0.47000000000E+01 0.  1.
         11    1    6    6    0    0 -0.74058514848E+02  0.72931486207E+02  0.46490429033E+02  0.11386406498E+03  0.00000000000E+00 0. -1.
        -12    1    6    6    0    0 -0.68148225646E+01  0.14851802748E+02  0.67525431179E+02  0.69474468025E+02  0.00000000000E+00 0.  1.
</event>
<event>
12    1  0.8406581E-002  0.1733797E+03  0.7818608E-02  0.1174658E+00
         21   -1    0    0  501  502  0.00000000000E+00  0.00000000000E+00  0.15644200503E+03  0.15644200503E+03  0.00000000000E+00 0. -1.
         21   -1    0    0  502  503 -0.00000000000E+00 -0.00000000000E+00 -0.21809423023E+03  0.21809423023E+03  0.00000000000E+00 0. -1.
         -6    2    1    2    0  503 -0.23963089908E+02  0.18428078739E+01 -0.97047491192E+02  0.19869258637E+03  0.17170586104E+03 0.  0.
        -24    2    3    3    0    0 -0.55437579233E+02  0.37468244838E+02 -0.73215457625E+02  0.14530840275E+03  0.10619243905E+03 0.  0.
          6    2    1    2  501    0  0.23963089908E+02 -0.18428078739E+01  0.35395265993E+02  0.17584364889E+03  0.17055948634E+03 0.  0.
         24    2    5    5    0    0  0.53269553903E+02  0.13486685046E+01  0.76660701141E+02  0.12491251410E+03  0.82986798945E+02 0.  0.
          5    1    5    5  501    0 -0.29306463995E+02 -0.31914763785E+01 -0.41265435149E+02  0.50931134794E+02  0.47000000000E+01 0. -1.
        -11    1    6    6    0    0  0.62451688861E+02  0.25395507859E+02  0.35051686914E+02  0.75985301319E+02  0.00000000000E+00 0.  1.
         12    1    6    6    0    0 -0.91821349585E+01 -0.24046839354E+02  0.41609014227E+02  0.48927212779E+02  0.00000000000E+00 0. -1.
         -5    1    3    3    0  503  0.31474489326E+02 -0.35625436964E+02 -0.23832033567E+02  0.53384183624E+02  0.47000000000E+01 0.  1.
         11    1    4    4    0    0 -0.18865596035E+02  0.61477271828E+02 -0.78235490232E+02  0.10127268930E+03  0.00000000000E+00 0. -1.
        -12    1    4    4    0    0 -0.36571983198E+02 -0.24009026990E+02  0.50200326076E+01  0.44035713454E+02  0.00000000000E+00 0.  1.
</event>
<event>
12    1  0.8406581E-002  0.1820353E+03  0.7818608E-02  0.1166102E+00
         21   -1    0    0  501  502  0.00000000000E+00  0.00000000000E+00  0.25213836594E+03  0.25213836594E+03  0.00000000000E+00 0.  1.
         21   -1    0    0  502  503 -0.00000000000E+00 -0.00000000000E+00 -0.15992405726E+03  0.15992405726E+03  0.00000000000E+00 0. -1.
         -6    2    1    2    0  503 -0.39784657808E+02 -0.40512419595E+02 -0.42139254003E+02  0.18581538303E+03  0.17183586559E+03 0.  0.
        -24    2    3    3    0    0  0.81796936734E+01  0.10588731927E+02 -0.69463911357E+02  0.11044540492E+03  0.84817002160E+02 0.  0.
          6    2    1    2  501    0  0.39784657808E+02  0.40512419595E+02  0.13435356268E+03  0.22624704017E+03  0.17295308105E+03 0.  0.
         24    2    5    5    0    0 -0.33080945061E+02  0.58828642651E+02  0.36404414535E+02  0.10271159696E+03  0.68331783450E+02 0.  0.
          5    1    5    5  501    0  0.72865602869E+02 -0.18316223056E+02  0.97949148143E+02  0.12353544322E+03  0.47000000000E+01 0. -1.
        -13    1    6    6    0    0 -0.14626777093E+02  0.57176968558E+02  0.51873582939E+02  0.78574912972E+02  0.00000000000E+00 0.  1.
         14    1    6    6    0    0 -0.18454167968E+02  0.16516740932E+01 -0.15469168404E+02  0.24136683985E+02  0.00000000000E+00 0. -1.
         -5    1    3    3    0  503 -0.47964351481E+02 -0.51101151522E+02  0.27324657354E+02  0.75369978104E+02  0.47000000000E+01 0.  1.
         13    1    4    4    0    0  0.41477903088E+02  0.22931949308E+02 -0.25140112760E+02  0.53649939545E+02  0.00000000000E+00 0. -1.
        -14    1    4    4    0    0 -0.33298209414E+02 -0.12343217381E+02 -0.44323798597E+02  0.56795465379E+02  0.00000000000E+00 0.  1.
</event>
<event>
12    1  0.8406581E-002  0.2393736E+03  0.7818608E-02  0.1120442E+00
         21   -1    0    0  501  502  0.00000000000E+00  0.00000000000E+00  0.32722274695E+03  0.32722274695E+03  0.00000000000E+00 0. -1.
         21   -1    0    0  502  503 -0.00000000000E+00 -0.00000000000E+00 -0.17583622438E+03  0.17583622438E+03  0.00000000000E+00 0. -1.
         -6    2    1    2    0  503 -0.16113083433E+02 -0.16534034383E+03  0.50488159168E+02  0.24328946274E+03  0.17042196956E+03 0.  0.
        -24    2    3    3    0    0  0.18101429845E+01 -0.95447537808E+02 -0.37127955701E+02  0.12968963896E+03  0.79545007811E+02 0.  0.
          6    2    1    2  501    0  0.16113083433E+02  0.16534034383E+03  0.10089836341E+03  0.25976950859E+03  0.17234458825E+03 0.  0.
         24    2    5    5    0    0 -0.80024771921E+01  0.10050942127E+03  0.13153647390E+03  0.18397114054E+03  0.79858331944E+02 0.  0.
          5    1    5    5  501    0  0.24115560625E+02  0.64830922568E+02 -0.30638110488E+02  0.75798368053E+02  0.47000000000E+01 0. -1.
        -13    1    6    6    0    0 -0.22772210975E+02  0.10099454037E+03  0.81388560018E+02  0.13169118603E+03  0.00000000000E+00 0.  1.
         14    1    6    6    0    0  0.14769733783E+02 -0.48511910272E+00  0.50147913878E+02  0.52279954503E+02  0.00000000000E+00 0. -1.
         -5    1    3    3    0  503 -0.17923226418E+02 -0.69892806025E+02  0.87616114869E+02  0.11359982378E+03  0.47000000000E+01 0.  1.
         11    1    4    4    0    0  0.34251455391E+02 -0.46655997842E+02  0.41345746154E+01  0.58026192692E+02  0.00000000000E+00 0. -1.
        -12    1    4    4    0    0 -0.32441312406E+02 -0.48791539966E+02 -0.41262530316E+02  0.71663446267E+02  0.00000000000E+00 0.  1.
</event>
<event>
12    1  0.8406581E-002  0.2682577E+03  0.7818608E-02  0.1102456E+00
         21   -1    0    0  503  502  0.00000000000E+00  0.00000000000E+00  0.16456505386E+03  0.16456505386E+03  0.00000000000E+00 0.  1.
         21   -1    0    0  501  503 -0.00000000000E+00 -0.00000000000E+00 -0.43539949155E+03  0.43539949155E+03  0.00000000000E+00 0.  1.
          6    2    1    2  501    0  0.16100797335E+03 -0.12816705326E+03 -0.13931796518E+03  0.30120243776E+03  0.17018534623E+03 0.  0.
         24    2    3    3    0    0  0.16094079235E+03 -0.98951264488E+02 -0.16441289792E+03  0.26240279245E+03  0.78296443695E+02 0.  0.
         -6    2    1    2    0  502 -0.16100797335E+03  0.12816705326E+03 -0.13151647251E+03  0.29876210764E+03  0.17208095013E+03 0.  0.
        -24    2    5    5    0    0 -0.16065869649E+03  0.55150402424E+02 -0.12495676337E+03  0.22530005568E+03  0.79329305645E+02 0.  0.
          5    1    3    3  501    0  0.67180993113E-01 -0.29215788774E+02  0.25094932744E+02  0.38799645313E+02  0.47000000000E+01 0. -1.
        -11    1    4    4    0    0  0.67201432742E+02 -0.83102571887E+02 -0.66214105055E+02  0.12572341757E+03  0.00000000000E+00 0.  1.
         12    1    4    4    0    0  0.93739359611E+02 -0.15848692601E+02 -0.98198792866E+02  0.13667937488E+03  0.00000000000E+00 0. -1.
         -5    1    5    5    0  502 -0.34927685834E+00  0.73016650837E+02 -0.65597091463E+01  0.73462051958E+02  0.47000000000E+01 0.  1.
         13    1    6    6    0    0 -0.13607794997E+03  0.73314383110E+02 -0.89990484775E+02  0.17885886779E+03  0.00000000000E+00 0. -1.
        -14    1    6    6    0    0 -0.24580746521E+02 -0.18163980686E+02 -0.34966278593E+02  0.46441187889E+02  0.00000000000E+00 0.  1.
</event>
<event>
12    1  0.8406581E-002  0.1741370E+03  0.7818608E-02  0.1173710E+00
         21   -1    0    0  503  502  0.00000000000E+00  0.00000000000E+00  0.13893293035E+03  0.13893293035E+03  0.00000000000E+00 0. -1.
         21   -1    0    0  501  503 -0.00000000000E+00 -0.00000000000E+00 -0.21774331061E+03  0.21774331061E+03  0.00000000000E+00 0. -1.
          6    2    1    2  501    0  0.92562560859E+01  0.23585142812E+02 -0.41233246629E+02  0.17895211596E+03  0.17228389925E+03 0.  0.
         24    2    3    3    0    0 -0.31875828504E+02 -0.19424709856E+01 -0.72512750654E+02  0.12112474510E+03  0.91614754439E+02 0.  0.
         -6    2    1    2    0  502 -0.92562560859E+01 -0.23585142812E+02 -0.37577133636E+02  0.17772412500E+03  0.17184844019E+03 0.  0.
        -24    2    5    5    0    0 -0.27285731935E+02  0.24820340955E+01 -0.86131266001E+02  0.11955064753E+03  0.78250180068E+02 0.  0.
          5    1    3    3  501    0  0.41132084590E+02  0.25527613798E+02  0.31279504026E+02  0.57827370864E+02  0.47000000000E+01 0. -1.
        -13    1    4    4    0    0 -0.53584843822E+02 -0.16973799674E+02 -0.15519793007E+02  0.58312171438E+02  0.00000000000E+00 0.  1.
         14    1    4    4    0    0  0.21709015318E+02  0.15031328688E+02 -0.56992957647E+02  0.62812573658E+02  0.00000000000E+00 0. -1.
         -5    1    5    5    0  502  0.18029475850E+02 -0.26067176907E+02  0.48554132366E+02  0.58173477471E+02  0.47000000000E+01 0.  1.
         13    1    6    6    0    0 -0.71949470184E+01  0.18211364292E+02  0.86414800208E+01  0.21403182682E+02  0.00000000000E+00 0. -1.
        -14    1    6    6    0    0 -0.20090784917E+02 -0.15729330196E+02 -0.94772746022E+02  0.98147464845E+02  0.00000000000E+00 0.  1.
</event>
<event>
12    1  0.8406581E-002  0.1908353E+03  0.7818608E-02  0.1157938E+00
         21   -1    0    0  501  502  0.00000000000E+00  0.00000000000E+00  0.79796053441E+03  0.79796053441E+03  0.00000000000E+00 0.  1.
         21   -1    0    0  502  503 -0.00000000000E+00 -0.00000000000E+00 -0.46603952917E+02  0.46603952917E+02  0.00000000000E+00 0.  1.
         -6    2    1    2    0  503 -0.25045993911E+02  0.78659239822E+02  0.44461361300E+03  0.48383817390E+03  0.17205678085E+03 0.  0.
        -24    2    3    3    0    0 -0.63142859963E+02  0.25741919216E+02  0.37214370698E+03  0.38623903814E+03  0.77717364647E+02 0.  0.
          6    2    1    2  501    0  0.25045993911E+02 -0.78659239822E+02  0.30674296848E+03  0.36072631342E+03  0.17093170173E+03 0.  0.
         24    2    5    5    0    0 -0.41589956779E+02 -0.87885052306E+02  0.18342448276E+03  0.22017381625E+03  0.73337995341E+02 0.  0.
          5    1    5    5  501    0  0.66635950690E+02  0.92258124844E+01  0.12331848572E+03  0.14055249717E+03  0.47000000000E+01 0. -1.
        -13    1    6    6    0    0 -0.14349173155E+02 -0.20521669658E+02  0.12342924740E+03  0.12594370492E+03  0.00000000000E+00 0.  1.
         14    1    6    6    0    0 -0.27240783624E+02 -0.67363382648E+02  0.59995235363E+02  0.94230111326E+02  0.00000000000E+00 0. -1.
         -5    1    3    3    0  503  0.38096866052E+02  0.52917320605E+02  0.72469906020E+02  0.97599135762E+02  0.47000000000E+01 0.  1.
         11    1    4    4    0    0 -0.22820652901E+02 -0.30432112441E+01  0.19613230089E+02  0.30244373494E+02  0.00000000000E+00 0. -1.
        -12    1    4    4    0    0 -0.40322207062E+02  0.28785130461E+02  0.35253047690E+03  0.35599466465E+03  0.00000000000E+00 0.  1.
</event>
<event>
12    1  0.8406581E-002  0.2051889E+03  0.7818608E-02  0.1146422E+00
         21   -1    0    0  503  502  0.00000000000E+00  0.00000000000E+00  0.45911453623E+03  0.45911453623E+03  0.00000000000E+00 0. -1.
         21   -1    0    0  501  503 -0.00000000000E+00 -0.00000000000E+00 -0.92455931115E+02  0.92455931115E+02  0.00000000000E+00 0.  1.
          6    2    1    2  501    0 -0.20343200744E+02  0.11140641447E+03  0.13677738644E+03  0.24659794768E+03  0.17110598867E+03 0.  0.
         24    2    3    3    0    0  0.14165209697E+02  0.13287029469E+03  0.13654242147E+03  0.20568738971E+03  0.76212210631E+02 0.  0.
         -6    2    1    2    0  502  0.20343200744E+02 -0.11140641447E+03  0.22988121867E+03  0.30497251966E+03  0.16534094485E+03 0.  0.
        -24    2    5    5    0    0 -0.36580488349E+02 -0.44978579712E+02  0.66205733386E+02  0.11932576344E+03  0.80586809875E+02 0.  0.
          5    1    3    3  501    0 -0.34508410441E+02 -0.21463880217E+02  0.23496497131E+00  0.40910557973E+02  0.47000000000E+01 0. -1.
        -13    1    4    4    0    0 -0.25928802719E+02  0.19876213035E+02  0.19047440732E+02  0.37817610363E+02  0.00000000000E+00 0.  1.
         14    1    4    4    0    0  0.40094012416E+02  0.11299408165E+03  0.11749498074E+03  0.16786977935E+03  0.00000000000E+00 0. -1.
         -5    1    5    5    0  502  0.56923689093E+02 -0.66427834761E+02  0.16367548529E+03  0.18564675622E+03  0.47000000000E+01 0.  1.
         11    1    6    6    0    0  0.11161259761E+02  0.96279433302E+01  0.39281682893E+02  0.41956186947E+02  0.00000000000E+00 0. -1.
        -12    1    6    6    0    0 -0.47741748109E+02 -0.54606523042E+02  0.26924050493E+02  0.77369576490E+02  0.00000000000E+00 0.  1.
</event>
<event>
12    1  0.8406581E-002  0.3313750E+03  0.7818608E-02  0.1071639E+00
         21   -1    0    0  501  502  0.00000000000E+00  0.00000000000E+00  0.37298113940E+03  0.37298113940E+03  0.00000000000E+00 0. -1.
         21   -1    0    0  502  503 -0.00000000000E+00 -0.00000000000E+00 -0.29028539243E+03  0.29028539243E+03  0.00000000000E+00 0. -1.
         -6    2    1    2    0  503  0.11010322144E+03 -0.24797102618E+03 -0.11168564274E+01  0.32145672217E+03  0.17239729599E+03 0.  0.
        -24    2    3    3    0    0  0.11632633757E+03 -0.22026623452E+03  0.46429891774E+02  0.26587735622E+03  0.80535723853E+02 0.  0.
          6    2    1    2  501    0 -0.11010322144E+03  0.24797102618E+03  0.83812603399E+02  0.34180980966E+03  0.19025520832E+03 0.  0.
         24    2    5    5    0    0  0.15480456756E+02  0.40846862664E+02  0.16623239345E+02  0.90397439271E+02  0.77377349460E+02 0.  0.
          5    1    5    5  501    0 -0.12558367819E+03  0.20712416352E+03  0.67189364054E+02  0.25141237039E+03  0.47000000000E+01 0. -1.
        -13    1    6    6    0    0  0.27961319417E+01  0.16443461716E+02 -0.31114823482E+02  0.35303512960E+02  0.00000000000E+00 0.  1.
         14    1    6    6    0    0  0.12684324814E+02  0.24403400948E+02  0.47738062827E+02  0.55093926310E+02  0.00000000000E+00 0. -1.
         -5    1    3    3    0  503 -0.62231161349E+01 -0.27704791658E+02 -0.47546748201E+02  0.55579365953E+02  0.47000000000E+01 0.  1.
         13    1    4    4    0    0  0.68967932700E+02 -0.19470045186E+03  0.25460265733E+02  0.20811791568E+03  0.00000000000E+00 0. -1.
        -14    1    4    4    0    0  0.47358404872E+02 -0.25565782661E+02  0.20969626041E+02  0.57759440539E+02  0.00000000000E+00 0.  1.
</event>
<event>
12    1  0.8406581E-002  0.2406630E+03  0.7818608E-02  0.1119495E+00
         21   -1    0    0  503  502  0.00000000000E+00  0.00000000000E+00  0.11591914954E+04  0.11591914954E+04  0.00000000000E+00 0. -1.
         21   -1    0    0  501  503 -0.00000000000E+00 -0.00000000000E+00 -0.88123688339E+02  0.88123688339E+02  0.00000000000E+00 0. -1.
          6    2    1    2  501    0  0.16293820700E+03  0.42572863676E+02  0.12363795482E+03  0.26979690328E+03  0.17071238129E+03 0.  0.
         24    2    3    3    0    0  0.16387328397E+03  0.54234811376E+02  0.52365098612E+02  0.19741744884E+03  0.80222675033E+02 0.  0.
         -6    2    1    2    0  502 -0.16293820700E+03 -0.42572863676E+02  0.94742985220E+03  0.97751828042E+03  0.17192252817E+03 0.  0.
        -24    2    5    5    0    0 -0.17536233608E+03 -0.10225871325E+00  0.70983724878E+03  0.73579437496E+03  0.82295097657E+02 0.  0.
          5    1    3    3  501    0 -0.93507697336E+00 -0.11661947700E+02  0.71272856205E+02  0.72379454438E+02  0.47000000000E+01 0. -1.
        -13    1    4    4    0    0  0.12460212393E+03  0.44606723033E+02  0.13903379203E+01  0.13235324729E+03  0.00000000000E+00 0.  1.
         14    1    4    4    0    0  0.39271160036E+02  0.96280883425E+01  0.50974760692E+02  0.65064201550E+02  0.00000000000E+00 0. -1.
         -5    1    5    5    0  502  0.12424129085E+02 -0.42470604963E+02  0.23759260342E+03  0.24172390546E+03  0.47000000000E+01 0.  1.
         11    1    6    6    0    0 -0.10809051320E+03 -0.31573918863E+02  0.32773298334E+03  0.34653914608E+03  0.00000000000E+00 0. -1.
        -12    1    6    6    0    0 -0.67271822884E+02  0.31471660149E+02  0.38210426544E+03  0.38925522888E+03  0.00000000000E+00 0.  1.
</event>
<event>
12    1  0.8406581E-002  0.1873985E+03  0.7818608E-02  0.1161026E+00
         21   -1    0    0  503  502  0.00000000000E+00  0.00000000000E+00  0.11992697745E+03  0.11992697745E+03  0.00000000000E+00 0.  1.
         21   -1    0    0  501  503 -0.00000000000E+00 -0.00000000000E+00 -0.29194756069E+03  0.29194756069E+03  0.00000000000E+00 0.  1.
          6    2    1    2  501    0  0.68032478530E+02 -0.23615802249E+02 -0.78060392569E+02  0.20300643063E+03  0.17300884872E+03 0.  0.
         24    2    3    3    0    0  0.33414963372E+02 -0.66883827156E+02 -0.88637189300E+02  0.14639854280E+03  0.89364287579E+02 0.  0.
         -6    2    1    2    0  502 -0.68032478530E+02  0.23615802249E+02 -0.93960190674E+02  0.20886810751E+03  0.17207918134E+03 0.  0.
        -24    2    5    5    0    0 -0.40091502574E+02 -0.54604813036E+02 -0.64365599073E+02  0.12056696004E+03  0.76186923569E+02 0.  0.
          5    1    3    3  501    0  0.34617515159E+02  0.43268024907E+02  0.10576796731E+02  0.56607887827E+02  0.47000000000E+01 0. -1.
        -11    1    4    4    0    0  0.58840643367E+02 -0.68087659541E+02 -0.76888498700E+02  0.11836381172E+03  0.00000000000E+00 0.  1.
         12    1    4    4    0    0 -0.25425679995E+02  0.12038323851E+01 -0.11748690600E+02  0.28034731075E+02  0.00000000000E+00 0. -1.
         -5    1    5    5    0  502 -0.27940975956E+02  0.78220615285E+02 -0.29594591601E+02  0.88301147473E+02  0.47000000000E+01 0.  1.
         11    1    6    6    0    0 -0.37470620644E+02 -0.35103493720E+01  0.89155966572E+00  0.37645249936E+02  0.00000000000E+00 0. -1.
        -12    1    6    6    0    0 -0.26208819308E+01 -0.51094463664E+02 -0.65257158739E+02  0.82921710100E+02  0.00000000000E+00 0.  1.
</event>
<event>
12    1  0.8406581E-002  0.2024373E+03  0.7818608E-02  0.1147862E+00
         21   -1    0    0  501  502  0.00000000000E+00  0.00000000000E+00  0.16552438488E+03  0.16552438488E+03  0.00000000000E+00 0.  1.
         21   -1    0    0  502  503 -0.00000000000E+00 -0.00000000000E+00 -0.26111641758E+03  0.26111641758E+03  0.00000000000E+00 0. -1.
         -6    2    1    2    0  503  0.10060844862E+03 -0.34731348021E+02  0.23728562206E+01  0.20245117114E+03  0.17219907020E+03 0.  0.
        -24    2    3    3    0    0  0.12702633020E+03 -0.43216879392E+02  0.18841057892E+02  0.16984441761E+03  0.10241461567E+03 0.  0.
          6    2    1    2  501    0 -0.10060844862E+03  0.34731348021E+02 -0.97964888919E+02  0.22418963132E+03  0.17127622386E+03 0.  0.
         24    2    5    5    0    0 -0.36374769489E+02 -0.32909382338E+02 -0.98646791213E+01  0.95795819529E+02  0.81690732913E+02 0.  0.
          5    1    5    5  501    0 -0.64233679135E+02  0.67640730359E+02 -0.88100209798E+02  0.12839381179E+03  0.47000000000E+01 0. -1.
        -13    1    6    6    0    0 -0.37651136306E+02 -0.88545907558E+01  0.30183167885E+02  0.49061547735E+02  0.00000000000E+00 0.  1.
         14    1    6    6    0    0  0.12763668178E+01 -0.24054791582E+02 -0.40047847006E+02  0.46734271794E+02  0.00000000000E+00 0. -1.
         -5    1    3    3    0  503 -0.26417881575E+02  0.84855313714E+01 -0.16468201672E+02  0.32606753532E+02  0.47000000000E+01 0.  1.
         13    1    4    4    0    0  0.87877686660E+02 -0.61415974484E+02 -0.23079895308E+02  0.10966809610E+03  0.00000000000E+00 0. -1.
        -14    1    4    4    0    0  0.39148643538E+02  0.18199095092E+02  0.41920953200E+02  0.60176321508E+02  0.00000000000E+00 0.  1.
</event>
<event>
12    1  0.8406581E-002  0.2749894E+03  0.7818608E-02  0.1098501E+00
         21   -1    0    0  503  502  0.00000000000E+00  0.00000000000E+00  0.12209500228E+04  0.12209500228E+04  0.00000000000E+00 0. -1.
         21   -1    0    0  501  503 -0.00000000000E+00 -0.00000000000E+00 -0.61890922697E+02  0.61890922697E+02  0.00000000000E+00 0.  1.
          6    2    1    2  501    0 -0.17414934964E+02 -0.21383939153E+03  0.56681564242E+03  0.62999933066E+03  0.17201342626E+03 0.  0.
         24    2    3    3    0    0  0.66777689416E+01 -0.73735674044E+02  0.12938634992E+03  0.17002543360E+03  0.81769666152E+02 0.  0.
         -6    2    1    2    0  502  0.17414934964E+02  0.21383939153E+03  0.59224345765E+03  0.65284161480E+03  0.17152053975E+03 0.  0.
        -24    2    5    5    0    0  0.35223670673E+02  0.19036649448E+03  0.34302379190E+03  0.40184229257E+03  0.79572590071E+02 0.  0.
          5    1    3    3  501    0 -0.24092703906E+02 -0.14010371749E+03  0.43742929250E+03  0.45997389706E+03  0.47000000000E+01 0. -1.
        -13    1    4    4    0    0 -0.10478252301E+02 -0.32077338969E+02  0.77815813695E+00  0.33754332710E+02  0.00000000000E+00 0.  1.
         14    1    4    4    0    0  0.17156021242E+02 -0.41658335075E+02  0.12860819178E+03  0.13627110089E+03  0.00000000000E+00 0. -1.
         -5    1    5    5    0  502 -0.17808735708E+02  0.23472897049E+02  0.24921966575E+03  0.25099932223E+03  0.47000000000E+01 0.  1.
         13    1    6    6    0    0  0.16066940257E+02  0.70552096745E+02  0.20841551220E+03  0.22061906230E+03  0.00000000000E+00 0. -1.
        -14    1    6    6    0    0  0.19156730415E+02  0.11981439774E+03  0.13460827970E+03  0.18122323027E+03  0.00000000000E+00 0.  1.
</event>
<event>
12    1  0.8406581E-002  0.1733469E+03  0.7818608E-02  0.1174788E+00
         21   -1    0    0  501  502  0.00000000000E+00  0.00000000000E+00  0.99932329686E+02  0.99932329686E+02  0.00000000000E+00 0. -1.
         21   -1    0    0  502  503 -0.00000000000E+00 -0.00000000000E+00 -0.38924528598E+03  0.38924528598E+03  0.00000000000E+00 0. -1.
         -6    2    1    2    0  503  0.12728910764E+02  0.16279492172E+02 -0.26254032214E+03  0.31377542156E+03  0.17058882552E+03 0.  0.
        -24    2    3    3    0    0 -0.13545034729E+00 -0.40943469788E+02 -0.22976349973E+03  0.24642284738E+03  0.79098469234E+02 0.  0.
          6    2    1    2  501    0 -0.12728910764E+02 -0.16279492172E+02 -0.26772634157E+02  0.17540219410E+03  0.17211074552E+03 0.  0.
         24    2    5    5    0    0 -0.29191344028E+02 -0.29859960828E+02 -0.78299066571E+02  0.11943341642E+03  0.79936507966E+02 0.  0.
          5    1    5    5  501    0  0.16462433265E+02  0.13580468656E+02  0.51526432414E+02  0.55968777682E+02  0.47000000000E+01 0. -1.
        -13    1    6    6    0    0 -0.45843267761E+02 -0.33595718137E+01 -0.74995794207E+02  0.87961702295E+02  0.00000000000E+00 0.  1.
         14    1    6    6    0    0  0.16651923732E+02 -0.26500389014E+02 -0.33032723635E+01  0.31471714128E+02  0.00000000000E+00 0. -1.
         -5    1    3    3    0  503  0.12864361111E+02  0.57222961960E+02 -0.32776822405E+02  0.67352574184E+02  0.47000000000E+01 0.  1.
         13    1    4    4    0    0 -0.30639509619E+02  0.15763348665E+01 -0.13217724675E+03  0.13569115276E+03  0.00000000000E+00 0. -1.
        -14    1    4    4    0    0  0.30504059271E+02 -0.42519804654E+02 -0.97586252987E+02  0.11073169461E+03  0.00000000000E+00 0.  1.
</event>
<event>
12    1  0.8406581E-002  0.1780474E+03  0.7818608E-02  0.1170080E+00
         21   -1    0    0  501  502  0.00000000000E+00  0.00000000000E+00  0.25487301629E+02  0.25487301629E+02  0.00000000000E+00 0.  1.
         21   -1    0    0  502  503 -0.00000000000E+00 -0.00000000000E+00 -0.12941928036E+04  0.12941928036E+04  0.00000000000E+00 0.  1.
         -6    2    1    2    0  503  0.10799574518E+02  0.39586824596E+02 -0.77497137975E+03  0.79482370242E+03  0.17169837216E+03 0.  0.
        -24    2    3    3    0    0 -0.11334057973E+02 -0.79916699702E+01 -0.17794881337E+03  0.19548102448E+03  0.79716517059E+02 0.  0.
          6    2    1    2  501    0 -0.10799574518E+02 -0.39586824596E+02 -0.49373412220E+03  0.52485640279E+03  0.17325447364E+03 0.  0.
         24    2    5    5    0    0 -0.65132538663E+02  0.12291590175E+02 -0.28004647609E+03  0.29829969684E+03  0.78507003396E+02 0.  0.
          5    1    5    5  501    0  0.54332964145E+02 -0.51878414771E+02 -0.21368764610E+03  0.22655670595E+03  0.47000000000E+01 0. -1.
        -13    1    6    6    0    0 -0.12810895916E+02  0.34182522021E+02 -0.53540630515E+02  0.64800948927E+02  0.00000000000E+00 0.  1.
         14    1    6    6    0    0 -0.52321642746E+02 -0.21890931846E+02 -0.22650584558E+03  0.23349874792E+03  0.00000000000E+00 0. -1.
         -5    1    3    3    0  503  0.22133632491E+02  0.47578494566E+02 -0.59702256638E+03  0.59934267794E+03  0.47000000000E+01 0.  1.
         11    1    4    4    0    0  0.28762621014E+02  0.14145101649E+02 -0.48190909229E+02  0.57876903862E+02  0.00000000000E+00 0. -1.
        -12    1    4    4    0    0 -0.40096678987E+02 -0.22136771620E+02 -0.12975790414E+03  0.13760412062E+03  0.00000000000E+00 0.  1.
</event>
<event>
12    1  0.8406581E-002  0.1864190E+03  0.7818608E-02  0.1161998E+00
         21   -1    0    0  501  502  0.00000000000E+00  0.00000000000E+00  0.10648434123E+04  0.10648434123E+04  0.00000000000E+00 0. -1.
         21   -1    0    0  502  503 -0.00000000000E+00 -0.00000000000E+00 -0.32920205697E+02  0.32920205697E+02  0.00000000000E+00 0.  1.
         -6    2    1    2    0  503 -0.43269195315E+02  0.57960539228E+02  0.58417965587E+03  0.61320300422E+03  0.17181503624E+03 0.  0.
        -24    2    3    3    0    0  0.12732985165E+02  0.38218938156E+02  0.50918762332E+03  0.51743312389E+03  0.82717506094E+02 0.  0.
          6    2    1    2  501    0  0.43269195315E+02 -0.57960539228E+02  0.44774355070E+03  0.48456061374E+03  0.17056686030E+03 0.  0.
         24    2    5    5    0    0  0.37479292279E+02 -0.92807736330E+02  0.22263795433E+03  0.25665170730E+03  0.79274629470E+02 0.  0.
          5    1    5    5  501    0  0.57899030358E+01  0.34847197102E+02  0.22510559636E+03  0.22790890645E+03  0.47000000000E+01 0. -1.
        -11    1    6    6    0    0  0.48079476410E+02 -0.49563249088E+02  0.72804383057E+02  0.10034256278E+03  0.00000000000E+00 0.  1.
         12    1    6    6    0    0 -0.10600184131E+02 -0.43244487241E+02  0.14983357128E+03  0.15630914452E+03  0.00000000000E+00 0. -1.
         -5    1    3    3    0  503 -0.56002180480E+02  0.19741601072E+02  0.74992032556E+02  0.95769880329E+02  0.47000000000E+01 0.  1.
         13    1    4    4    0    0  0.69616241202E+01  0.61153360904E+02  0.44070204536E+03  0.44497920237E+03  0.00000000000E+00 0. -1.
        -14    1    4    4    0    0  0.57713610443E+01 -0.22934422748E+02  0.68485577958E+02  0.72453921518E+02  0.00000000000E+00 0.  1.
</event>
<event>
12    1  0.8406581E-002  0.1791715E+03  0.7818608E-02  0.1168640E+00
         21   -1    0    0  503  502  0.00000000000E+00  0.00000000000E+00  0.29781530258E+03  0.29781530258E+03  0.00000000000E+00 0. -1.
         21   -1    0    0  501  503 -0.00000000000E+00 -0.00000000000E+00 -0.12730303348E+03  0.12730303348E+03  0.00000000000E+00 0. -1.
          6    2    1    2  501    0  0.10464587182E+02 -0.40222822706E+02  0.18441756840E+01  0.17904646685E+03  0.17414606874E+03 0.  0.
         24    2    3    3    0    0  0.58850993903E+02 -0.13895304403E+02  0.41040685093E+02  0.11127597973E+03  0.83913567814E+02 0.  0.
         -6    2    1    2    0  502 -0.10464587182E+02  0.40222822706E+02  0.16866809341E+03  0.24607186921E+03  0.17428441132E+03 0.  0.
        -24    2    5    5    0    0 -0.43082657823E+02  0.64589482714E+02  0.17224341304E+03  0.20493131060E+03  0.79379670234E+02 0.  0.
          5    1    3    3  501    0 -0.48386406721E+02 -0.26327518303E+02 -0.39196509409E+02  0.67770487125E+02  0.47000000000E+01 0. -1.
        -11    1    4    4    0    0  0.19790263749E+02  0.29572037956E+02  0.39010670456E+02  0.52801442949E+02  0.00000000000E+00 0.  1.
         12    1    4    4    0    0  0.39060730154E+02 -0.43467342359E+02  0.20300146372E+01  0.58474536777E+02  0.00000000000E+00 0. -1.
         -5    1    5    5    0  502  0.32618070641E+02 -0.24366660009E+02 -0.35753196286E+01  0.41140558610E+02  0.47000000000E+01 0.  1.
         13    1    6    6    0    0 -0.37250586004E+02  0.54665883111E+02  0.17951562055E+03  0.19131602901E+03  0.00000000000E+00 0. -1.
        -14    1    6    6    0    0 -0.58320718193E+01  0.99235996034E+01 -0.72722075099E+01  0.13615281593E+02  0.00000000000E+00 0.  1.
</event>
<event>
12    1  0.8406581E-002  0.2466002E+03  0.7818608E-02  0.1115518E+00
         21   -1    0    0  501  502  0.00000000000E+00  0.00000000000E+00  0.10495424784E+04  0.10495424784E+04  0.00000000000E+00 0. -1.
         21   -1    0    0  502  503 -0.00000000000E+00 -0.00000000000E+00 -0.11486818915E+03  0.11486818915E+03  0.00000000000E+00 0.  1.
         -6    2    1    2    0  503  0.34571251794E+02  0.17321672697E+03  0.57100319518E+02  0.25284732637E+03  0.17167445357E+03 0.  0.
        -24    2    3    3    0    0  0.16178122457E+02  0.11029410741E+03  0.10623390142E+03  0.17078782278E+03  0.73866885832E+02 0.  0.
          6    2    1    2  501    0 -0.34571251794E+02 -0.17321672697E+03  0.87757396978E+03  0.91156334122E+03  0.17208267393E+03 0.  0.
         24    2    5    5    0    0 -0.40763219785E+02 -0.14756017478E+03  0.43211737530E+03  0.46530078767E+03  0.79647672277E+02 0.  0.
          5    1    5    5  501    0  0.61919679902E+01 -0.25656552196E+02  0.44545659448E+03  0.44626255355E+03  0.47000000000E+01 0. -1.
        -13    1    6    6    0    0  0.12979474982E+02  0.22870482196E+01  0.39336687450E+02  0.41485808897E+02  0.00000000000E+00 0.  1.
         14    1    6    6    0    0 -0.53742694767E+02 -0.14984722299E+03  0.39278068785E+03  0.42381497877E+03  0.00000000000E+00 0. -1.
         -5    1    3    3    0  503  0.18393129338E+02  0.62922619560E+02 -0.49133581903E+02  0.82059503592E+02  0.47000000000E+01 0.  1.
         13    1    4    4    0    0  0.18719128487E+02  0.17607250218E+02  0.63870824197E+02  0.68846955018E+02  0.00000000000E+00 0. -1.
        -14    1    4    4    0    0 -0.25410060310E+01  0.92686857193E+02  0.42363077223E+02  0.10194086776E+03  0.00000000000E+00 0.  1.
</event>
<event>
12    1  0.8406581E-002  0.1913020E+03  0.7818608E-02  0.1157504E+00
         21   -1    0    0  503  502  0.00000000000E+00  0.00000000000E+00  0.25778884265E+03  0.25778884265E+03  0.00000000000E+00 0.  1.
         21   -1    0    0  501  503 -0.00000000000E+00 -0.00000000000E+00 -0.19865641713E+03  0.19865641713E+03  0.00000000000E+00 0.  1.
          6    2    1    2  501    0 -0.20542516769E+02 -0.79606262767E+02 -0.93050619504E+02  0.21273196352E+03  0.17273482118E+03 0.  0.
         24    2    3    3    0    0 -0.41210261056E+02 -0.39242403088E+01 -0.99444533890E+02  0.13387832493E+03  0.79501605571E+02 0.  0.
         -6    2    1    2    0  502  0.20542516769E+02  0.79606262767E+02  0.15218304502E+03  0.24371329626E+03  0.17168966047E+03 0.  0.
        -24    2    5    5    0    0  0.58502384566E+02 -0.13048439816E+01  0.63189576313E+02  0.11750122777E+03  0.79933624687E+02 0.  0.
          5    1    3    3  501    0  0.20667744287E+02 -0.75682022458E+02  0.63939143864E+01  0.78853638587E+02  0.47000000000E+01 0. -1.
        -11    1    4    4    0    0  0.11019846538E+02 -0.27336076619E+02 -0.18702550196E+02  0.34906782815E+02  0.00000000000E+00 0.  1.
         12    1    4    4    0    0 -0.52230107593E+02  0.23411836310E+02 -0.80741983695E+02  0.98971542120E+02  0.00000000000E+00 0. -1.
         -5    1    5    5    0  502 -0.37959867796E+02  0.80911106749E+02  0.88993468708E+02  0.12621206848E+03  0.47000000000E+01 0.  1.
         11    1    6    6    0    0  0.16367373531E+02 -0.14873552195E+02 -0.15644208885E+02  0.27089753466E+02  0.00000000000E+00 0. -1.
        -12    1    6    6    0    0  0.42135011035E+02  0.13568708214E+02  0.78833785198E+02  0.90411474306E+02  0.00000000000E+00 0.  1.
</event>
<event>
12    1  0.8406581E-002  0.1983321E+03  0.7818608E-02  0.1151660E+00
         21   -1    0    0  501  502  0.00000000000E+00  0.00000000000E+00  0.94741230635E+02  0.94741230635E+02  0.00000000000E+00 0. -1.
         21   -1    0    0  502  503 -0.00000000000E+00 -0.00000000000E+00 -0.47016610773E+03  0.47016610773E+03  0.00000000000E+00 0.  1.
         -6    2    1    2    0  503  0.62839685387E+02 -0.74740664092E+02 -0.85921791823E+02  0.21398331100E+03  0.16991559713E+03 0.  0.
        -24    2    3    3    0    0 -0.20127690765E+02 -0.11474642998E+02 -0.38688627815E+01  0.81164080110E+02  0.77690722956E+02 0.  0.
          6    2    1    2  501    0 -0.62839685387E+02  0.74740664092E+02 -0.28950308527E+03  0.35092402736E+03  0.17262862935E+03 0.  0.
         24    2    5    5    0    0 -0.11084640449E+03  0.55628984710E+02 -0.20827480227E+03  0.25453924990E+03  0.77655181080E+02 0.  0.
          5    1    5    5  501    0  0.48006719104E+02  0.19111679381E+02 -0.81228282999E+02  0.96384777464E+02  0.47000000000E+01 0. -1.
        -11    1    6    6    0    0  0.69230677607E+01  0.19246334860E+02 -0.49316983472E+02  0.53390215691E+02  0.00000000000E+00 0.  1.
         12    1    6    6    0    0 -0.11776947225E+03  0.36382649850E+02 -0.15895781880E+03  0.20114903420E+03  0.00000000000E+00 0. -1.
         -5    1    3    3    0  503  0.82967376151E+02 -0.63266021094E+02 -0.82052929041E+02  0.13281923089E+03  0.47000000000E+01 0.  1.
         11    1    4    4    0    0  0.25611261563E+02 -0.75608320134E+01  0.16013443751E+02  0.31137329371E+02  0.00000000000E+00 0. -1.
        -12    1    4    4    0    0 -0.45738952328E+02 -0.39138109846E+01 -0.19882306532E+02  0.50026750739E+02  0.00000000000E+00 0.  1.
</event>
<event>
12    1  0.8406581E-002  0.1841240E+03  0.7818608E-02  0.1164150E+00
         21   -1    0    0  501  502  0.00000000000E+00  0.00000000000E+00  0.24867229173E+04  0.24867229173E+04  0.00000000000E+00 0.  1.
         21   -1    0    0  502  503 -0.00000000000E+00 -0.00000000000E+00 -0.14126671189E+02  0.14126671189E+02  0.00000000000E+00 0. -1.
         -6    2    1    2    0  503  0.62417333202E+02  0.18987447833E+02  0.98646123301E+03  0.10034975943E+04  0.17217784643E+03 0.  0.
        -24    2    3    3    0    0 -0.33799582478E+02  0.16796504147E+02  0.50517484952E+03  0.51266038293E+03  0.78705179698E+02 0.  0.
          6    2    1    2  501    0 -0.62417333202E+02 -0.18987447833E+02  0.14861350131E+04  0.14973519942E+04  0.17090719934E+03 0.  0.
         24    2    5    5    0    0 -0.54433541438E+02 -0.30929632097E+02  0.14750117031E+04  0.14785856754E+04  0.81464241938E+02 0.  0.
          5    1    5    5  501    0 -0.79837917633E+01  0.11942184265E+02  0.11123310000E+02  0.18766318799E+02  0.47000000000E+01 0. -1.
        -13    1    6    6    0    0 -0.10112176818E+01 -0.14050888790E+02  0.10254062220E+04  0.10255029840E+04  0.00000000000E+00 0.  1.
         14    1    6    6    0    0 -0.53422323757E+02 -0.16878743307E+02  0.44960548111E+03  0.45308269145E+03  0.00000000000E+00 0. -1.
         -5    1    3    3    0  503  0.96216915680E+02  0.21909436853E+01  0.48128638349E+03  0.49083721134E+03  0.47000000000E+01 0.  1.
         11    1    4    4    0    0 -0.35998436870E+02 -0.15351947715E+02  0.12178085507E+03  0.12791460596E+03  0.00000000000E+00 0. -1.
        -12    1    4    4    0    0  0.21988543926E+01  0.32148451863E+02  0.38339399445E+03  0.38474577697E+03  0.00000000000E+00 0.  1.
</event>
<event>
12    1  0.8406581E-002  0.2289060E+03  0.7818608E-02  0.1127959E+00
         21   -1    0    0  501  502  0.00000000000E+00  0.00000000000E+00  0.62585814276E+02  0.62585814276E+02  0.00000000000E+00 0.  1.
         21   -1    0    0  502  503 -0.00000000000E+00 -0.00000000000E+00 -0.15582020537E+04  0.15582020537E+04  0.00000000000E+00 0.  1.
         -6    2    1    2    0  503  0.46599248914E+00  0.14664894082E+03 -0.13059764180E+04  0.13258854969E+04  0.17576068231E+03 0.  0.
        -24    2    3    3    0    0  0.33190411258E+02  0.22571091605E+02 -0.75072806834E+03  0.75598285602E+03  0.79412772428E+02 0.  0.
          6    2    1    2  501    0 -0.46599248914E+00 -0.14664894082E+03 -0.18963982140E+03  0.29490237108E+03  0.17174986934E+03 0.  0.
         24    2    5    5    0    0 -0.25480170904E+02 -0.16750774939E+03 -0.18149605648E+03  0.26100237221E+03  0.80457035518E+02 0.  0.
          5    1    5    5  501    0  0.25014178415E+02  0.20858808574E+02 -0.81437649236E+01  0.33899998880E+02  0.47000000000E+01 0. -1.
        -11    1    6    6    0    0  0.18811270774E+02 -0.57634642704E+02 -0.27133458630E+02  0.66421687158E+02  0.00000000000E+00 0.  1.
         12    1    6    6    0    0 -0.44291441678E+02 -0.10987310669E+03 -0.15436259785E+03  0.19458068505E+03  0.00000000000E+00 0. -1.
         -5    1    3    3    0  503 -0.32724418769E+02  0.12407784921E+03 -0.55524834966E+03  0.56990264085E+03  0.47000000000E+01 0.  1.
         11    1    4    4    0    0  0.56162173293E+02  0.27391766309E+02 -0.44657179803E+03  0.45092224315E+03  0.00000000000E+00 0. -1.
        -12    1    4    4    0    0 -0.22971762035E+02 -0.48206747044E+01 -0.30415627031E+03  0.30506061287E+03  0.00000000000E+00 0.  1.
</event>
<event>
12    1  0.8406581E-002  0.2296183E+03  0.7818608E-02  0.1127972E+00
         21   -1    0    0  503  502  0.00000000000E+00  0.00000000000E+00  0.80884883013E+03  0.80884883013E+03  0.00000000000E+00 0. -1.
         21   -1    0    0  501  503 -0.00000000000E+00 -0.00000000000E+00 -0.11431726139E+03  0.11431726139E+03  0.00000000000E+00 0.  1.
          6    2    1    2  501    0 -0.22926394459E+02 -0.14541683389E+03  0.37022331108E+02  0.22671583346E+03  0.16839756827E+03 0.  0.
         24    2    3    3    0    0 -0.16592799153E+02 -0.15691096330E+03  0.70856050138E+02  0.19012293819E+03  0.78928957915E+02 0.  0.
         -6    2    1    2    0  502  0.22926394459E+02  0.14541683389E+03  0.65750923763E+03  0.69645025807E+03  0.17621830000E+03 0.  0.
        -24    2    5    5    0    0  0.44268504098E+02  0.50873313086E+02  0.50508579843E+03  0.51576003203E+03  0.79680313895E+02 0.  0.
          5    1    3    3  501    0 -0.63335953056E+01  0.11494129414E+02 -0.33833719030E+02  0.36592895265E+02  0.47000000000E+01 0. -1.
        -11    1    4    4    0    0 -0.61219401521E+01 -0.38817198955E+02 -0.16741955787E+02  0.42714706713E+02  0.00000000000E+00 0.  1.
         12    1    4    4    0    0 -0.10470859001E+02 -0.11809376435E+03  0.87598005925E+02  0.14740823148E+03  0.00000000000E+00 0. -1.
         -5    1    5    5    0  502 -0.21342109639E+02  0.94543520801E+02  0.15242343921E+03  0.18069022605E+03  0.47000000000E+01 0.  1.
         11    1    6    6    0    0  0.39733588808E+02  0.64686743577E+02  0.48532812767E+03  0.49122960454E+03  0.00000000000E+00 0. -1.
        -12    1    6    6    0    0  0.45349152901E+01 -0.13813430491E+02  0.19757670759E+02  0.24530427482E+02  0.00000000000E+00 0.  1.
</event>
<event>
12    1  0.8406581E-002  0.1985282E+03  0.7818608E-02  0.1152198E+00
         21   -1    0    0  501  502  0.00000000000E+00  0.00000000000E+00  0.36794794631E+02  0.36794794631E+02  0.00000000000E+00 0.  1.
         21   -1    0    0  502  503 -0.00000000000E+00 -0.00000000000E+00 -0.14783923030E+04  0.14783923030E+04  0.00000000000E+00 0.  1.
         -6    2    1    2    0  503  0.59860854512E+02  0.72842697861E+02 -0.11255053069E+04  0.11419208057E+04  0.16831978487E+03 0.  0.
        -24    2    3    3    0    0  0.40467150688E+01  0.50854210442E+01 -0.25425582148E+03  0.26624733764E+03  0.78736171074E+02 0.  0.
          6    2    1    2  501    0 -0.59860854512E+02 -0.72842697861E+02 -0.31609220140E+03  0.37326629192E+03  0.17471137444E+03 0.  0.
         24    2    5    5    0    0 -0.75475227871E+02 -0.54385587825E+01 -0.10832692629E+03  0.15423290139E+03  0.79542296735E+02 0.  0.
          5    1    5    5  501    0  0.15614373360E+02 -0.67404139078E+02 -0.20776527512E+03  0.21903339052E+03  0.47000000000E+01 0. -1.
        -13    1    6    6    0    0 -0.34161351908E+02 -0.57638471780E+01  0.36895802004E+01  0.34840104772E+02  0.00000000000E+00 0.  1.
         14    1    6    6    0    0 -0.41313875963E+02  0.32528839556E+00 -0.11201650649E+03  0.11939279662E+03  0.00000000000E+00 0. -1.
         -5    1    3    3    0  503  0.55814139443E+02  0.67757276816E+02 -0.87124948546E+03  0.87567346805E+03  0.47000000000E+01 0.  1.
         11    1    4    4    0    0  0.89082206737E+01 -0.20190297526E+02 -0.22942298057E+03  0.23048190498E+03  0.00000000000E+00 0. -1.
        -12    1    4    4    0    0 -0.48615056049E+01  0.25275718570E+02 -0.24832840915E+02  0.35765432667E+02  0.00000000000E+00 0.  1.
</event>
<event>
12    1  0.8406581E-002  0.1780342E+03  0.7818608E-02  0.1170415E+00
         21   -1    0    0  503  502  0.00000000000E+00  0.00000000000E+00  0.23050486607E+03  0.23050486607E+03  0.00000000000E+00 0.  1.
         21   -1    0    0  501  503 -0.00000000000E+00 -0.00000000000E+00 -0.20647680319E+03  0.20647680319E+03  0.00000000000E+00 0.  1.
          6    2    1    2  501    0  0.47387184222E+02 -0.52140085540E+01 -0.11628640434E+03  0.21030058098E+03  0.16861516959E+03 0.  0.
         24    2    3    3    0    0  0.34222484003E+02 -0.57557076583E+02 -0.11640358719E+03  0.15612300412E+03  0.79627896051E+02 0.  0.
         -6    2    1    2    0  502 -0.47387184222E+02  0.52140085540E+01  0.14031446722E+03  0.22668108828E+03  0.17153260610E+03 0.  0.
        -24    2    5    5    0    0 -0.46342570034E+02  0.66261243547E+02  0.81474215216E+02  0.14175687868E+03  0.83179196407E+02 0.  0.
          5    1    3    3  501    0  0.13164700219E+02  0.52343068029E+02  0.11718285384E+00  0.54177576860E+02  0.47000000000E+01 0. -1.
        -13    1    4    4    0    0  0.14465490305E+02  0.27057799601E+01 -0.83288992073E+02  0.84579121865E+02  0.00000000000E+00 0.  1.
         14    1    4    4    0    0  0.19756993698E+02 -0.60262856543E+02 -0.33114595116E+02  0.71543882257E+02  0.00000000000E+00 0. -1.
         -5    1    5    5    0  502 -0.10446141884E+01 -0.61047234993E+02  0.58840252005E+02  0.84924209593E+02  0.47000000000E+01 0.  1.
         13    1    6    6    0    0 -0.17217611546E+02  0.77608308008E+02  0.37734643888E+02  0.87996584982E+02  0.00000000000E+00 0. -1.
        -14    1    6    6    0    0 -0.29124958488E+02 -0.11347064461E+02  0.43739571328E+02  0.53760293700E+02  0.00000000000E+00 0.  1.
</event>
<event>
12    1  0.8406581E-002  0.1748607E+03  0.7818608E-02  0.1173099E+00
         21   -1    0    0  501  502  0.00000000000E+00  0.00000000000E+00  0.96859838734E+02  0.96859838734E+02  0.00000000000E+00 0.  1.
         21   -1    0    0  502  503 -0.00000000000E+00 -0.00000000000E+00 -0.42880318391E+03  0.42880318391E+03  0.00000000000E+00 0.  1.
         -6    2    1    2    0  503  0.72180027195E+01 -0.34130253939E+02 -0.30225543686E+03  0.34919135628E+03  0.17134550006E+03 0.  0.
        -24    2    3    3    0    0 -0.17917724792E+02  0.65850482288E+01 -0.28702893942E+03  0.29875846173E+03  0.80663490321E+02 0.  0.
          6    2    1    2  501    0 -0.72180027195E+01  0.34130253939E+02 -0.29687908317E+02  0.17647166636E+03  0.17042271953E+03 0.  0.
         24    2    5    5    0    0  0.18415777488E+02  0.20235282131E+02 -0.83545966044E+02  0.11504739338E+03  0.74211635061E+02 0.  0.
          5    1    5    5  501    0 -0.25633780208E+02  0.13894971808E+02  0.53858057727E+02  0.61424272982E+02  0.47000000000E+01 0. -1.
        -13    1    6    6    0    0  0.16335938385E+01  0.46520359315E+02 -0.60166565880E+02  0.76071204207E+02  0.00000000000E+00 0.  1.
         14    1    6    6    0    0  0.16782183650E+02 -0.26285077184E+02 -0.23379400164E+02  0.38976189176E+02  0.00000000000E+00 0. -1.
         -5    1    3    3    0  503  0.25135727512E+02 -0.40715302168E+02 -0.15226497441E+02  0.50432894548E+02  0.47000000000E+01 0.  1.
         11    1    4    4    0    0 -0.36377493670E+02  0.12099304423E+02 -0.61924110294E+02  0.72830698534E+02  0.00000000000E+00 0. -1.
        -12    1    4    4    0    0  0.18459768878E+02 -0.55142561941E+01 -0.22510482912E+03  0.22592776320E+03  0.00000000000E+00 0.  1.
</event>
<event>
12    1  0.8406581E-002  0.1723857E+03  0.7818608E-02  0.1175469E+00
         21   -1    0    0  503  502  0.00000000000E+00  0.00000000000E+00  0.81124765967E+03  0.81124765967E+03  0.00000000000E+00 0. -1.
         21   -1    0    0  501  503 -0.00000000000E+00 -0.00000000000E+00 -0.85595926030E+02  0.85595926030E+02  0.00000000000E+00 0. -1.
          6    2    1    2  501    0  0.10647750438E+02 -0.12011649976E+02  0.23266436897E+02  0.17361337383E+03  0.17129688311E+03 0.  0.
         24    2    3    3    0    0  0.36869587922E+02  0.43347158335E+02  0.45619651524E+02  0.10823800674E+03  0.79974813838E+02 0.  0.
         -6    2    1    2    0  502 -0.10647750438E+02  0.12011649976E+02  0.70238529674E+03  0.72323021186E+03  0.17163676748E+03 0.  0.
        -24    2    5    5    0    0 -0.12575938046E+02 -0.53355562796E+02  0.53021028769E+03  0.53899418348E+03  0.79917522195E+02 0.  0.
          5    1    3    3  501    0 -0.26221837484E+02 -0.55358808311E+02 -0.22353214627E+02  0.65375367095E+02  0.47000000000E+01 0. -1.
        -11    1    4    4    0    0  0.44076374910E+02  0.40658194366E+02  0.64368688646E+02  0.87972402902E+02  0.00000000000E+00 0.  1.
         12    1    4    4    0    0 -0.72067869873E+01  0.26889639693E+01 -0.18749037122E+02  0.20265603838E+02  0.00000000000E+00 0. -1.
         -5    1    5    5    0  502  0.19281876075E+01  0.65367212772E+02  0.17217500905E+03  0.18423602838E+03  0.47000000000E+01 0.  1.
         11    1    6    6    0    0  0.17078160184E+02 -0.80732771836E+01  0.35754104462E+03  0.35803971840E+03  0.00000000000E+00 0. -1.
        -12    1    6    6    0    0 -0.29654098229E+02 -0.45282285613E+02  0.17266924307E+03  0.18095446508E+03  0.00000000000E+00 0.  1.
</event>
<event>
12    1  0.8406581E-002  0.3438823E+03  0.7818608E-02  0.1065204E+00
         21   -1    0    0  503  502  0.00000000000E+00  0.00000000000E+00  0.49515066676E+03  0.49515066676E+03  0.00000000000E+00 0.  1.
         21   -1    0    0  501  503 -0.00000000000E+00 -0.00000000000E+00 -0.35986667625E+03  0.35986667625E+03  0.00000000000E+00 0. -1.
          6    2    1    2  501    0 -0.27303445008E+03  0.11653486994E+03  0.31588006925E+03  0.46659744882E+03  0.17264059271E+03 0.  0.
         24    2    3    3    0    0 -0.19369079791E+03  0.85543029879E+01  0.19844712579E+03  0.28836219925E+03  0.78626935123E+02 0.  0.
         -6    2    1    2    0  502  0.27303445008E+03 -0.11653486994E+03 -0.18059607874E+03  0.38841989419E+03  0.17357097601E+03 0.  0.
        -24    2    5    5    0    0  0.17353002198E+03 -0.79816144815E+02 -0.38114518188E+02  0.21073342572E+03  0.80452313295E+02 0.  0.
          5    1    3    3  501    0 -0.79343652166E+02  0.10798056695E+03  0.11743294347E+03  0.17823524957E+03  0.47000000000E+01 0. -1.
        -11    1    4    4    0    0 -0.10317126588E+03  0.41301883603E+02  0.87264897752E+02  0.14129868390E+03  0.00000000000E+00 0.  1.
         12    1    4    4    0    0 -0.90519532027E+02 -0.32747580615E+02  0.11118222803E+03  0.14706351534E+03  0.00000000000E+00 0. -1.
         -5    1    5    5    0  502  0.99504428093E+02 -0.36718725123E+02 -0.14248156055E+03  0.17768646848E+03  0.47000000000E+01 0.  1.
         13    1    6    6    0    0  0.14407633976E+03 -0.26861985560E+02 -0.30004096650E+02  0.14959880937E+03  0.00000000000E+00 0. -1.
        -14    1    6    6    0    0  0.29453682219E+02 -0.52954159254E+02 -0.81104215377E+01  0.61134616348E+02  0.00000000000E+00 0.  1.
</event>
<event>
12    1  0.8406581E-002  0.2319713E+03  0.7818608E-02  0.1125264E+00
         21   -1    0    0  503  502  0.00000000000E+00  0.00000000000E+00  0.24848579167E+03  0.24848579167E+03  0.00000000000E+00 0.  1.
         21   -1    0    0  501  503 -0.00000000000E+00 -0.00000000000E+00 -0.34099987704E+03  0.34099987704E+03  0.00000000000E+00 0.  1.
          6    2    1    2  501    0 -0.14626900777E+03 -0.52507708266E+02 -0.22432656076E+03  0.32268008759E+03  0.17218696526E+03 0.  0.
         24    2    3    3    0    0 -0.16528177999E+03 -0.15827230242E+02 -0.20739868131E+03  0.27778480857E+03  0.81127177020E+02 0.  0.
         -6    2    1    2    0  502  0.14626900777E+03  0.52507708266E+02  0.13181247539E+03  0.26680558111E+03  0.17221790668E+03 0.  0.
        -24    2    5    5    0    0  0.14387584306E+03  0.71426647181E+01  0.47622896296E+02  0.17102620106E+03  0.78935070294E+02 0.  0.
          5    1    3    3  501    0  0.19012772223E+02 -0.36680478024E+02 -0.16927879449E+02  0.44895279020E+02  0.47000000000E+01 0. -1.
        -13    1    4    4    0    0 -0.12558668485E+03  0.23306324401E+02 -0.12851537336E+03  0.18119437452E+03  0.00000000000E+00 0.  1.
         14    1    4    4    0    0 -0.39695095143E+02 -0.39133554643E+02 -0.78883307950E+02  0.96590434053E+02  0.00000000000E+00 0. -1.
         -5    1    5    5    0  502  0.23931647052E+01  0.45365043548E+02  0.84189579096E+02  0.95779380045E+02  0.47000000000E+01 0.  1.
         11    1    6    6    0    0  0.19838885397E+01 -0.15990735519E+02 -0.65488916769E+01  0.17393315336E+02  0.00000000000E+00 0. -1.
        -12    1    6    6    0    0  0.14189195452E+03  0.23133400237E+02  0.54171787973E+02  0.15363288573E+03  0.00000000000E+00 0.  1.
</event>
<event>
12    1  0.8406581E-002  0.3087998E+03  0.7818608E-02  0.1080960E+00
         21   -1    0    0  503  502  0.00000000000E+00  0.00000000000E+00  0.10061641622E+03  0.10061641622E+03  0.00000000000E+00 0.  1.
         21   -1    0    0  501  503 -0.00000000000E+00 -0.00000000000E+00 -0.98917259951E+03  0.98917259951E+03  0.00000000000E+00 0. -1.
          6    2    1    2  501    0 -0.13227028839E+03 -0.21950025546E+03 -0.55728481024E+03  0.63712138219E+03  0.17228321041E+03 0.  0.
         24    2    3    3    0    0 -0.60303326985E+02 -0.16453235758E+03 -0.24341850892E+03  0.31041836961E+03  0.79997536014E+02 0.  0.
         -6    2    1    2    0  502  0.13227028839E+03  0.21950025546E+03 -0.33127137305E+03  0.45266763354E+03  0.17173081411E+03 0.  0.
        -24    2    5    5    0    0  0.10345122733E+03  0.15689933903E+03 -0.32443640270E+03  0.38325423542E+03  0.79405733714E+02 0.  0.
          5    1    3    3  501    0 -0.71966961404E+02 -0.54967897885E+02 -0.31386630131E+03  0.32670301259E+03  0.47000000000E+01 0. -1.
        -13    1    4    4    0    0 -0.40286080591E+02 -0.17418120178E+02 -0.48807159190E+02  0.65639149812E+02  0.00000000000E+00 0.  1.
         14    1    4    4    0    0 -0.20017246394E+02 -0.14711423740E+03 -0.19461134973E+03  0.24477921979E+03  0.00000000000E+00 0. -1.
         -5    1    5    5    0  502  0.28819061058E+02  0.62600916433E+02 -0.68349703465E+01  0.69413398117E+02  0.47000000000E+01 0.  1.
         11    1    6    6    0    0  0.52790266473E+02  0.98401736042E+02 -0.11645558757E+03  0.16134316771E+03  0.00000000000E+00 0. -1.
        -12    1    6    6    0    0  0.50660960858E+02  0.58497602985E+02 -0.20798081513E+03  0.22191106771E+03  0.00000000000E+00 0.  1.
</event>
<event>
12    1  0.8406581E-002  0.2279613E+03  0.7818608E-02  0.1128211E+00
         21   -1    0    0  501  502  0.00000000000E+00  0.00000000000E+00  0.11130796353E+04  0.11130796353E+04  0.00000000000E+00 0.  1.
         21   -1    0    0  502  503 -0.00000000000E+00 -0.00000000000E+00 -0.55190247592E+02  0.55190247592E+02  0.00000000000E+00 0.  1.
         -6    2    1    2    0  503  0.14086056120E+03 -0.48533883188E+02  0.76090195715E+03  0.79431615938E+03  0.17253735000E+03 0.  0.
        -24    2    3    3    0    0  0.82234032793E+02 -0.20582303911E+02  0.68068792040E+03  0.69099751485E+03  0.83399359496E+02 0.  0.
          6    2    1    2  501    0 -0.14086056120E+03  0.48533883188E+02  0.29698743053E+03  0.37395372348E+03  0.17158851329E+03 0.  0.
         24    2    5    5    0    0 -0.29115043066E+01  0.16235459806E+02  0.14378972445E+03  0.16523200061E+03  0.79712371406E+02 0.  0.
          5    1    5    5  501    0 -0.13794905689E+03  0.32298423382E+02  0.15319770608E+03  0.20872172287E+03  0.47000000000E+01 0. -1.
        -13    1    6    6    0    0 -0.39560944508E+02  0.15881286264E+02  0.58354911703E+02  0.72267415227E+02  0.00000000000E+00 0.  1.
         14    1    6    6    0    0  0.36649440202E+02  0.35417354168E+00  0.85434812744E+02  0.92964585379E+02  0.00000000000E+00 0. -1.
         -5    1    3    3    0  503  0.58626528404E+02 -0.27951579277E+02  0.80214036744E+02  0.10331864453E+03  0.47000000000E+01 0.  1.
         13    1    4    4    0    0  0.71518504163E+02 -0.46157066080E+02  0.59165182595E+03  0.59774346867E+03  0.00000000000E+00 0. -1.
        -14    1    4    4    0    0  0.10715528630E+02  0.25574762170E+02  0.89036094453E+02  0.93254046182E+02  0.00000000000E+00 0.  1.
</event>
<event>
12    1  0.8406581E-002  0.2264390E+03  0.7818608E-02  0.1129801E+00
         21   -1    0    0  503  502  0.00000000000E+00  0.00000000000E+00  0.13908143109E+03  0.13908143109E+03  0.00000000000E+00 0.  1.
         21   -1    0    0  501  503 -0.00000000000E+00 -0.00000000000E+00 -0.36440142007E+03  0.36440142007E+03  0.00000000000E+00 0.  1.
          6    2    1    2  501    0 -0.92468804003E+02 -0.11390814684E+03 -0.12899439622E+03  0.26060345965E+03  0.17247916771E+03 0.  0.
         24    2    3    3    0    0 -0.64979284193E+02 -0.57863428799E+02 -0.46179616172E+00  0.11763701814E+03  0.79169255489E+02 0.  0.
         -6    2    1    2    0  502  0.92468804003E+02  0.11390814684E+03 -0.96325592756E+02  0.24287939151E+03  0.16788756169E+03 0.  0.
        -24    2    5    5    0    0  0.53485508912E+02  0.11202621986E+03 -0.12546204127E+03  0.19394819923E+03  0.80402777231E+02 0.  0.
          5    1    3    3  501    0 -0.27489519809E+02 -0.56044718037E+02 -0.12853260006E+03  0.14296644151E+03  0.47000000000E+01 0. -1.
        -13    1    4    4    0    0 -0.67267228084E+02 -0.14802723372E+02 -0.17833431420E+02  0.71147957592E+02  0.00000000000E+00 0.  1.
         14    1    4    4    0    0  0.22879438907E+01 -0.43060705427E+02  0.17371635258E+02  0.46489060548E+02  0.00000000000E+00 0. -1.
         -5    1    5    5    0  502  0.38983295091E+02  0.18819269731E+01  0.29136448514E+02  0.48931192273E+02  0.47000000000E+01 0.  1.
         13    1    6    6    0    0  0.14329196742E+02  0.10185366346E+03 -0.66643089374E+02  0.12255935705E+03  0.00000000000E+00 0. -1.
        -14    1    6    6    0    0  0.39156312170E+02  0.10172556407E+02 -0.58818951896E+02  0.71388842187E+02  0.00000000000E+00 0.  1.
</event>
<event>
12    1  0.8406581E-002  0.2029764E+03  0.7818608E-02  0.1147633E+00
         21   -1    0    0  501  502  0.00000000000E+00  0.00000000000E+00  0.98890978417E+03  0.98890978417E+03  0.00000000000E+00 0. -1.
         21   -1    0    0  502  503 -0.00000000000E+00 -0.00000000000E+00 -0.49214102145E+02  0.49214102145E+02  0.00000000000E+00 0.  1.
         -6    2    1    2    0  503  0.21100483948E+02  0.10072752088E+03  0.25973319187E+03  0.32851243652E+03  0.17282310640E+03 0.  0.
        -24    2    3    3    0    0 -0.54959590503E+01  0.53832434550E+02  0.44555584048E+02  0.10663406261E+03  0.80358488439E+02 0.  0.
          6    2    1    2  501    0 -0.21100483948E+02 -0.10072752088E+03  0.67996249016E+03  0.70961144980E+03  0.17495187272E+03 0.  0.
         24    2    5    5    0    0  0.45004512276E+02 -0.94744813547E+02  0.51946877217E+03  0.53587030088E+03  0.79417808349E+02 0.  0.
          5    1    5    5  501    0 -0.66104996224E+02 -0.59827073343E+01  0.16049371799E+03  0.17374114892E+03  0.47000000000E+01 0. -1.
        -11    1    6    6    0    0 -0.10607014490E+02  0.39071991404E-01  0.15076825708E+03  0.15114091976E+03  0.00000000000E+00 0.  1.
         12    1    6    6    0    0  0.55611526766E+02 -0.94783885538E+02  0.36870051509E+03  0.38472938112E+03  0.00000000000E+00 0. -1.
         -5    1    3    3    0  503  0.26596442998E+02  0.46895086331E+02  0.21517760782E+03  0.22187837391E+03  0.47000000000E+01 0.  1.
         13    1    4    4    0    0  0.11350767929E+01  0.49041506943E+02  0.66832127480E+02  0.82902901433E+02  0.00000000000E+00 0. -1.
        -14    1    4    4    0    0 -0.66310358432E+01  0.47909276075E+01 -0.22276543432E+02  0.23731161181E+02  0.00000000000E+00 0.  1.
</event>
<event>
12    1  0.8406581E-002  0.2034034E+03  0.7818608E-02  0.1147670E+00
         21   -1    0    0  503  502  0.00000000000E+00  0.00000000000E+00  0.92201021059E+03  0.92201021059E+03  0.00000000000E+00 0.  1.
         21   -1    0    0  501  503 -0.00000000000E+00 -0.00000000000E+00 -0.11006418651E+03  0.11006418651E+03  0.00000000000E+00 0.  1.
          6    2    1    2  501    0  0.10619696183E+03  0.21630782021E+02  0.78544599715E+01  0.20355500557E+03  0.17212571660E+03 0.  0.
         24    2    3    3    0    0  0.10644863996E+03 -0.41705574623E+02  0.54536756618E+01  0.13999864333E+03  0.80617675810E+02 0.  0.
         -6    2    1    2    0  502 -0.10619696183E+03 -0.21630782021E+02  0.80409156411E+03  0.82851939153E+03  0.16773626098E+03 0.  0.
        -24    2    5    5    0    0 -0.52651198147E+02 -0.76340610055E+02  0.52967999860E+03  0.54359113499E+03  0.79563708536E+02 0.  0.
          5    1    3    3  501    0 -0.25167812890E+00  0.63336356644E+02  0.24007843097E+01  0.63556362231E+02  0.47000000000E+01 0. -1.
        -11    1    4    4    0    0  0.89068390483E+02 -0.27410768488E+02 -0.30091578067E+02  0.97928706122E+02  0.00000000000E+00 0.  1.
         12    1    4    4    0    0  0.17380249479E+02 -0.14294806135E+02  0.35545253729E+02  0.42069937212E+02  0.00000000000E+00 0. -1.
         -5    1    5    5    0  502 -0.53545763686E+02  0.54709828034E+02  0.27441156551E+03  0.28492825654E+03  0.47000000000E+01 0.  1.
         13    1    6    6    0    0  0.20265096939E+02 -0.26089457203E+02  0.16905773158E+03  0.17225519016E+03  0.00000000000E+00 0. -1.
        -14    1    6    6    0    0 -0.72916295086E+02 -0.50251152852E+02  0.36062226702E+03  0.37133594483E+03  0.00000000000E+00 0.  1.
</event>
<event>
12    1  0.8406581E-002  0.1932330E+03  0.7818608E-02  0.1155877E+00
         21   -1    0    0  503  502  0.00000000000E+00  0.00000000000E+00  0.11161619299E+03  0.11161619299E+03  0.00000000000E+00 0. -1.
         21   -1    0    0  501  503 -0.00000000000E+00 -0.00000000000E+00 -0.69177643997E+03  0.69177643997E+03  0.00000000000E+00 0. -1.
          6    2    1    2  501    0  0.44448615384E+02 -0.72246538031E+02 -0.58017888898E+03  0.61151166490E+03  0.17361950185E+03 0.  0.
         24    2    3    3    0    0 -0.81772514410E+01 -0.10386774414E+03 -0.36976721543E+03  0.39227538847E+03  0.79352448498E+02 0.  0.
         -6    2    1    2    0  502 -0.44448615384E+02  0.72246538031E+02  0.18642002902E-01  0.19188096805E+03  0.17211352035E+03 0.  0.
        -24    2    5    5    0    0 -0.90543542671E+02  0.46810745269E+02 -0.27256414145E+02  0.13240205950E+03  0.79987588133E+02 0.  0.
          5    1    3    3  501    0  0.52625866825E+02  0.31621206107E+02 -0.21041167356E+03  0.21923627643E+03  0.47000000000E+01 0. -1.
        -11    1    4    4    0    0 -0.24115237436E+02 -0.51545672259E+02 -0.29016718499E+03  0.29569493781E+03  0.00000000000E+00 0.  1.
         12    1    4    4    0    0  0.15937985995E+02 -0.52322071879E+02 -0.79600030438E+02  0.96580450656E+02  0.00000000000E+00 0. -1.
         -5    1    5    5    0  502  0.46094927287E+02  0.25435792762E+02  0.27275056148E+02  0.59478908555E+02  0.47000000000E+01 0.  1.
         11    1    6    6    0    0 -0.39419811900E+02  0.63759603117E+02 -0.22828376026E+02  0.78360342724E+02  0.00000000000E+00 0. -1.
        -12    1    6    6    0    0 -0.51123730772E+02 -0.16948857848E+02 -0.44280381193E+01  0.54041716775E+02  0.00000000000E+00 0.  1.
</event>
<event>
12    1  0.8406581E-002  0.1781822E+03  0.7818608E-02  0.1170082E+00
         21   -1    0    0  501  502  0.00000000000E+00  0.00000000000E+00  0.99614699615E+02  0.99614699615E+02  0.00000000000E+00 0. -1.
         21   -1    0    0  502  503 -0.00000000000E+00 -0.00000000000E+00 -0.37137331855E+03  0.37137331855E+03  0.00000000000E+00 0. -1.
         -6    2    1    2    0  503 -0.16332578152E+01 -0.35106397943E+02 -0.22692319561E+03  0.28725148112E+03  0.17258085060E+03 0.  0.
        -24    2    3    3    0    0 -0.42256166591E+02 -0.61415198213E+02 -0.21106470814E+03  0.23610507055E+03  0.75099155342E+02 0.  0.
          6    2    1    2  501    0  0.16332578152E+01  0.35106397943E+02 -0.44835423328E+02  0.18373653705E+03  0.17468191994E+03 0.  0.
         24    2    5    5    0    0 -0.62796519134E+02  0.49857105965E+02 -0.19735588831E+02  0.11287843069E+03  0.76960462691E+02 0.  0.
          5    1    5    5  501    0  0.64429776949E+02 -0.14750708022E+02 -0.25099834498E+02  0.70858106358E+02  0.47000000000E+01 0. -1.
        -13    1    6    6    0    0 -0.45447250080E+02 -0.46085896218E+01  0.12358837684E+02  0.47322642647E+02  0.00000000000E+00 0.  1.
         14    1    6    6    0    0 -0.17349269054E+02  0.54465695587E+02 -0.32094426515E+02  0.65555788042E+02  0.00000000000E+00 0. -1.
         -5    1    3    3    0  503  0.40622908775E+02  0.26308800270E+02 -0.15858487471E+02  0.51146410567E+02  0.47000000000E+01 0.  1.
         11    1    4    4    0    0 -0.12548935702E+02 -0.51563479637E+02 -0.19257508204E+03  0.19975342411E+03  0.00000000000E+00 0. -1.
        -12    1    4    4    0    0 -0.29707230888E+02 -0.98517185761E+01 -0.18489626092E+02  0.36351646441E+02  0.00000000000E+00 0.  1.
</event>
<event>
12    1  0.8406581E-002  0.1861114E+03  0.7818608E-02  0.1162380E+00
         21   -1    0    0  501  502  0.00000000000E+00  0.00000000000E+00  0.16600256555E+03  0.16600256555E+03  0.00000000000E+00 0.  1.
         21   -1    0    0  502  503 -0.00000000000E+00 -0.00000000000E+00 -0.20853288144E+03  0.20853288144E+03  0.00000000000E+00 0.  1.
         -6    2    1    2    0  503  0.60571174928E+02 -0.25781340484E+02 -0.37714031889E+02  0.18836173273E+03  0.17240721971E+03 0.  0.
        -24    2    3    3    0    0 -0.67659012649E+01 -0.70259781615E+02 -0.48511631600E+01  0.10109964648E+03  0.72217659906E+02 0.  0.
          6    2    1    2  501    0 -0.60571174928E+02  0.25781340484E+02 -0.48162839981E+01  0.18617371426E+03  0.17408018422E+03 0.  0.
         24    2    5    5    0    0 -0.45411490433E+02  0.71229270076E+02 -0.43852000555E+02  0.12419623847E+03  0.79786561008E+02 0.  0.
          5    1    5    5  501    0 -0.15159684496E+02 -0.45447929592E+02  0.39035716557E+02  0.61977475791E+02  0.47000000000E+01 0. -1.
        -11    1    6    6    0    0 -0.10593697892E+02 -0.13256491036E+02 -0.26065041345E+02  0.31102208441E+02  0.00000000000E+00 0.  1.
         12    1    6    6    0    0 -0.34817792541E+02  0.84485761113E+02 -0.17786959210E+02  0.93094030024E+02  0.00000000000E+00 0. -1.
         -5    1    3    3    0  503  0.67337076193E+02  0.44478441131E+02 -0.32862868729E+02  0.87262086250E+02  0.47000000000E+01 0.  1.
         13    1    4    4    0    0 -0.18045105314E+02 -0.66781296329E+02 -0.28383575154E+02  0.74772954360E+02  0.00000000000E+00 0. -1.
        -14    1    4    4    0    0  0.11279204049E+02 -0.34784852859E+01  0.23532411994E+02  0.26326692123E+02  0.00000000000E+00 0.  1.
</event>
<event>
12    1  0.8406581E-002  0.2033359E+03  0.7818608E-02  0.1148425E+00
         21   -1    0    0  501  502  0.00000000000E+00  0.00000000000E+00  0.26166642569E+04  0.26166642569E+04  0.00000000000E+00 0. -1.
         21   -1    0    0  502  503 -0.00000000000E+00 -0.00000000000E+00 -0.18979825610E+02  0.18979825610E+02  0.00000000000E+00 0.  1.
         -6    2    1    2    0  503  0.10642069732E+03 -0.14279646100E+02  0.73395723003E+03  0.76160270839E+03  0.17267367144E+03 0.  0.
        -24    2    3    3    0    0  0.12944043003E+03 -0.67479134103E+01  0.41984083125E+03  0.44651885118E+03  0.79450623771E+02 0.  0.
          6    2    1    2  501    0 -0.10642069732E+03  0.14279646100E+02  0.18637272013E+04  0.18740413741E+04  0.16438588161E+03 0.  0.
         24    2    5    5    0    0 -0.18744573474E+01  0.13340217737E+02  0.11308187941E+04  0.11336984656E+04  0.79621548259E+02 0.  0.
          5    1    5    5  501    0 -0.10454623997E+03  0.93942836269E+00  0.73290840719E+03  0.74034290849E+03  0.47000000000E+01 0. -1.
        -13    1    6    6    0    0 -0.20195723389E+02  0.27390697517E+02  0.22260686502E+03  0.22519310360E+03  0.00000000000E+00 0.  1.
         14    1    6    6    0    0  0.18321266041E+02 -0.14050479779E+02  0.90821192906E+03  0.90850536204E+03  0.00000000000E+00 0. -1.
         -5    1    3    3    0  503 -0.23019732705E+02 -0.75317326899E+01  0.31411639878E+03  0.31508385721E+03  0.47000000000E+01 0.  1.
         11    1    4    4    0    0  0.83298934447E+02 -0.37507385294E+02  0.31415249028E+03  0.32716555989E+03  0.00000000000E+00 0. -1.
        -12    1    4    4    0    0  0.46141495580E+02  0.30759471884E+02  0.10568834097E+03  0.11935329129E+03  0.00000000000E+00 0.  1.
</event>
<event>
12    1  0.8406581E-002  0.1905866E+03  0.7818608E-02  0.1158914E+00
         21   -1    0    0  503  502  0.00000000000E+00  0.00000000000E+00  0.16022482751E+03  0.16022482751E+03  0.00000000000E+00 0.  1.
         21   -1    0    0  501  503 -0.00000000000E+00 -0.00000000000E+00 -0.25891766687E+03  0.25891766687E+03  0.00000000000E+00 0.  1.
          6    2    1    2  501    0 -0.79246097529E+02  0.24202191497E+02 -0.12938855034E+03  0.23035762571E+03  0.17163201543E+03 0.  0.
         24    2    3    3    0    0 -0.72850643240E+02 -0.27963855202E+02 -0.14282443639E+03  0.17590754493E+03  0.66749167138E+02 0.  0.
         -6    2    1    2    0  502  0.79246097529E+02 -0.24202191497E+02  0.30695710971E+02  0.18878486867E+03  0.16682868434E+03 0.  0.
        -24    2    5    5    0    0  0.44284992610E+02  0.25181693523E+02  0.68755414706E+02  0.11714913732E+03  0.80008343719E+02 0.  0.
          5    1    3    3  501    0 -0.63954542894E+01  0.52166046698E+02  0.13435886053E+02  0.54450080787E+02  0.47000000000E+01 0. -1.
        -13    1    4    4    0    0 -0.76178126464E+02 -0.10015698052E+02 -0.81863192383E+02  0.11227200642E+03  0.00000000000E+00 0.  1.
         14    1    4    4    0    0  0.33274832247E+01 -0.17948157149E+02 -0.60961244008E+02  0.63635538504E+02  0.00000000000E+00 0. -1.
         -5    1    5    5    0  502  0.34961104919E+02 -0.49383885020E+02 -0.38059703734E+02  0.71635731344E+02  0.47000000000E+01 0.  1.
         11    1    6    6    0    0  0.16207563889E+01 -0.27199597704E+02  0.21407422076E+02  0.34651445662E+02  0.00000000000E+00 0. -1.
        -12    1    6    6    0    0  0.42664236221E+02  0.52381291228E+02  0.47347992630E+02  0.82497691659E+02  0.00000000000E+00 0.  1.
</event>
<event>
12    1  0.8406581E-002  0.6276328E+03  0.7818608E-02  0.9850858E-01
         21   -1    0    0  501  502  0.00000000000E+00  0.00000000000E+00  0.23918019306E+03  0.23918019306E+03  0.00000000000E+00 0.  1.
         21   -1    0    0  502  503 -0.00000000000E+00 -0.00000000000E+00 -0.16429028534E+04  0.16429028534E+04  0.00000000000E+00 0. -1.
         -6    2    1    2    0  503  0.59562083322E+03  0.96606151465E+02 -0.73782119277E+03  0.96866045867E+03  0.17270218940E+03 0.  0.
        -24    2    3    3    0    0  0.32254059854E+03  0.84999982050E+02 -0.49844456233E+03  0.60530006052E+03  0.81754185802E+02 0.  0.
          6    2    1    2  501    0 -0.59562083322E+03 -0.96606151465E+02 -0.66590146759E+03  0.91342258782E+03  0.16376548458E+03 0.  0.
         24    2    5    5    0    0 -0.30276105732E+03 -0.96108446663E+02 -0.40769519847E+03  0.52296175309E+03  0.79828121535E+02 0.  0.
          5    1    5    5  501    0 -0.29285977589E+03 -0.49770480253E+00 -0.25820626912E+03  0.39046083473E+03  0.47000000000E+01 0. -1.
        -11    1    6    6    0    0 -0.20239906924E+03 -0.51046954221E+02 -0.20631865024E+03  0.29349371407E+03  0.00000000000E+00 0.  1.
         12    1    6    6    0    0 -0.10036198809E+03 -0.45061492442E+02 -0.20137654823E+03  0.22946803902E+03  0.00000000000E+00 0. -1.
         -5    1    3    3    0  503  0.27308023468E+03  0.11606169415E+02 -0.23937663044E+03  0.36336039815E+03  0.47000000000E+01 0.  1.
         11    1    4    4    0    0  0.23555641856E+03  0.24832556630E+02 -0.36319900307E+03  0.43360926884E+03  0.00000000000E+00 0. -1.
        -12    1    4    4    0    0  0.86984179971E+02  0.60167425419E+02 -0.13524555926E+03  0.17169079168E+03  0.00000000000E+00 0.  1.
</event>
<event>
12    1  0.8406581E-002  0.2023158E+03  0.7818608E-02  0.1148088E+00
         21   -1    0    0  503  502  0.00000000000E+00  0.00000000000E+00  0.10366722440E+03  0.10366722440E+03  0.00000000000E+00 0. -1.
         21   -1    0    0  501  503 -0.00000000000E+00 -0.00000000000E+00 -0.11416930176E+04  0.11416930176E+04  0.00000000000E+00 0.  1.
          6    2    1    2  501    0 -0.63856373273E+02 -0.83929488464E+02 -0.10241587393E+04  0.10439505794E+04  0.17265541806E+03 0.  0.
         24    2    3    3    0    0 -0.28772579948E+01 -0.80504372167E+02 -0.36463318207E+03  0.38158645399E+03  0.78496062619E+02 0.  0.
         -6    2    1    2    0  502  0.63856373273E+02  0.83929488464E+02 -0.13867053858E+02  0.20140966262E+03  0.17103146369E+03 0.  0.
        -24    2    5    5    0    0 -0.34164816491E+02  0.33211413474E+02 -0.72146137979E+01  0.90744303395E+02  0.76891126118E+02 0.  0.
          5    1    3    3  501    0 -0.60979115279E+02 -0.34251162964E+01 -0.65952555725E+03  0.66236412538E+03  0.47000000000E+01 0. -1.
        -13    1    4    4    0    0  0.18629582335E+02 -0.86290227568E+01 -0.19531689249E+03  0.19639299851E+03  0.00000000000E+00 0.  1.
         14    1    4    4    0    0 -0.21506840330E+02 -0.71875349411E+02 -0.16931628959E+03  0.18519345548E+03  0.00000000000E+00 0. -1.
         -5    1    5    5    0  502  0.98021189764E+02  0.50718074990E+02 -0.66524400604E+01  0.11066535922E+03  0.47000000000E+01 0.  1.
         13    1    6    6    0    0  0.19745622668E+02  0.22877693442E+02 -0.17463992925E+02  0.34903717863E+02  0.00000000000E+00 0. -1.
        -14    1    6    6    0    0 -0.53910439159E+02  0.10333720032E+02  0.10249379127E+02  0.55840585532E+02  0.00000000000E+00 0.  1.
</event>
<event>
12    1  0.8406581E-002  0.1753353E+03  0.7818608E-02  0.1173286E+00
         21   -1    0    0  503  502  0.00000000000E+00  0.00000000000E+00  0.40760517369E+02  0.40760517369E+02  0.00000000000E+00 0.  1.
         21   -1    0    0  501  503 -0.00000000000E+00 -0.00000000000E+00 -0.81570656698E+03  0.81570656698E+03  0.00000000000E+00 0.  1.
          6    2    1    2  501    0 -0.33095832461E+02  0.57840841246E+01 -0.25274357828E+03  0.30561511822E+03  0.16850072512E+03 0.  0.
         24    2    3    3    0    0 -0.67527781684E+02  0.44705651879E+02 -0.13271754797E+03  0.17473813202E+03  0.79755066513E+02 0.  0.
         -6    2    1    2    0  502  0.33095832461E+02 -0.57840841246E+01 -0.52220247133E+03  0.55085196613E+03  0.17208625096E+03 0.  0.
        -24    2    5    5    0    0  0.68513479650E+02  0.41809356818E+02 -0.39532525930E+03  0.41071110026E+03  0.77197331737E+02 0.  0.
          5    1    3    3  501    0  0.34431949223E+02 -0.38921567754E+02 -0.12002603031E+03  0.13087698620E+03  0.47000000000E+01 0. -1.
        -13    1    4    4    0    0  0.10386672186E+02  0.40307073053E+00  0.41021457261E+01  0.11174659935E+02  0.00000000000E+00 0.  1.
         14    1    4    4    0    0 -0.77914453870E+02  0.44302581148E+02 -0.13681969370E+03  0.16356347209E+03  0.00000000000E+00 0. -1.
         -5    1    5    5    0  502 -0.35417647189E+02 -0.47593440943E+02 -0.12687721203E+03  0.14014086587E+03  0.47000000000E+01 0.  1.
         13    1    6    6    0    0  0.27057266086E+02  0.30860844858E+02 -0.60234130486E+02  0.72887844451E+02  0.00000000000E+00 0. -1.
        -14    1    6    6    0    0  0.41456213564E+02  0.10948511960E+02 -0.33509112881E+03  0.33782325581E+03  0.00000000000E+00 0.  1.
</event>
<event>
12    1  0.8406581E-002  0.1994108E+03  0.7818608E-02  0.1150242E+00
         21   -1    0    0  503  502  0.00000000000E+00  0.00000000000E+00  0.30086400437E+03  0.30086400437E+03  0.00000000000E+00 0.  1.
         21   -1    0    0  501  503 -0.00000000000E+00 -0.00000000000E+00 -0.13762683251E+03  0.13762683251E+03  0.00000000000E+00 0. -1.
          6    2    1    2  501    0 -0.69036978056E+02 -0.74325932868E+02  0.37898857746E+02  0.20298026902E+03  0.17168056837E+03 0.  0.
         24    2    3    3    0    0 -0.29456167572E+02 -0.12088909572E+03  0.39203804893E+02  0.14167316029E+03  0.55249495546E+02 0.  0.
         -6    2    1    2    0  502  0.69036978056E+02  0.74325932868E+02  0.12533831411E+03  0.23551056786E+03  0.17165397157E+03 0.  0.
        -24    2    5    5    0    0  0.13270780202E+02 -0.23119577125E+02  0.48161769967E+02  0.99188136814E+02  0.82511223144E+02 0.  0.
          5    1    3    3  501    0 -0.39580810484E+02  0.46563162849E+02 -0.13049471470E+01  0.61307108725E+02  0.47000000000E+01 0. -1.
        -13    1    4    4    0    0 -0.30137936202E+02 -0.22174203958E+02  0.10125111077E+02  0.38762203163E+02  0.00000000000E+00 0.  1.
         14    1    4    4    0    0  0.68176862996E+00 -0.98714891760E+02  0.29078693816E+02  0.10291095713E+03  0.00000000000E+00 0. -1.
         -5    1    5    5    0  502  0.55766197854E+02  0.97445509993E+02  0.77176544145E+02  0.13632243105E+03  0.47000000000E+01 0.  1.
         11    1    6    6    0    0 -0.33802727478E+02 -0.13183367427E+02  0.96014643891E+01  0.37531502502E+02  0.00000000000E+00 0. -1.
        -12    1    6    6    0    0  0.47073507680E+02 -0.99362096979E+01  0.38560305578E+02  0.61656634312E+02  0.00000000000E+00 0.  1.
</event>
<event>
12    1  0.8406581E-002  0.1782393E+03  0.7818608E-02  0.1170201E+00
         21   -1    0    0  501  502  0.00000000000E+00  0.00000000000E+00  0.33038271760E+02  0.33038271760E+02  0.00000000000E+00 0.  1.
         21   -1    0    0  502  503 -0.00000000000E+00 -0.00000000000E+00 -0.98053234598E+03  0.98053234598E+03  0.00000000000E+00 0.  1.
         -6    2    1    2    0  503 -0.41521363929E+02 -0.56938589613E+01 -0.56425173537E+03  0.59090771407E+03  0.17039795182E+03 0.  0.
        -24    2    3    3    0    0 -0.22457689777E+02  0.84263722580E+01 -0.11414080282E+03  0.14014752705E+03  0.77703634983E+02 0.  0.
          6    2    1    2  501    0  0.41521363929E+02  0.56938589613E+01 -0.38324233885E+03  0.42266290367E+03  0.17324201615E+03 0.  0.
         24    2    5    5    0    0  0.66795877744E+01 -0.32177171766E+01 -0.71470394807E+02  0.10878840543E+03  0.81681878195E+02 0.  0.
          5    1    5    5  501    0  0.34841776154E+02  0.89115761379E+01 -0.31177194404E+03  0.31387449824E+03  0.47000000000E+01 0. -1.
        -13    1    6    6    0    0  0.41395370158E+02 -0.97288596016E+00 -0.18350730102E+02  0.45290975623E+02  0.00000000000E+00 0.  1.
         14    1    6    6    0    0 -0.34715782383E+02 -0.22448312164E+01 -0.53119664706E+02  0.63497429807E+02  0.00000000000E+00 0. -1.
         -5    1    3    3    0  503 -0.19063674152E+02 -0.14120231219E+02 -0.45011093255E+03  0.45076018702E+03  0.47000000000E+01 0.  1.
         11    1    4    4    0    0  0.17944538506E+02 -0.65634910515E+01 -0.10631008999E+01  0.19136772468E+02  0.00000000000E+00 0. -1.
        -12    1    4    4    0    0 -0.40402228282E+02  0.14989863310E+02 -0.11307770192E+03  0.12101075458E+03  0.00000000000E+00 0.  1.
</event>
<event>
12    1  0.8406581E-002  0.1860055E+03  0.7818608E-02  0.1162123E+00
         21   -1    0    0  503  502  0.00000000000E+00  0.00000000000E+00  0.44563588430E+02  0.44563588430E+02  0.00000000000E+00 0.  1.
         21   -1    0    0  501  503 -0.00000000000E+00 -0.00000000000E+00 -0.10125263255E+04  0.10125263255E+04  0.00000000000E+00 0. -1.
          6    2    1    2  501    0  0.66803411603E+02  0.24016703070E+02 -0.22867849984E+03  0.29477434630E+03  0.17192603386E+03 0.  0.
         24    2    3    3    0    0  0.32733752339E+02 -0.38014143579E+02 -0.19063658000E+03  0.21428928381E+03  0.84029862944E+02 0.  0.
         -6    2    1    2    0  502 -0.66803411603E+02 -0.24016703070E+02 -0.73928423725E+03  0.76231556765E+03  0.17188468056E+03 0.  0.
        -24    2    5    5    0    0 -0.11055226306E+03 -0.31110806895E+02 -0.64475631326E+03  0.65780764103E+03  0.61729279376E+02 0.  0.
          5    1    3    3  501    0  0.34069659265E+02  0.62030846649E+02 -0.38041919834E+02  0.80485062484E+02  0.47000000000E+01 0. -1.
        -11    1    4    4    0    0  0.44729130976E+02 -0.55806620174E+02 -0.17037169073E+03  0.18477442197E+03  0.00000000000E+00 0.  1.
         12    1    4    4    0    0 -0.11995378637E+02  0.17792476595E+02 -0.20264889272E+02  0.29514861836E+02  0.00000000000E+00 0. -1.
         -5    1    5    5    0  502  0.43748851461E+02  0.70941038247E+01 -0.94527923987E+02  0.10450792662E+03  0.47000000000E+01 0.  1.
         11    1    6    6    0    0  0.70808606604E+01  0.27806356858E+01 -0.27722580273E+02  0.28747382133E+02  0.00000000000E+00 0. -1.
        -12    1    6    6    0    0 -0.11763312373E+03 -0.33891442581E+02 -0.61703373299E+03  0.62906025890E+03  0.00000000000E+00 0.  1.
</event>
<event>
12    1  0.8406581E-002  0.2685333E+03  0.7818608E-02  0.1102288E+00
         21   -1    0    0  501  502  0.00000000000E+00  0.00000000000E+00  0.12773924201E+03  0.12773924201E+03  0.00000000000E+00 0.  1.
         21   -1    0    0  502  503 -0.00000000000E+00 -0.00000000000E+00 -0.56334368758E+03  0.56334368758E+03  0.00000000000E+00 0. -1.
         -6    2    1    2    0  503  0.18728073999E+03 -0.86757885380E+02 -0.20199780401E+03  0.33602568752E+03  0.17178225637E+03 0.  0.
        -24    2    3    3    0    0  0.15437759548E+03 -0.88600122586E+02 -0.81590543896E+02  0.21110167444E+03  0.78895350879E+02 0.  0.
          6    2    1    2  501    0 -0.18728073999E+03  0.86757885380E+02 -0.23360664156E+03  0.35505724206E+03  0.16997816305E+03 0.  0.
         24    2    5    5    0    0 -0.52249518565E+02  0.76097020092E+01 -0.42543094548E+02  0.10802438051E+03  0.84091807781E+02 0.  0.
          5    1    5    5  501    0 -0.13503122142E+03  0.79148183371E+02 -0.19106354701E+03  0.24703286155E+03  0.47000000000E+01 0. -1.
        -13    1    6    6    0    0  0.51600610509E+01 -0.92202409663E+01 -0.46866458380E+02  0.48042730923E+02  0.00000000000E+00 0.  1.
         14    1    6    6    0    0 -0.57409579616E+02  0.16829942976E+02  0.43233638319E+01  0.59981649586E+02  0.00000000000E+00 0. -1.
         -5    1    3    3    0  503  0.32903144508E+02  0.18422372054E+01 -0.12040726011E+03  0.12492401308E+03  0.47000000000E+01 0.  1.
         13    1    4    4    0    0  0.14369022777E+03 -0.58241147021E+02 -0.43092152662E+02  0.16092186422E+03  0.00000000000E+00 0. -1.
        -14    1    4    4    0    0  0.10687367704E+02 -0.30358975565E+02 -0.38498391234E+02  0.50179810217E+02  0.00000000000E+00 0.  1.
</event>
<event>
12    1  0.8406581E-002  0.1810070E+03  0.7818608E-02  0.1168579E+00
         21   -1    0    0  501  502  0.00000000000E+00  0.00000000000E+00  0.12164830104E+03  0.12164830104E+03  0.00000000000E+00 0.  1.
         21   -1    0    0  502  503 -0.00000000000E+00 -0.00000000000E+00 -0.47269072218E+03  0.47269072218E+03  0.00000000000E+00 0.  1.
         -6    2    1    2    0  503  0.29713414064E+02 -0.33726615266E+02 -0.37730829077E+03  0.41847948691E+03  0.17533728390E+03 0.  0.
        -24    2    3    3    0    0 -0.39339880180E+02 -0.10267075305E+02 -0.11390879808E+03  0.14512972888E+03  0.80214617859E+02 0.  0.
          6    2    1    2  501    0 -0.29713414064E+02  0.33726615266E+02  0.26265869623E+02  0.17585953631E+03  0.16797710872E+03 0.  0.
         24    2    5    5    0    0  0.85878183605E+01  0.77614759141E+02 -0.71324787731E+00  0.11149249227E+03  0.79575534234E+02 0.  0.
          5    1    5    5  501    0 -0.38301232425E+02 -0.43888143875E+02  0.26979117500E+02  0.64367044046E+02  0.47000000000E+01 0. -1.
        -11    1    6    6    0    0 -0.16314966308E+02  0.83841189729E+02  0.34709365070E+01  0.85484329681E+02  0.00000000000E+00 0.  1.
         12    1    6    6    0    0  0.24902784669E+02 -0.62264305875E+01 -0.41841843844E+01  0.26008162586E+02  0.00000000000E+00 0. -1.
         -5    1    3    3    0  503  0.69053294244E+02 -0.23459539961E+02 -0.26339949269E+03  0.27334975803E+03  0.47000000000E+01 0.  1.
         11    1    4    4    0    0 -0.10366493385E+02  0.21198594953E+02 -0.95830304815E+02  0.98692917345E+02  0.00000000000E+00 0. -1.
        -12    1    4    4    0    0 -0.28973386795E+02 -0.31465670258E+02 -0.18078493261E+02  0.46436811537E+02  0.00000000000E+00 0.  1.
</event>
<event>
12    1  0.8406581E-002  0.1867498E+03  0.7818608E-02  0.1161475E+00
         21   -1    0    0  501  502  0.00000000000E+00  0.00000000000E+00  0.17207769959E+03  0.17207769959E+03  0.00000000000E+00 0.  1.
         21   -1    0    0  502  503 -0.00000000000E+00 -0.00000000000E+00 -0.58362696958E+03  0.58362696958E+03  0.00000000000E+00 0.  1.
         -6    2    1    2    0  503 -0.21339742705E+02 -0.69424830573E+02 -0.51110121477E+03  0.54407749916E+03  0.17181583639E+03 0.  0.
        -24    2    3    3    0    0  0.44079730790E+02 -0.63222902236E+02 -0.22922805799E+03  0.25460774610E+03  0.79620624006E+02 0.  0.
          6    2    1    2  501    0  0.21339742705E+02  0.69424830573E+02  0.99551944786E+02  0.21162717001E+03  0.17204731227E+03 0.  0.
         24    2    5    5    0    0 -0.47654200448E+02  0.34844129227E+02  0.21764890293E+02  0.10195080545E+03  0.80219823736E+02 0.  0.
          5    1    5    5  501    0  0.68993943154E+02  0.34580701346E+02  0.77787054493E+02  0.10967636456E+03  0.47000000000E+01 0. -1.
        -13    1    6    6    0    0 -0.27842075117E+02  0.37639375407E+02  0.49251514043E+02  0.67953037926E+02  0.00000000000E+00 0.  1.
         14    1    6    6    0    0 -0.19812125331E+02 -0.27952461803E+01 -0.27486623750E+02  0.33997767523E+02  0.00000000000E+00 0. -1.
         -5    1    3    3    0  503 -0.65419473495E+02 -0.62019283368E+01 -0.28187315678E+03  0.28946975306E+03  0.47000000000E+01 0.  1.
         13    1    4    4    0    0  0.31983650594E+02 -0.24892719384E+02 -0.27652112908E+02  0.49063639612E+02  0.00000000000E+00 0. -1.
        -14    1    4    4    0    0  0.12096080196E+02 -0.38330182851E+02 -0.20157594509E+03  0.20554410649E+03  0.00000000000E+00 0.  1.
</event>
<event>
12    1  0.8406581E-002  0.2094704E+03  0.7818608E-02  0.1142147E+00
         21   -1    0    0  503  502  0.00000000000E+00  0.00000000000E+00  0.22542808545E+02  0.22542808545E+02  0.00000000000E+00 0. -1.
         21   -1    0    0  501  503 -0.00000000000E+00 -0.00000000000E+00 -0.19408031918E+04  0.19408031918E+04  0.00000000000E+00 0.  1.
          6    2    1    2  501    0  0.10133826747E+03  0.62821196686E+02 -0.98778449709E+03  0.10095833329E+04  0.17124352897E+03 0.  0.
         24    2    3    3    0    0  0.12002591654E+03  0.98342837289E+00 -0.66109702231E+03  0.67653688872E+03  0.79029748291E+02 0.  0.
         -6    2    1    2    0  502 -0.10133826747E+03 -0.62821196686E+02 -0.93047588614E+03  0.95376266740E+03  0.17222631573E+03 0.  0.
        -24    2    5    5    0    0 -0.32293454343E+02 -0.10781006368E+02 -0.20511225047E+03  0.22324924413E+03  0.81302474864E+02 0.  0.
          5    1    3    3  501    0 -0.18687649080E+02  0.61837768313E+02 -0.32668747478E+03  0.33304644421E+03  0.47000000000E+01 0. -1.
        -11    1    4    4    0    0  0.16954632389E+02 -0.32788713106E+01 -0.31299326684E+03  0.31346928980E+03  0.00000000000E+00 0.  1.
         12    1    4    4    0    0  0.10307128416E+03  0.42622996835E+01 -0.34810375547E+03  0.36306759892E+03  0.00000000000E+00 0. -1.
         -5    1    5    5    0  502 -0.69044813122E+02 -0.52040190318E+02 -0.72536363567E+03  0.73051342327E+03  0.47000000000E+01 0.  1.
         11    1    6    6    0    0 -0.41765698573E+02 -0.39424599970E+02 -0.12235566046E+03  0.13516501140E+03  0.00000000000E+00 0. -1.
        -12    1    6    6    0    0  0.94722442300E+01  0.28643593602E+02 -0.82756590009E+02  0.88084232728E+02  0.00000000000E+00 0.  1.
</event>
<event>
12    1  0.8406581E-002  0.1819221E+03  0.7818608E-02  0.1166012E+00
         21   -1    0    0  501  502  0.00000000000E+00  0.00000000000E+00  0.57984204270E+03  0.57984204270E+03  0.00000000000E+00 0.  1.
         21   -1    0    0  502  503 -0.00000000000E+00 -0.00000000000E+00 -0.18060904407E+03  0.18060904407E+03  0.00000000000E+00 0.  1.
         -6    2    1    2    0  503  0.22170875693E+02  0.55743798851E+02 -0.11497598175E+03  0.21500949638E+03  0.17149544692E+03 0.  0.
        -24    2    3    3    0    0  0.41321290882E+02  0.22800615557E+02 -0.13955655012E+03  0.16942127346E+03  0.83667317806E+02 0.  0.
          6    2    1    2  501    0 -0.22170875693E+02 -0.55743798851E+02  0.51420898038E+03  0.54544159039E+03  0.17174613294E+03 0.  0.
         24    2    5    5    0    0 -0.59030272923E+02 -0.26769717184E+02  0.17318938208E+03  0.20118214026E+03  0.79236990208E+02 0.  0.
          5    1    5    5  501    0  0.36859397230E+02 -0.28974081667E+02  0.34101959831E+03  0.34425945013E+03  0.47000000000E+01 0. -1.
        -13    1    6    6    0    0 -0.38631491761E+02 -0.55158074642E+02  0.11755080534E+03  0.13547323422E+03  0.00000000000E+00 0.  1.
         14    1    6    6    0    0 -0.20398781163E+02  0.28388357458E+02  0.55638576738E+02  0.65708906044E+02  0.00000000000E+00 0. -1.
         -5    1    3    3    0  503 -0.19150415189E+02  0.32943183294E+02  0.24580568372E+02  0.45588222919E+02  0.47000000000E+01 0.  1.
         13    1    4    4    0    0 -0.25064579597E+02  0.11003288005E+02 -0.28632714750E+02  0.39612344683E+02  0.00000000000E+00 0. -1.
        -14    1    4    4    0    0  0.66385870479E+02  0.11797327552E+02 -0.11092383537E+03  0.12980892878E+03  0.00000000000E+00 0.  1.
</event>
<event>
12    1  0.8406581E-002  0.2033738E+03  0.7818608E-02  0.1147063E+00
         21   -1    0    0  503  502  0.00000000000E+00  0.00000000000E+00  0.23515117840E+03  0.23515117840E+03  0.00000000000E+00 0.  1.
         21   -1    0    0  501  503 -0.00000000000E+00 -0.00000000000E+00 -0.32552863278E+03  0.32552863278E+03  0.00000000000E+00 0.  1.
          6    2    1    2  501    0 -0.96442667364E+02  0.39902803508E+02 -0.23566749076E+03  0.31128777145E+03  0.17454938739E+03 0.  0.
         24    2    3    3    0    0 -0.10271162933E+03 -0.87347183260E+01 -0.22575353712E+03  0.26103555865E+03  0.80925454932E+02 0.  0.
         -6    2    1    2    0  502  0.96442667364E+02 -0.39902803508E+02  0.14529003638E+03  0.24939203972E+03  0.17376355484E+03 0.  0.
        -24    2    5    5    0    0  0.56197298580E+02 -0.15472461986E+02  0.16931821403E+03  0.19632628224E+03  0.80484893300E+02 0.  0.
          5    1    3    3  501    0  0.62689619681E+01  0.48637521834E+02 -0.99139536404E+01  0.50252212798E+02  0.47000000000E+01 0. -1.
        -13    1    4    4    0    0 -0.83738657761E+02  0.22142436435E+02 -0.11161130107E+03  0.14127821071E+03  0.00000000000E+00 0.  1.
         14    1    4    4    0    0 -0.18972971572E+02 -0.30877154761E+02 -0.11414223605E+03  0.11975734795E+03  0.00000000000E+00 0. -1.
         -5    1    5    5    0  502  0.40245368784E+02 -0.24430341522E+02 -0.24028177653E+02  0.53065757479E+02  0.47000000000E+01 0.  1.
         11    1    6    6    0    0  0.16769872821E+02  0.59336312542E+01 -0.31963952061E+01  0.18073559600E+02  0.00000000000E+00 0. -1.
        -12    1    6    6    0    0  0.39427425759E+02 -0.21406093240E+02  0.17251460924E+03  0.17825272264E+03  0.00000000000E+00 0.  1.
</event>
<event>
12    1  0.8406581E-002  0.2370410E+03  0.7818608E-02  0.1121907E+00
         21   -1    0    0  503  502  0.00000000000E+00  0.00000000000E+00  0.21477934898E+03  0.21477934898E+03  0.00000000000E+00 0. -1.
         21   -1    0    0  501  503 -0.00000000000E+00 -0.00000000000E+00 -0.29171889135E+03  0.29171889135E+03  0.00000000000E+00 0. -1.
          6    2    1    2  501    0  0.89765756948E+02 -0.13438583858E+03 -0.12099741369E+03  0.26613683133E+03  0.17340990209E+03 0.  0.
         24    2    3    3    0    0 -0.73562409212E+01 -0.14086996413E+02 -0.31540650164E+02  0.87449684518E+02  0.80000481006E+02 0.  0.
         -6    2    1    2    0  502 -0.89765756948E+02  0.13438583858E+03  0.44057871319E+02  0.24036140901E+03  0.17238058529E+03 0.  0.
        -24    2    5    5    0    0 -0.22243995839E+02  0.14233200563E+03  0.49085124157E+02  0.17202625652E+03  0.80190325745E+02 0.  0.
          5    1    3    3  501    0  0.97121997870E+02 -0.12029884216E+03 -0.89456763523E+02  0.17868714681E+03  0.47000000000E+01 0. -1.
        -11    1    4    4    0    0 -0.40007034361E+02 -0.19632793669E+02 -0.31072771129E+02  0.54327953129E+02  0.00000000000E+00 0.  1.
         12    1    4    4    0    0  0.32650793439E+02  0.55457972562E+01 -0.46787903583E+00  0.33121731389E+02  0.00000000000E+00 0. -1.
         -5    1    5    5    0  502 -0.67521761109E+02 -0.79461670494E+01 -0.50272528381E+01  0.68335152485E+02  0.47000000000E+01 0.  1.
         11    1    6    6    0    0 -0.33290603440E+02  0.46053082083E+02 -0.11166892979E+02  0.57912435154E+02  0.00000000000E+00 0. -1.
        -12    1    6    6    0    0  0.11046607601E+02  0.96278923543E+02  0.60252017137E+02  0.11411382137E+03  0.00000000000E+00 0.  1.
</event>
<event>
12    1  0.8406581E-002  0.2110111E+03  0.7818608E-02  0.1140774E+00
         21   -1    0    0  501  502  0.00000000000E+00  0.00000000000E+00  0.14900094978E+03  0.14900094978E+03  0.00000000000E+00 0. -1.
         21   -1    0    0  502  503 -0.00000000000E+00 -0.00000000000E+00 -0.43156074880E+03  0.43156074880E+03  0.00000000000E+00 0. -1.
         -6    2    1    2    0  503 -0.10692832663E+03 -0.57750239365E+02 -0.30230172503E+03  0.36866244710E+03  0.17250191234E+03 0.  0.
        -24    2    3    3    0    0  0.11203452605E+02 -0.30522578312E+02 -0.90821295734E+02  0.12485406995E+03  0.79264657243E+02 0.  0.
          6    2    1    2  501    0  0.10692832663E+03  0.57750239365E+02  0.19741926007E+02  0.21189925148E+03  0.17246098675E+03 0.  0.
         24    2    5    5    0    0  0.37028431041E+02 -0.12203475642E+02 -0.40174727581E+02  0.96177114337E+02  0.78204853193E+02 0.  0.
          5    1    5    5  501    0  0.69899895592E+02  0.69953715007E+02  0.59916653588E+02  0.11572213714E+03  0.47000000000E+01 0. -1.
        -11    1    6    6    0    0  0.41082513261E+02 -0.34978761517E+02 -0.51489310557E+01  0.54201458874E+02  0.00000000000E+00 0.  1.
         12    1    6    6    0    0 -0.40540822201E+01  0.22775285875E+02 -0.35025796525E+02  0.41975655463E+02  0.00000000000E+00 0. -1.
         -5    1    3    3    0  503 -0.11813177924E+03 -0.27227661053E+02 -0.21148042929E+03  0.24380837715E+03  0.47000000000E+01 0.  1.
         13    1    4    4    0    0 -0.22698903518E+02 -0.36881021674E+02 -0.75656374789E+02  0.87174176376E+02  0.00000000000E+00 0. -1.
        -14    1    4    4    0    0  0.33902356123E+02  0.63584433620E+01 -0.15164920944E+02  0.37679893576E+02  0.00000000000E+00 0.  1.
</event>
<event>
12    1  0.8406581E-002  0.1974135E+03  0.7818608E-02  0.1152067E+00
         21   -1    0    0  501  502  0.00000000000E+00  0.00000000000E+00  0.92858679245E+02  0.92858679245E+02  0.00000000000E+00 0.  1.
         21   -1    0    0  502  503 -0.00000000000E+00 -0.00000000000E+00 -0.41870149458E+03  0.41870149458E+03  0.00000000000E+00 0. -1.
         -6    2    1    2    0  503  0.88370169948E+02  0.40478333488E+02 -0.16965998872E+03  0.26030095016E+03  0.17182633809E+03 0.  0.
        -24    2    3    3    0    0  0.37689014366E+02  0.88647767562E+02 -0.86431556053E+02  0.15149867116E+03  0.78756237755E+02 0.  0.
          6    2    1    2  501    0 -0.88370169948E+02 -0.40478333488E+02 -0.15618282662E+03  0.25125922367E+03  0.17114420741E+03 0.  0.
         24    2    5    5    0    0 -0.12791246551E+03 -0.20836620967E+02 -0.12872811289E+03  0.19905537980E+03  0.79097114802E+02 0.  0.
          5    1    5    5  501    0  0.39542295565E+02 -0.19641712522E+02 -0.27454713725E+02  0.52203843872E+02  0.47000000000E+01 0. -1.
        -13    1    6    6    0    0 -0.79677909841E+01  0.15836797687E+02  0.20570288631E+01  0.17847162853E+02  0.00000000000E+00 0.  1.
         14    1    6    6    0    0 -0.11994467453E+03 -0.36673418654E+02 -0.13078514176E+03  0.18120821694E+03  0.00000000000E+00 0. -1.
         -5    1    3    3    0  503  0.50681155582E+02 -0.48169434074E+02 -0.83228432666E+02  0.10880227899E+03  0.47000000000E+01 0.  1.
         11    1    4    4    0    0  0.44916211199E+02  0.10812170721E+02 -0.34288113349E+02  0.57532979944E+02  0.00000000000E+00 0. -1.
        -12    1    4    4    0    0 -0.72271968330E+01  0.77835596841E+02 -0.52143442704E+02  0.93965691221E+02  0.00000000000E+00 0.  1.
</event>
<event>
12    1  0.8406581E-002  0.2794483E+03  0.7818608E-02  0.1096897E+00
         21   -1    0    0  501  502  0.00000000000E+00  0.00000000000E+00  0.44636941047E+03  0.44636941047E+03  0.00000000000E+00 0.  1.
         21   -1    0    0  502  503 -0.00000000000E+00 -0.00000000000E+00 -0.18036031713E+03  0.18036031713E+03  0.00000000000E+00 0. -1.
         -6    2    1    2    0  503  0.16098172234E+03  0.13807488855E+03  0.62649202002E+02  0.28638481373E+03  0.18196579143E+03 0.  0.
        -24    2    3    3    0    0  0.13002934465E+03  0.45878277193E+02  0.93404672413E+02  0.18427578480E+03  0.78871320798E+02 0.  0.
          6    2    1    2  501    0 -0.16098172234E+03 -0.13807488855E+03  0.20335989133E+03  0.34034491387E+03  0.17175454934E+03 0.  0.
         24    2    5    5    0    0 -0.85696619647E+02 -0.14144026617E+03  0.18846554520E+03  0.26338320911E+03  0.80636180465E+02 0.  0.
          5    1    5    5  501    0 -0.75285102690E+02  0.33653776198E+01  0.14894346137E+02  0.76961704765E+02  0.47000000000E+01 0. -1.
        -13    1    6    6    0    0 -0.91554777674E+02 -0.80471404518E+02  0.11324810131E+03  0.16638226080E+03  0.00000000000E+00 0.  1.
         14    1    6    6    0    0  0.58581580275E+01 -0.60968861651E+02  0.75217443892E+02  0.97000948305E+02  0.00000000000E+00 0. -1.
         -5    1    3    3    0  503  0.30952377681E+02  0.92196611356E+02 -0.30755470412E+02  0.10210902893E+03  0.47000000000E+01 0.  1.
         11    1    4    4    0    0  0.80381807586E+02 -0.80347165445E+01  0.26438854984E+02  0.84998851249E+02  0.00000000000E+00 0. -1.
        -12    1    4    4    0    0  0.49647537068E+02  0.53912993737E+02  0.66965817429E+02  0.99276933548E+02  0.00000000000E+00 0.  1.
</event>
<event>
12    1  0.8406581E-002  0.2947961E+03  0.7818608E-02  0.1087924E+00
         21   -1    0    0  501  502  0.00000000000E+00  0.00000000000E+00  0.67562153283E+03  0.67562153283E+03  0.00000000000E+00 0.  1.
         21   -1    0    0  502  503 -0.00000000000E+00 -0.00000000000E+00 -0.14333961163E+03  0.14333961163E+03  0.00000000000E+00 0. -1.
         -6    2    1    2    0  503 -0.23126695745E+03  0.61119236099E+02  0.13399822660E+03  0.32344660889E+03  0.17158734639E+03 0.  0.
        -24    2    3    3    0    0 -0.68382420622E+02  0.52554234653E+02  0.94991122860E+01  0.11819834202E+03  0.80265259561E+02 0.  0.
          6    2    1    2  501    0  0.23126695745E+03 -0.61119236099E+02  0.39828369461E+03  0.49551453557E+03  0.17229273618E+03 0.  0.
         24    2    5    5    0    0  0.19851588328E+03  0.49697937523E+01  0.24148900195E+03  0.32217366223E+03  0.77753943983E+02 0.  0.
          5    1    5    5  501    0  0.32751074173E+02 -0.66089029851E+02  0.15679469266E+03  0.17334087334E+03  0.47000000000E+01 0. -1.
        -13    1    6    6    0    0  0.78730714622E+02 -0.34507860311E+02  0.81553728254E+02  0.11849189188E+03  0.00000000000E+00 0.  1.
         14    1    6    6    0    0  0.11978516866E+03  0.39477654064E+02  0.15993527370E+03  0.20368177036E+03  0.00000000000E+00 0. -1.
         -5    1    3    3    0  503 -0.16288453683E+03  0.85650014459E+01  0.12449911431E+03  0.20524826687E+03  0.47000000000E+01 0.  1.
         13    1    4    4    0    0 -0.51999145792E+02  0.55447425573E+02  0.38162179506E+02  0.85056922766E+02  0.00000000000E+00 0. -1.
        -14    1    4    4    0    0 -0.16383274830E+02 -0.28931909203E+01 -0.28663067220E+02  0.33141419256E+02  0.00000000000E+00 0.  1.
</event>
<event>
12    1  0.8406581E-002  0.1976677E+03  0.7818608E-02  0.1151780E+00
         21   -1    0    0  503  502  0.00000000000E+00  0.00000000000E+00  0.61156762993E+03  0.61156762993E+03  0.00000000000E+00 0.  1.
         21   -1    0    0  501  503 -0.00000000000E+00 -0.00000000000E+00 -0.20999514738E+03  0.20999514738E+03  0.00000000000E+00 0.  1.
          6    2    1    2  501    0 -0.93014738897E+02 -0.25541279885E+02 -0.14200023173E+03  0.24316514404E+03  0.17222404835E+03 0.  0.
         24    2    3    3    0    0 -0.33519451443E+02 -0.78472174861E+02 -0.76941037448E+02  0.14022750450E+03  0.80389016179E+02 0.  0.
         -6    2    1    2    0  502  0.93014738897E+02  0.25541279885E+02  0.54357271429E+03  0.57839763327E+03  0.17253529444E+03 0.  0.
        -24    2    5    5    0    0  0.91340633129E+02 -0.38480972179E+02  0.42571737343E+03  0.44418279521E+03  0.78988461397E+02 0.  0.
          5    1    3    3  501    0 -0.59495287454E+02  0.52930894976E+02 -0.65059194286E+02  0.10293763954E+03  0.47000000000E+01 0. -1.
        -13    1    4    4    0    0 -0.48947967621E+02 -0.61033745460E+02 -0.85059612599E+02  0.11556885097E+03  0.00000000000E+00 0.  1.
         14    1    4    4    0    0  0.15428516178E+02 -0.17438429401E+02  0.81185751510E+01  0.24658653530E+02  0.00000000000E+00 0. -1.
         -5    1    5    5    0  502  0.16741057679E+01  0.64022252064E+02  0.11785534086E+03  0.13421483807E+03  0.47000000000E+01 0.  1.
         11    1    6    6    0    0  0.56052257725E+02  0.47914136321E+01  0.10984141462E+03  0.12340968198E+03  0.00000000000E+00 0. -1.
        -12    1    6    6    0    0  0.35288375405E+02 -0.43272385811E+02  0.31587595882E+03  0.32077311323E+03  0.00000000000E+00 0.  1.
</event>
<event>
12    1  0.8406581E-002  0.2813788E+03  0.7818608E-02  0.1095125E+00
         21   -1    0    0  503  502  0.00000000000E+00  0.00000000000E+00  0.10933132902E+03  0.10933132902E+03  0.00000000000E+00 0.  1.
         21   -1    0    0  501  503 -0.00000000000E+00 -0.00000000000E+00 -0.72306492489E+03  0.72306492489E+03  0.00000000000E+00 0. -1.
          6    2    1    2  501    0 -0.15495410610E+03 -0.15947594386E+03 -0.28347341609E+03  0.39941359279E+03  0.17242589367E+03 0.  0.
         24    2    3    3    0    0 -0.68760609745E+02 -0.16293949121E+03 -0.21293300492E+03  0.28788173823E+03  0.79108352092E+02 0.  0.
         -6    2    1    2    0  502  0.15495410610E+03  0.15947594386E+03 -0.33026017977E+03  0.43298266112E+03  0.17017299086E+03 0.  0.
        -24    2    5    5    0    0  0.12867635299E+03  0.12413132938E+03 -0.33556709744E+03  0.38837307183E+03  0.79133907285E+02 0.  0.
          5    1    3    3  501    0 -0.86193496358E+02  0.34635473535E+01 -0.70540411169E+02  0.11153185456E+03  0.47000000000E+01 0. -1.
        -13    1    4    4    0    0 -0.12864094290E+02 -0.92716222459E+02 -0.15494816171E+03  0.18102683681E+03  0.00000000000E+00 0.  1.
         14    1    4    4    0    0 -0.55896515456E+02 -0.70223268749E+02 -0.57984843216E+02  0.10685490142E+03  0.00000000000E+00 0. -1.
         -5    1    5    5    0  502  0.26277753113E+02  0.35344614477E+02  0.53069176729E+01  0.44609589287E+02  0.47000000000E+01 0.  1.
         11    1    6    6    0    0  0.80313740040E+02  0.29040658738E+02 -0.11381775727E+03  0.14229595415E+03  0.00000000000E+00 0. -1.
        -12    1    6    6    0    0  0.48362612950E+02  0.95090670640E+02 -0.22174934018E+03  0.24607711767E+03  0.00000000000E+00 0.  1.
</event>
<event>
12    1  0.8406581E-002  0.2069026E+03  0.7818608E-02  0.1144609E+00
         21   -1    0    0  501  502  0.00000000000E+00  0.00000000000E+00  0.95539753827E+02  0.95539753827E+02  0.00000000000E+00 0. -1.
         21   -1    0    0  502  503 -0.00000000000E+00 -0.00000000000E+00 -0.58234977437E+03  0.58234977437E+03  0.00000000000E+00 0. -1.
         -6    2    1    2    0  503 -0.11094594850E+03 -0.38658162291E+02 -0.75791930882E+02  0.21773245102E+03  0.16691179239E+03 0.  0.
        -24    2    3    3    0    0 -0.43427084081E+02  0.19609754944E+02  0.84663182567E+01  0.94950164920E+02  0.81690887820E+02 0.  0.
          6    2    1    2  501    0  0.11094594850E+03  0.38658162291E+02 -0.41101808966E+03  0.46015707717E+03  0.17030915609E+03 0.  0.
         24    2    5    5    0    0  0.11339733076E+02  0.56912054360E+02 -0.14843888149E+03  0.17868854734E+03  0.80795568774E+02 0.  0.
          5    1    5    5  501    0  0.99606215428E+02 -0.18253892069E+02 -0.26257920817E+03  0.28146852984E+03  0.47000000000E+01 0. -1.
        -13    1    6    6    0    0 -0.25201955244E+02  0.43639476620E+02 -0.12108298563E+03  0.13115117947E+03  0.00000000000E+00 0.  1.
         14    1    6    6    0    0  0.36541688320E+02  0.13272577740E+02 -0.27355895860E+02  0.47537367864E+02  0.00000000000E+00 0. -1.
         -5    1    3    3    0  503 -0.67518864424E+02 -0.58267917234E+02 -0.84258249139E+02  0.12278228610E+03  0.47000000000E+01 0.  1.
         11    1    4    4    0    0  0.94843206643E+01 -0.23958141559E+02  0.54884193272E+01  0.26345163354E+02  0.00000000000E+00 0. -1.
        -12    1    4    4    0    0 -0.52911404745E+02  0.43567896503E+02  0.29778989295E+01  0.68605001566E+02  0.00000000000E+00 0.  1.
</event>
<event>
12    1  0.8406581E-002  0.2091053E+03  0.7818608E-02  0.1144516E+00
         21   -1    0    0  501  502  0.00000000000E+00  0.00000000000E+00  0.85623262410E+02  0.85623262410E+02  0.00000000000E+00 0.  1.
         21   -1    0    0  502  503 -0.00000000000E+00 -0.00000000000E+00 -0.51835037457E+03  0.51835037457E+03  0.00000000000E+00 0.  1.
         -6    2    1    2    0  503 -0.72864349942E+02  0.67706674648E+02 -0.14444427617E+03  0.25414397969E+03  0.18393370059E+03 0.  0.
        -24    2    3    3    0    0 -0.11656721387E+03  0.42892790853E+02 -0.68202714571E+02  0.16270801926E+03  0.79966132828E+02 0.  0.
          6    2    1    2  501    0  0.72864349942E+02 -0.67706674648E+02 -0.28828283599E+03  0.34982965729E+03  0.17140708360E+03 0.  0.
         24    2    5    5    0    0  0.73894566447E+02 -0.10785790237E+03 -0.19587009458E+03  0.24895653297E+03  0.80749782080E+02 0.  0.
          5    1    5    5  501    0 -0.10302165052E+01  0.40151227724E+02 -0.92412741414E+02  0.10087312432E+03  0.47000000000E+01 0. -1.
        -11    1    6    6    0    0  0.27687519755E+02 -0.10254506790E+03 -0.14842479524E+03  0.18251577889E+03  0.00000000000E+00 0.  1.
         12    1    6    6    0    0  0.46207046692E+02 -0.53128344684E+01 -0.47445299342E+02  0.66440754088E+02  0.00000000000E+00 0. -1.
         -5    1    3    3    0  503  0.43702863932E+02  0.24813883795E+02 -0.76241561601E+02  0.91435960432E+02  0.47000000000E+01 0.  1.
         13    1    4    4    0    0 -0.24725834859E+02 -0.22931422752E+02 -0.23928339129E+02  0.41349515988E+02  0.00000000000E+00 0. -1.
        -14    1    4    4    0    0 -0.91841379014E+02  0.65824213605E+02 -0.44274375442E+02  0.12135850327E+03  0.00000000000E+00 0.  1.
</event>
<event>
12    1  0.8406581E-002  0.2052381E+03  0.7818608E-02  0.1145626E+00
         21   -1    0    0  503  502  0.00000000000E+00  0.00000000000E+00  0.91074253876E+02  0.91074253876E+02  0.00000000000E+00 0.  1.
         21   -1    0    0  501  503 -0.00000000000E+00 -0.00000000000E+00 -0.74653700254E+03  0.74653700254E+03  0.00000000000E+00 0.  1.
          6    2    1    2  501    0 -0.86790426890E+02  0.68220902107E+02 -0.58777703882E+03  0.62257893883E+03  0.17302028211E+03 0.  0.
         24    2    3    3    0    0  0.21984278420E+02  0.32027964783E+02 -0.22378504896E+03  0.24093234326E+03  0.80371306216E+02 0.  0.
         -6    2    1    2    0  502  0.86790426890E+02 -0.68220902107E+02 -0.67685709843E+02  0.21503231759E+03  0.17167082631E+03 0.  0.
        -24    2    5    5    0    0  0.49840666484E+02 -0.11020633577E+03 -0.58596014113E+02  0.15817482906E+03  0.83404167754E+02 0.  0.
          5    1    3    3  501    0 -0.10877470531E+03  0.36192937324E+02 -0.36399198986E+03  0.38164659557E+03  0.47000000000E+01 0. -1.
        -11    1    4    4    0    0 -0.45122569050E+01 -0.12061644257E+02 -0.15240966335E+03  0.15295276790E+03  0.00000000000E+00 0.  1.
         12    1    4    4    0    0  0.26496535325E+02  0.44089609039E+02 -0.71375385610E+02  0.87979575360E+02  0.00000000000E+00 0. -1.
         -5    1    5    5    0  502  0.36949760406E+02  0.41985433660E+02 -0.90896957298E+01  0.56857488532E+02  0.47000000000E+01 0.  1.
         11    1    6    6    0    0 -0.99778261383E+01 -0.60049538152E+01 -0.33452450600E+02  0.35421503863E+02  0.00000000000E+00 0. -1.
        -12    1    6    6    0    0  0.59818492622E+02 -0.10420138195E+03 -0.25143563514E+02  0.12275332520E+03  0.00000000000E+00 0.  1.
</event>
<event>
12    1  0.8406581E-002  0.2794505E+03  0.7818608E-02  0.1096792E+00
         21   -1    0    0  501  502  0.00000000000E+00  0.00000000000E+00  0.39712529093E+03  0.39712529093E+03  0.00000000000E+00 0.  1.
         21   -1    0    0  502  503 -0.00000000000E+00 -0.00000000000E+00 -0.28229816311E+03  0.28229816311E+03  0.00000000000E+00 0. -1.
         -6    2    1    2    0  503  0.18475818227E+03  0.12044021652E+03 -0.13367541504E+03  0.30977687715E+03  0.17161341837E+03 0.  0.
        -24    2    3    3    0    0  0.17144023921E+02  0.46630328154E+02 -0.63229700931E+02  0.11349367783E+03  0.80090665927E+02 0.  0.
          6    2    1    2  501    0 -0.18475818227E+03 -0.12044021652E+03  0.24850254285E+03  0.36964657689E+03  0.16199890843E+03 0.  0.
         24    2    5    5    0    0 -0.90979027284E+02 -0.10271851055E+02  0.75270770641E+02  0.14389685804E+03  0.81596093718E+02 0.  0.
          5    1    5    5  501    0 -0.93779154982E+02 -0.11016836547E+03  0.17323177221E+03  0.22574971885E+03  0.47000000000E+01 0. -1.
        -11    1    6    6    0    0 -0.10509160898E+03 -0.14529188635E+02  0.73468432688E+02  0.12904632580E+03  0.00000000000E+00 0.  1.
         12    1    6    6    0    0  0.14112581701E+02  0.42573375806E+01  0.18023379527E+01  0.14850532234E+02  0.00000000000E+00 0. -1.
         -5    1    3    3    0  503  0.16761415835E+03  0.73809888368E+02 -0.70445714105E+02  0.19628319932E+03  0.47000000000E+01 0.  1.
         13    1    4    4    0    0  0.43629729187E+02  0.39569414332E+02 -0.19804587439E+02  0.62141077422E+02  0.00000000000E+00 0. -1.
        -14    1    4    4    0    0 -0.26485705266E+02  0.70609138226E+01 -0.43425113491E+02  0.51352600413E+02  0.00000000000E+00 0.  1.
</event>
<event>
12    1  0.8406581E-002  0.2474071E+03  0.7818608E-02  0.1115150E+00
         21   -1    0    0  503  502  0.00000000000E+00  0.00000000000E+00  0.42550498119E+03  0.42550498119E+03  0.00000000000E+00 0.  1.
         21   -1    0    0  501  503 -0.00000000000E+00 -0.00000000000E+00 -0.14887840991E+03  0.14887840991E+03  0.00000000000E+00 0. -1.
          6    2    1    2  501    0  0.17581258928E+03 -0.15012282324E+02  0.82282797446E+02  0.26073111273E+03  0.17342093074E+03 0.  0.
         24    2    3    3    0    0  0.31466129911E+02 -0.43773093390E+02  0.53773423683E+02  0.11073791629E+03  0.80405870265E+02 0.  0.
         -6    2    1    2    0  502 -0.17581258928E+03  0.15012282324E+02  0.19434377383E+03  0.31365227837E+03  0.17167648100E+03 0.  0.
        -24    2    5    5    0    0 -0.11851150166E+03 -0.55878926315E+02  0.10917050076E+03  0.18881015988E+03  0.81016342819E+02 0.  0.
          5    1    3    3  501    0  0.14434645937E+03  0.28760811066E+02  0.28509373764E+02  0.14999319644E+03  0.47000000000E+01 0. -1.
        -13    1    4    4    0    0  0.46937893844E+02 -0.10046257778E+02  0.55764409538E+02  0.73578274952E+02  0.00000000000E+00 0.  1.
         14    1    4    4    0    0 -0.15471763934E+02 -0.33726835612E+02 -0.19909858547E+01  0.37159641337E+02  0.00000000000E+00 0. -1.
         -5    1    5    5    0  502 -0.57301087626E+02  0.70891208639E+02  0.85173273068E+02  0.12484211850E+03  0.47000000000E+01 0.  1.
         11    1    6    6    0    0 -0.43090676082E+02 -0.80122262473E+01 -0.47025372315E+01  0.44080789365E+02  0.00000000000E+00 0. -1.
        -12    1    6    6    0    0 -0.75420825577E+02 -0.47866700067E+02  0.11387303800E+03  0.14472937051E+03  0.00000000000E+00 0.  1.
</event>
<event>
12    1  0.8406581E-002  0.1855610E+03  0.7818608E-02  0.1163166E+00
         21   -1    0    0  501  502  0.00000000000E+00  0.00000000000E+00  0.19212486121E+03  0.19212486121E+03  0.00000000000E+00 0. -1.
         21   -1    0    0  502  503 -0.00000000000E+00 -0.00000000000E+00 -0.28365109675E+03  0.28365109675E+03  0.00000000000E+00 0.  1.
         -6    2    1    2    0  503 -0.11422473681E+02  0.61585377745E+02 -0.19211347513E+03  0.26709638495E+03  0.17467014591E+03 0.  0.
        -24    2    3    3    0    0 -0.35551314604E+02  0.43378063235E+02 -0.21189790541E+03  0.23066534122E+03  0.71834705981E+02 0.  0.
          6    2    1    2  501    0  0.11422473681E+02 -0.61585377745E+02  0.10058723958E+03  0.20867957300E+03  0.17177351299E+03 0.  0.
         24    2    5    5    0    0 -0.56555729729E+01 -0.39349036582E+02 -0.16296339420E+02  0.88388361410E+02  0.77243767184E+02 0.  0.
          5    1    5    5  501    0  0.17078046654E+02 -0.22236341163E+02  0.11688357900E+03  0.12029121159E+03  0.47000000000E+01 0. -1.
        -11    1    6    6    0    0 -0.35316650063E+02 -0.25647775319E+01 -0.20555689070E+02  0.40943622319E+02  0.00000000000E+00 0.  1.
         12    1    6    6    0    0  0.29661077090E+02 -0.36784259050E+02  0.42593496505E+01  0.47444739091E+02  0.00000000000E+00 0. -1.
         -5    1    3    3    0  503  0.24128840923E+02  0.18207314510E+02  0.19784430282E+02  0.36431043734E+02  0.47000000000E+01 0.  1.
         11    1    4    4    0    0 -0.21173564097E+02  0.62689292787E+02 -0.14012912720E+03  0.15496593025E+03  0.00000000000E+00 0. -1.
        -12    1    4    4    0    0 -0.14377750506E+02 -0.19311229552E+02 -0.71768778206E+02  0.75699410973E+02  0.00000000000E+00 0.  1.
</event>
<event>
12    1  0.8406581E-002  0.1847296E+03  0.7818608E-02  0.1165398E+00
         21   -1    0    0  503  502  0.00000000000E+00  0.00000000000E+00  0.74370727443E+02  0.74370727443E+02  0.00000000000E+00 0.  1.
         21   -1    0    0  501  503 -0.00000000000E+00 -0.00000000000E+00 -0.78622182270E+03  0.78622182270E+03  0.00000000000E+00 0.  1.
          6    2    1    2  501    0 -0.29095645009E+02  0.27012556677E+02 -0.63769032711E+03  0.66153265812E+03  0.17146506845E+03 0.  0.
         24    2    3    3    0    0 -0.57613922524E+02  0.55322504284E+02 -0.58095710158E+03  0.59185128210E+03  0.79980264396E+02 0.  0.
         -6    2    1    2    0  502  0.29095645009E+02 -0.27012556677E+02 -0.74160768152E+02  0.19905989202E+03  0.18041282189E+03 0.  0.
        -24    2    5    5    0    0  0.52327808467E+02  0.45997104436E+02 -0.58935330960E+02  0.12080359533E+03  0.79159347229E+02 0.  0.
          5    1    3    3  501    0  0.28518277516E+02 -0.28309947607E+02 -0.56733225523E+02  0.69681376021E+02  0.47000000000E+01 0. -1.
        -13    1    4    4    0    0 -0.14411772185E+02  0.53560111092E+02 -0.17454684979E+03  0.18314744729E+03  0.00000000000E+00 0.  1.
         14    1    4    4    0    0 -0.43202150339E+02  0.17623931915E+01 -0.40641025179E+03  0.40870383480E+03  0.00000000000E+00 0. -1.
         -5    1    5    5    0  502 -0.23232163458E+02 -0.73009661112E+02 -0.15225437192E+02  0.78256296695E+02  0.47000000000E+01 0.  1.
         13    1    6    6    0    0  0.46325459730E+02 -0.12703246779E+01 -0.56527242365E+02  0.73095766453E+02  0.00000000000E+00 0. -1.
        -14    1    6    6    0    0  0.60023487373E+01  0.47267429114E+02 -0.24080885948E+01  0.47707828876E+02  0.00000000000E+00 0.  1.
</event>
<event>
12    1  0.8406581E-002  0.1725171E+03  0.7818608E-02  0.1175427E+00
         21   -1    0    0  501  502  0.00000000000E+00  0.00000000000E+00  0.18515710933E+03  0.18515710933E+03  0.00000000000E+00 0.  1.
         21   -1    0    0  502  503 -0.00000000000E+00 -0.00000000000E+00 -0.16926304177E+03  0.16926304177E+03  0.00000000000E+00 0.  1.
         -6    2    1    2    0  503 -0.20439206590E+00  0.38541367391E+01 -0.33292699255E+02  0.17570016104E+03  0.17247390127E+03 0.  0.
        -24    2    3    3    0    0  0.41805587747E+02  0.41250789413E+02  0.16634828561E+02  0.10034635510E+03  0.79645079367E+02 0.  0.
          6    2    1    2  501    0  0.20439206590E+00 -0.38541367391E+01  0.49186766818E+02  0.17871999006E+03  0.17177485459E+03 0.  0.
         24    2    5    5    0    0  0.50293360311E+02 -0.15032295518E+02  0.74236145067E+02  0.12141887904E+03  0.80474511198E+02 0.  0.
          5    1    5    5  501    0 -0.50088968245E+02  0.11178158779E+02 -0.25049378248E+02  0.57301111020E+02  0.47000000000E+01 0. -1.
        -13    1    6    6    0    0 -0.92933146062E+01  0.23080891932E+02  0.14241888929E+02  0.28669228608E+02  0.00000000000E+00 0.  1.
         14    1    6    6    0    0  0.59586674917E+02 -0.38113187450E+02  0.59994256138E+02  0.92749650430E+02  0.00000000000E+00 0. -1.
         -5    1    3    3    0  503 -0.42009979813E+02 -0.37396652674E+02 -0.49927527816E+02  0.75353805935E+02  0.47000000000E+01 0.  1.
         11    1    4    4    0    0  0.12267072286E+01 -0.14163615666E+02  0.27357625721E+02  0.30831031518E+02  0.00000000000E+00 0. -1.
        -12    1    4    4    0    0  0.40578880518E+02  0.55414405079E+02 -0.10722797160E+02  0.69515323586E+02  0.00000000000E+00 0.  1.
</event>
<event>
12    1  0.8406581E-002  0.2300437E+03  0.7818608E-02  0.1126718E+00
         21   -1    0    0  501  502  0.00000000000E+00  0.00000000000E+00  0.75551408815E+03  0.75551408815E+03  0.00000000000E+00 0.  1.
         21   -1    0    0  502  503 -0.00000000000E+00 -0.00000000000E+00 -0.10772319756E+03  0.10772319756E+03  0.00000000000E+00 0.  1.
         -6    2    1    2    0  503 -0.11491991473E+03 -0.10150500047E+03  0.67710483404E+02  0.23920731739E+03  0.17066217862E+03 0.  0.
        -24    2    3    3    0    0 -0.90462899978E+02 -0.13244235174E+03  0.80993555281E+02  0.19732897845E+03  0.81573628897E+02 0.  0.
          6    2    1    2  501    0  0.11491991473E+03  0.10150500047E+03  0.58008040719E+03  0.62402996831E+03  0.17149422914E+03 0.  0.
         24    2    5    5    0    0 -0.73567114865E+01  0.24150193897E+02  0.19256184318E+03  0.21035368561E+03  0.80816189792E+02 0.  0.
          5    1    5    5  501    0  0.12227662622E+03  0.77354806574E+02  0.38751856400E+03  0.41367628270E+03  0.47000000000E+01 0. -1.
        -11    1    6    6    0    0  0.34291458830E+02  0.11559013058E+02  0.53069133467E+02  0.64232763124E+02  0.00000000000E+00 0.  1.
         12    1    6    6    0    0 -0.41648170317E+02  0.12591180839E+02  0.13949270972E+03  0.14612092249E+03  0.00000000000E+00 0. -1.
         -5    1    3    3    0  503 -0.24457014753E+02  0.30937351271E+02 -0.13283071877E+02  0.41878338945E+02  0.47000000000E+01 0.  1.
         11    1    4    4    0    0  0.47426591017E+01 -0.63709721431E+01  0.30435722978E+02  0.31454973130E+02  0.00000000000E+00 0. -1.
        -12    1    4    4    0    0 -0.95205559080E+02 -0.12607137960E+03  0.50557832303E+02  0.16587400532E+03  0.00000000000E+00 0.  1.
</event>
<event>
12    1  0.8406581E-002  0.1974085E+03  0.7818608E-02  0.1152081E+00
         21   -1    0    0  503  502  0.00000000000E+00  0.00000000000E+00  0.37341834212E+03  0.37341834212E+03  0.00000000000E+00 0. -1.
         21   -1    0    0  501  503 -0.00000000000E+00 -0.00000000000E+00 -0.18517910157E+03  0.18517910157E+03  0.00000000000E+00 0. -1.
          6    2    1    2  501    0  0.95683940008E+02  0.12632045495E+02 -0.90692538956E+02  0.21724466828E+03  0.17220663264E+03 0.  0.
         24    2    3    3    0    0  0.62129758020E+02  0.29216107160E+02  0.11528931394E+02  0.10828489024E+03  0.82939818214E+02 0.  0.
         -6    2    1    2    0  502 -0.95683940008E+02 -0.12632045495E+02  0.27893177950E+03  0.34135277541E+03  0.17147534725E+03 0.  0.
        -24    2    5    5    0    0 -0.13405505767E+03 -0.36030267344E+00  0.20445956976E+03  0.25655219542E+03  0.77745900232E+02 0.  0.
          5    1    3    3  501    0  0.33554181988E+02 -0.16584061665E+02 -0.10222147035E+03  0.10895977804E+03  0.47000000000E+01 0. -1.
        -11    1    4    4    0    0  0.79594758262E+02  0.36767201903E+02  0.14980169873E+02  0.88946940183E+02  0.00000000000E+00 0.  1.
         12    1    4    4    0    0 -0.17465000242E+02 -0.75510947422E+01 -0.34512384789E+01  0.19337950054E+02  0.00000000000E+00 0. -1.
         -5    1    5    5    0  502  0.38371117665E+02 -0.12271742822E+02  0.74472209740E+02  0.84800579988E+02  0.47000000000E+01 0.  1.
         11    1    6    6    0    0 -0.37546973960E+02  0.52893732768E+01  0.12740340345E+03  0.13292621989E+03  0.00000000000E+00 0. -1.
        -12    1    6    6    0    0 -0.96508083713E+02 -0.56496759503E+01  0.77056166318E+02  0.12362597554E+03  0.00000000000E+00 0.  1.
</event>
<event>
12    1  0.8406581E-002  0.1824017E+03  0.7818608E-02  0.1166324E+00
         21   -1    0    0  503  502  0.00000000000E+00  0.00000000000E+00  0.59799473057E+02  0.59799473057E+02  0.00000000000E+00 0.  1.
         21   -1    0    0  501  503 -0.00000000000E+00 -0.00000000000E+00 -0.56429062560E+03  0.56429062560E+03  0.00000000000E+00 0. -1.
          6    2    1    2  501    0 -0.13330291900E+02 -0.58290528543E+02 -0.30620047763E+03  0.35466560571E+03  0.16868158457E+03 0.  0.
         24    2    3    3    0    0 -0.42963307006E+02 -0.45885406187E+02 -0.30941048509E+03  0.32204051118E+03  0.63434425236E+02 0.  0.
         -6    2    1    2    0  502  0.13330291900E+02  0.58290528543E+02 -0.19829067492E+03  0.26942449295E+03  0.17232203354E+03 0.  0.
        -24    2    5    5    0    0  0.95704062490E+01  0.10611672814E+03 -0.14215790369E+03  0.19543489832E+03  0.81446775461E+02 0.  0.
          5    1    3    3  501    0  0.29633015106E+02 -0.12405122356E+02  0.32100074672E+01  0.32625094527E+02  0.47000000000E+01 0. -1.
        -13    1    4    4    0    0 -0.19198985729E+02  0.95592083859E+01 -0.34764135091E+02  0.40847577733E+02  0.00000000000E+00 0.  1.
         14    1    4    4    0    0 -0.23764321278E+02 -0.55444614573E+02 -0.27464635000E+03  0.28119293345E+03  0.00000000000E+00 0. -1.
         -5    1    5    5    0  502  0.37598856513E+01 -0.47826199596E+02 -0.56132771227E+02  0.73989594630E+02  0.47000000000E+01 0.  1.
         11    1    6    6    0    0  0.36827437918E+02  0.25221661351E+02 -0.27278144622E+02  0.52311466802E+02  0.00000000000E+00 0. -1.
        -12    1    6    6    0    0 -0.27257031669E+02  0.80895066789E+02 -0.11487975907E+03  0.14312343152E+03  0.00000000000E+00 0.  1.
</event>
<event>
12    1  0.8406581E-002  0.2057805E+03  0.7818608E-02  0.1145810E+00
         21   -1    0    0  503  502  0.00000000000E+00  0.00000000000E+00  0.17303911870E+03  0.17303911870E+03  0.00000000000E+00 0. -1.
         21   -1    0    0  501  503 -0.00000000000E+00 -0.00000000000E+00 -0.38029710888E+03  0.38029710888E+03  0.00000000000E+00 0.  1.
          6    2    1    2  501    0 -0.45192485488E+02 -0.95167226415E+02 -0.27247033133E+03  0.34144650304E+03  0.17676671421E+03 0.  0.
         24    2    3    3    0    0 -0.16266726323E+02  0.16430247917E+02 -0.14902648296E+03  0.17247558980E+03  0.83692156271E+02 0.  0.
         -6    2    1    2    0  502  0.45192485488E+02  0.95167226415E+02  0.65212341147E+02  0.21188972455E+03  0.17188788266E+03 0.  0.
        -24    2    5    5    0    0  0.80364465629E+02  0.96431365379E+02  0.59512708492E+01  0.14280549562E+03  0.67827254031E+02 0.  0.
          5    1    3    3  501    0 -0.28925759165E+02 -0.11159747433E+03 -0.12344384837E+03  0.16897091324E+03  0.47000000000E+01 0. -1.
        -11    1    4    4    0    0  0.14069136865E+02 -0.27371401454E+02 -0.34943082058E+02  0.46563432148E+02  0.00000000000E+00 0.  1.
         12    1    4    4    0    0 -0.30335863188E+02  0.43801649371E+02 -0.11408340090E+03  0.12591215765E+03  0.00000000000E+00 0. -1.
         -5    1    5    5    0  502 -0.35171980141E+02 -0.12641389632E+01  0.59261070298E+02  0.69084228932E+02  0.47000000000E+01 0.  1.
         11    1    6    6    0    0  0.36340517367E+02  0.52715399267E+02  0.36446326559E+02  0.73674155863E+02  0.00000000000E+00 0. -1.
        -12    1    6    6    0    0  0.44023948262E+02  0.43715966111E+02 -0.30495055710E+02  0.69131339755E+02  0.00000000000E+00 0.  1.
</event>
<event>
12    1  0.8406581E-002  0.1807007E+03  0.7818608E-02  0.1167744E+00
         21   -1    0    0  501  502  0.00000000000E+00  0.00000000000E+00  0.46272775511E+02  0.46272775511E+02  0.00000000000E+00 0. -1.
         21   -1    0    0  502  503 -0.00000000000E+00 -0.00000000000E+00 -0.85590843056E+03  0.85590843056E+03  0.00000000000E+00 0. -1.
         -6    2    1    2    0  503  0.21584588604E+02  0.41129053351E+02 -0.59761012351E+03  0.62359988281E+03  0.17199261794E+03 0.  0.
        -24    2    3    3    0    0 -0.81541582724E+01  0.33416764809E+02 -0.58135328029E+03  0.58852499989E+03  0.84893277272E+02 0.  0.
          6    2    1    2  501    0 -0.21584588604E+02 -0.41129053351E+02 -0.21202553154E+03  0.27858132327E+03  0.17462884685E+03 0.  0.
         24    2    5    5    0    0  0.24820477597E+02 -0.81675168452E+02 -0.12600119081E+03  0.17265826243E+03  0.81533344398E+02 0.  0.
          5    1    5    5  501    0 -0.46405066202E+02  0.40546115101E+02 -0.86024340730E+02  0.10592306084E+03  0.47000000000E+01 0. -1.
        -13    1    6    6    0    0 -0.46432629614E+01 -0.12422042555E+02 -0.86787234935E+02  0.87794596530E+02  0.00000000000E+00 0.  1.
         14    1    6    6    0    0  0.29463740559E+02 -0.69253125897E+02 -0.39213955879E+02  0.84863665899E+02  0.00000000000E+00 0. -1.
         -5    1    3    3    0  503  0.29738746877E+02  0.77122885420E+01 -0.16256843221E+02  0.35074882920E+02  0.47000000000E+01 0.  1.
         11    1    4    4    0    0 -0.20258691262E+02 -0.69517121427E+01 -0.45141982611E+03  0.45192764938E+03  0.00000000000E+00 0. -1.
        -12    1    4    4    0    0  0.12104532990E+02  0.40368476952E+02 -0.12993345418E+03  0.13659735051E+03  0.00000000000E+00 0.  1.
</event>
<event>
12    1  0.8406581E-002  0.2630844E+03  0.7818608E-02  0.1105703E+00
         21   -1    0    0  503  502  0.00000000000E+00  0.00000000000E+00  0.99257863698E+02  0.99257863698E+02  0.00000000000E+00 0.  1.
         21   -1    0    0  501  503 -0.00000000000E+00 -0.00000000000E+00 -0.10997969877E+04  0.10997969877E+04  0.00000000000E+00 0.  1.
          6    2    1    2  501    0  0.49736379709E+02  0.18905174494E+03 -0.13280249957E+03  0.29231329006E+03  0.17203571118E+03 0.  0.
         24    2    3    3    0    0  0.25030970205E+02  0.19553107264E+03 -0.15024582744E+03  0.26102913059E+03  0.81874590189E+02 0.  0.
         -6    2    1    2    0  502 -0.49736379709E+02 -0.18905174494E+03 -0.86773662447E+03  0.90674156138E+03  0.17606572626E+03 0.  0.
        -24    2    5    5    0    0 -0.28729644610E+02 -0.17421099397E+03 -0.47327476219E+03  0.51141412545E+03  0.79878309229E+02 0.  0.
          5    1    3    3  501    0  0.24705409503E+02 -0.64793277034E+01  0.17443327865E+02  0.31284159462E+02  0.47000000000E+01 0. -1.
        -13    1    4    4    0    0  0.41221577041E+02  0.12258035889E+03 -0.13052647764E+03  0.18374526977E+03  0.00000000000E+00 0.  1.
         14    1    4    4    0    0 -0.16190606836E+02  0.72950713753E+02 -0.19719349795E+02  0.77283860819E+02  0.00000000000E+00 0. -1.
         -5    1    5    5    0  502 -0.21006735099E+02 -0.14840750972E+02 -0.39446186228E+03  0.39532743593E+03  0.47000000000E+01 0.  1.
         11    1    6    6    0    0  0.19158873960E+02 -0.23319178301E+02 -0.39890003421E+02  0.50020584772E+02  0.00000000000E+00 0. -1.
        -12    1    6    6    0    0 -0.47888518569E+02 -0.15089181566E+03 -0.43338475877E+03  0.46139354067E+03  0.00000000000E+00 0.  1.
</event>
<event>
12    1  0.8406581E-002  0.2226201E+03  0.7818608E-02  0.1132600E+00
         21   -1    0    0  501  502  0.00000000000E+00  0.00000000000E+00  0.65265217405E+02  0.65265217405E+02  0.00000000000E+00 0.  1.
         21   -1    0    0  502  503 -0.00000000000E+00 -0.00000000000E+00 -0.10259702091E+04  0.10259702091E+04  0.00000000000E+00 0. -1.
         -6    2    1    2    0  503  0.10703773095E+03  0.86257973988E+02 -0.19881990639E+03  0.29847794463E+03  0.17510629438E+03 0.  0.
        -24    2    3    3    0    0  0.12038827829E+03  0.45533793392E+02 -0.20465425814E+03  0.25497132836E+03  0.80995981495E+02 0.  0.
          6    2    1    2  501    0 -0.10703773095E+03 -0.86257973988E+02 -0.76188508531E+03  0.79275748187E+03  0.17058144075E+03 0.  0.
         24    2    5    5    0    0 -0.56256139005E+02 -0.78456155752E+02 -0.70557891112E+03  0.71638920508E+03  0.77793134606E+02 0.  0.
          5    1    5    5  501    0 -0.50781591943E+02 -0.78018182361E+01 -0.56306174188E+02  0.76368276789E+02  0.47000000000E+01 0. -1.
        -11    1    6    6    0    0 -0.75705825029E+01 -0.31477996889E+01 -0.40366265415E+01  0.91387480625E+01  0.00000000000E+00 0.  1.
         12    1    6    6    0    0 -0.48685556502E+02 -0.75308356063E+02 -0.70154228458E+03  0.70725045702E+03  0.00000000000E+00 0. -1.
         -5    1    3    3    0  503 -0.13350547342E+02  0.40724180596E+02  0.58343517520E+01  0.43506616277E+02  0.47000000000E+01 0.  1.
         13    1    4    4    0    0  0.72129915397E+01  0.33213402189E+02 -0.75546774962E+02  0.82840041883E+02  0.00000000000E+00 0. -1.
        -14    1    4    4    0    0  0.11317528675E+03  0.12320391203E+02 -0.12910748318E+03  0.17213128647E+03  0.00000000000E+00 0.  1.
</event>
<event>
12    1  0.8406581E-002  0.2038404E+03  0.7818608E-02  0.1146810E+00
         21   -1    0    0  503  502  0.00000000000E+00  0.00000000000E+00  0.71786023981E+03  0.71786023981E+03  0.00000000000E+00 0.  1.
         21   -1    0    0  501  503 -0.00000000000E+00 -0.00000000000E+00 -0.20932008932E+03  0.20932008932E+03  0.00000000000E+00 0.  1.
          6    2    1    2  501    0  0.59041834442E+02  0.90449026624E+02 -0.14030652664E+03  0.24746075856E+03  0.17286972256E+03 0.  0.
         24    2    3    3    0    0  0.10066058654E+03  0.81451743593E+02 -0.73742438137E+02  0.16830307096E+03  0.78237051942E+02 0.  0.
         -6    2    1    2    0  502 -0.59041834442E+02 -0.90449026624E+02  0.64884667714E+03  0.67971957056E+03  0.17131759846E+03 0.  0.
        -24    2    5    5    0    0  0.31016160176E+02 -0.29491254241E+02  0.35671240370E+03  0.36796515420E+03  0.79516535883E+02 0.  0.
          5    1    3    3  501    0 -0.41618752096E+02  0.89972830317E+01 -0.66564088506E+02  0.79157687602E+02  0.47000000000E+01 0. -1.
        -11    1    4    4    0    0  0.74685529989E+02  0.43805284461E+02 -0.84857672251E+02  0.12123388914E+03  0.00000000000E+00 0.  1.
         12    1    4    4    0    0  0.25975056548E+02  0.37646459131E+02  0.11115234115E+02  0.47069181820E+02  0.00000000000E+00 0. -1.
         -5    1    5    5    0  502 -0.90057994618E+02 -0.60957772383E+02  0.29213427344E+03  0.31175441637E+03  0.47000000000E+01 0.  1.
         13    1    6    6    0    0  0.88031486200E+01  0.26730398956E+02  0.14902408562E+03  0.15165812787E+03  0.00000000000E+00 0. -1.
        -14    1    6    6    0    0  0.22213011556E+02 -0.56221653196E+02  0.20768831808E+03  0.21630702632E+03  0.00000000000E+00 0.  1.
</event>
<event>
12    1  0.8406581E-002  0.1788552E+03  0.7818608E-02  0.1168999E+00
         21   -1    0    0  503  502  0.00000000000E+00  0.00000000000E+00  0.51984321571E+02  0.51984321571E+02  0.00000000000E+00 0.  1.
         21   -1    0    0  501  503 -0.00000000000E+00 -0.00000000000E+00 -0.78423027201E+03  0.78423027201E+03  0.00000000000E+00 0.  1.
          6    2    1    2  501    0  0.31553424612E+02  0.36497058722E+02 -0.56054133569E+03  0.58827983965E+03  0.17186892338E+03 0.  0.
         24    2    3    3    0    0 -0.21622397205E+02  0.72116102410E+02 -0.27291627424E+03  0.29358228237E+03  0.77711025498E+02 0.  0.
         -6    2    1    2    0  502 -0.31553424612E+02 -0.36497058722E+02 -0.17170461476E+03  0.24793475393E+03  0.17222518277E+03 0.  0.
        -24    2    5    5    0    0 -0.46727063679E+01  0.39115375844E+02 -0.12911690223E+03  0.15696433824E+03  0.80092335611E+02 0.  0.
          5    1    3    3  501    0  0.53175821817E+02 -0.35619043688E+02 -0.28762506144E+03  0.29469755728E+03  0.47000000000E+01 0. -1.
        -13    1    4    4    0    0 -0.13232677919E+02  0.27193865636E+02 -0.22626564413E+03  0.22827779526E+03  0.00000000000E+00 0.  1.
         14    1    4    4    0    0 -0.83897192852E+01  0.44922236774E+02 -0.46650630110E+02  0.65304487106E+02  0.00000000000E+00 0. -1.
         -5    1    5    5    0  502 -0.26880718244E+02 -0.75612434566E+02 -0.42587712523E+02  0.90970415698E+02  0.47000000000E+01 0.  1.
         13    1    6    6    0    0 -0.29698645445E+02  0.29707260174E+02 -0.12238590119E+03  0.12939412529E+03  0.00000000000E+00 0. -1.
        -14    1    6    6    0    0  0.25025939077E+02  0.94081156705E+01 -0.67310010426E+01  0.27570212951E+02  0.00000000000E+00 0.  1.
</event>
<event>
12    1  0.8406581E-002  0.1760069E+03  0.7818608E-02  0.1171903E+00
         21   -1    0    0  501  502  0.00000000000E+00  0.00000000000E+00  0.12611031148E+04  0.12611031148E+04  0.00000000000E+00 0.  1.
         21   -1    0    0  502  503 -0.00000000000E+00 -0.00000000000E+00 -0.46029475429E+02  0.46029475429E+02  0.00000000000E+00 0.  1.
         -6    2    1    2    0  503 -0.11533613004E+02 -0.35899837053E+02  0.15953581699E+03  0.23702113155E+03  0.17118854333E+03 0.  0.
        -24    2    3    3    0    0  0.24370800511E+02  0.26935877931E+02  0.35242136424E+02  0.93116777839E+02  0.78161683055E+02 0.  0.
          6    2    1    2  501    0  0.11533613004E+02  0.35899837053E+02  0.10555378224E+04  0.10701114587E+04  0.17192037981E+03 0.  0.
         24    2    5    5    0    0 -0.41871681374E+01  0.87563048100E+02  0.58767806102E+03  0.59912199316E+03  0.76790881681E+02 0.  0.
          5    1    5    5  501    0  0.15720781141E+02 -0.51663211047E+02  0.46785976135E+03  0.47098946551E+03  0.47000000000E+01 0. -1.
        -11    1    6    6    0    0  0.17020730522E+02  0.66022106550E+02  0.52636144125E+03  0.53075888184E+03  0.00000000000E+00 0.  1.
         12    1    6    6    0    0 -0.21207898660E+02  0.21540941550E+02  0.61316619779E+02  0.68363111321E+02  0.00000000000E+00 0. -1.
         -5    1    3    3    0  503 -0.35904413515E+02 -0.62835714985E+02  0.12429368056E+03  0.14390435371E+03  0.47000000000E+01 0.  1.
         13    1    4    4    0    0 -0.24322183678E+02  0.25848098378E+02  0.24818337303E+02  0.43308690527E+02  0.00000000000E+00 0. -1.
        -14    1    4    4    0    0  0.48692984190E+02  0.10877795538E+01  0.10423799120E+02  0.49808087313E+02  0.00000000000E+00 0.  1.
</event>
<event>
12    1  0.8406581E-002  0.2280519E+03  0.7818608E-02  0.1129805E+00
         21   -1    0    0  501  502  0.00000000000E+00  0.00000000000E+00  0.75853109974E+02  0.75853109974E+02  0.00000000000E+00 0.  1.
         21   -1    0    0  502  503 -0.00000000000E+00 -0.00000000000E+00 -0.13017425798E+04  0.13017425798E+04  0.00000000000E+00 0.  1.
         -6    2    1    2    0  503  0.89320358659E+02  0.96495149579E+02 -0.11046311552E+04  0.11279262672E+04  0.18632829833E+03 0.  0.
        -24    2    3    3    0    0 -0.12312372558E+02 -0.73258771745E+01 -0.47309768605E+03  0.47987948621E+03  0.79105232088E+02 0.  0.
          6    2    1    2  501    0 -0.89320358659E+02 -0.96495149579E+02 -0.12125831461E+03  0.24966942259E+03  0.17418898172E+03 0.  0.
         24    2    5    5    0    0 -0.12584204827E+03 -0.48876519694E+02 -0.74545846602E+02  0.17347550950E+03  0.79445162600E+02 0.  0.
          5    1    5    5  501    0  0.36521689615E+02 -0.47618629885E+02 -0.46712468006E+02  0.76193913088E+02  0.47000000000E+01 0. -1.
        -13    1    6    6    0    0 -0.89621941391E+02  0.17214546836E+00 -0.67291903220E+02  0.11207284351E+03  0.00000000000E+00 0.  1.
         14    1    6    6    0    0 -0.36220106882E+02 -0.49048665163E+02 -0.72539433824E+01  0.61402665996E+02  0.00000000000E+00 0. -1.
         -5    1    3    3    0  503  0.10163273122E+03  0.10382102675E+03 -0.63153346915E+03  0.64804678096E+03  0.47000000000E+01 0.  1.
         13    1    4    4    0    0 -0.11850556091E+02 -0.35957531438E+02 -0.12504436682E+03  0.13065019487E+03  0.00000000000E+00 0. -1.
        -14    1    4    4    0    0 -0.46181646651E+00  0.28631654263E+02 -0.34805331923E+03  0.34922929134E+03  0.00000000000E+00 0.  1.
</event>
<event>
12    1  0.8406581E-002  0.1975290E+03  0.7818608E-02  0.1151901E+00
         21   -1    0    0  503  502  0.00000000000E+00  0.00000000000E+00  0.14575069670E+03  0.14575069670E+03  0.00000000000E+00 0.  1.
         21   -1    0    0  501  503 -0.00000000000E+00 -0.00000000000E+00 -0.27221816119E+03  0.27221816119E+03  0.00000000000E+00 0.  1.
          6    2    1    2  501    0 -0.98048368149E+02 -0.35308824519E+01 -0.35252883305E+02  0.20065014496E+03  0.17144026733E+03 0.  0.
         24    2    3    3    0    0 -0.38389527590E+02 -0.65505035760E+02 -0.31717939694E+02  0.11442625754E+03  0.79515251224E+02 0.  0.
         -6    2    1    2    0  502  0.98048368149E+02  0.35308824519E+01 -0.91214581189E+02  0.21731871294E+03  0.17111801058E+03 0.  0.
        -24    2    5    5    0    0  0.98798084547E+02 -0.49757910015E+02 -0.37085596270E+02  0.14121158787E+03  0.79551618336E+02 0.  0.
          5    1    3    3  501    0 -0.59658840559E+02  0.61974153308E+02 -0.35349436106E+01  0.86223887418E+02  0.47000000000E+01 0. -1.
        -11    1    4    4    0    0 -0.69089907727E+01 -0.10614942150E+02  0.25910372862E+02  0.28840224899E+02  0.00000000000E+00 0.  1.
         12    1    4    4    0    0 -0.31480536817E+02 -0.54890093609E+02 -0.57628312556E+02  0.85586032639E+02  0.00000000000E+00 0. -1.
         -5    1    5    5    0  502 -0.74971639787E+00  0.53288792467E+02 -0.54128984919E+02  0.76107125065E+02  0.47000000000E+01 0.  1.
         13    1    6    6    0    0  0.30129704286E+02 -0.49510062726E+02 -0.43178053146E+02  0.72273021696E+02  0.00000000000E+00 0. -1.
        -14    1    6    6    0    0  0.68668380260E+02 -0.24784728882E+00  0.60924568759E+01  0.68938566178E+02  0.00000000000E+00 0.  1.
</event>
<event>
12    1  0.8406581E-002  0.2017038E+03  0.7818608E-02  0.1148429E+00
         21   -1    0    0  501  502  0.00000000000E+00  0.00000000000E+00  0.12979097060E+04  0.12979097060E+04  0.00000000000E+00 0. -1.
         21   -1    0    0  502  503 -0.00000000000E+00 -0.00000000000E+00 -0.70612933987E+02  0.70612933987E+02  0.00000000000E+00 0. -1.
         -6    2    1    2    0  503 -0.85119370383E+02 -0.59876852112E+02  0.10242400266E+03  0.22570892914E+03  0.17211420551E+03 0.  0.
        -24    2    3    3    0    0 -0.14347777600E+02 -0.86935918648E+02  0.13172805213E+02  0.10853948913E+03  0.61996654986E+02 0.  0.
          6    2    1    2  501    0  0.85119370383E+02  0.59876852112E+02  0.11248727694E+04  0.11428137109E+04  0.17278277067E+03 0.  0.
         24    2    5    5    0    0  0.10614311461E+03 -0.68689162562E+00  0.64321931274E+03  0.65688973825E+03  0.80661089387E+02 0.  0.
          5    1    5    5  501    0 -0.21023744228E+02  0.60563743738E+02  0.48165345661E+03  0.48592397260E+03  0.47000000000E+01 0. -1.
        -13    1    6    6    0    0 -0.10608291234E+02 -0.74585679780E+01  0.12329421890E+03  0.12397431384E+03  0.00000000000E+00 0.  1.
         14    1    6    6    0    0  0.11675140585E+03  0.67716763524E+01  0.51992509384E+03  0.53291542441E+03  0.00000000000E+00 0. -1.
         -5    1    3    3    0  503 -0.70771592783E+02  0.27059066536E+02  0.89251197451E+02  0.11716944001E+03  0.47000000000E+01 0.  1.
         11    1    4    4    0    0  0.95205712835E+01 -0.25207904075E+01 -0.13626168922E+02  0.16812737473E+02  0.00000000000E+00 0. -1.
        -12    1    4    4    0    0 -0.23868348884E+02 -0.84415128240E+02  0.26798974134E+02  0.91726751654E+02  0.00000000000E+00 0.  1.
</event>
<event>
12    1  0.8406581E-002  0.1974175E+03  0.7818608E-02  0.1152054E+00
         21   -1    0    0  501  502  0.00000000000E+00  0.00000000000E+00  0.87840572389E+02  0.87840572389E+02  0.00000000000E+00 0. -1.
         21   -1    0    0  502  503 -0.00000000000E+00 -0.00000000000E+00 -0.48757773692E+03  0.48757773692E+03  0.00000000000E+00 0. -1.
         -6    2    1    2    0  503 -0.17381074839E+02 -0.96408597811E+02 -0.28713759400E+03  0.34814680033E+03  0.17076731887E+03 0.  0.
        -24    2    3    3    0    0  0.41321179690E+02 -0.75630255925E+01 -0.14264658267E+03  0.16859393139E+03  0.79443230706E+02 0.  0.
          6    2    1    2  501    0  0.17381074839E+02  0.96408597811E+02 -0.11259957053E+03  0.22727150898E+03  0.17139707120E+03 0.  0.
         24    2    5    5    0    0 -0.35365365469E+02 -0.14259995997E+01 -0.63287583317E+02  0.10558520121E+03  0.76747468772E+02 0.  0.
          5    1    5    5  501    0  0.52746440309E+02  0.97834597410E+02 -0.49311987208E+02  0.12168630777E+03  0.47000000000E+01 0. -1.
        -13    1    6    6    0    0  0.22323840706E+02 -0.12694481465E+02 -0.17498838771E+02  0.31075924474E+02  0.00000000000E+00 0.  1.
         14    1    6    6    0    0 -0.57689206176E+02  0.11268481866E+02 -0.45788744546E+02  0.74509276737E+02  0.00000000000E+00 0. -1.
         -5    1    3    3    0  503 -0.58702254530E+02 -0.88845572218E+02 -0.14449101133E+03  0.17955286894E+03  0.47000000000E+01 0.  1.
         13    1    4    4    0    0  0.13071702870E+02  0.32016542533E+02 -0.92450357139E+02  0.98706620583E+02  0.00000000000E+00 0. -1.
        -14    1    4    4    0    0  0.28249476820E+02 -0.39579568125E+02 -0.50196225535E+02  0.69887310805E+02  0.00000000000E+00 0.  1.
</event>
<event>
12    1  0.8406581E-002  0.1732708E+03  0.7818608E-02  0.1174873E+00
         21   -1    0    0  501  502  0.00000000000E+00  0.00000000000E+00  0.22160134885E+03  0.22160134885E+03  0.00000000000E+00 0.  1.
         21   -1    0    0  502  503 -0.00000000000E+00 -0.00000000000E+00 -0.27759497159E+03  0.27759497159E+03  0.00000000000E+00 0.  1.
         -6    2    1    2    0  503  0.19111034183E+02  0.38812660898E+01 -0.20727795036E+03  0.26917522132E+03  0.17061903532E+03 0.  0.
        -24    2    3    3    0    0 -0.31897794682E+02  0.45254252297E+02 -0.16402432535E+03  0.19039330279E+03  0.79247799886E+02 0.  0.
          6    2    1    2  501    0 -0.19111034183E+02 -0.38812660898E+01  0.15128432762E+03  0.23002109911E+03  0.17216986496E+03 0.  0.
         24    2    5    5    0    0 -0.67359775423E+01  0.32737479109E+02  0.16693496457E+02  0.89910941169E+02  0.81781346200E+02 0.  0.
          5    1    5    5  501    0 -0.12375056641E+02 -0.36618745198E+02  0.13459083116E+03  0.14011015794E+03  0.47000000000E+01 0. -1.
        -11    1    6    6    0    0 -0.12197257891E+02 -0.25774492052E+02  0.12066288159E+02  0.30962765551E+02  0.00000000000E+00 0.  1.
         12    1    6    6    0    0  0.54612803486E+01  0.58511971161E+02  0.46272082971E+01  0.58948175619E+02  0.00000000000E+00 0. -1.
         -5    1    3    3    0  503  0.51008828865E+02 -0.41372986207E+02 -0.43253625009E+02  0.78781918524E+02  0.47000000000E+01 0.  1.
         13    1    4    4    0    0 -0.10404434183E+02 -0.19453045704E+02 -0.15486489068E+02  0.26953748932E+02  0.00000000000E+00 0. -1.
        -14    1    4    4    0    0 -0.21493360500E+02  0.64707298002E+02 -0.14853783628E+03  0.16343955386E+03  0.00000000000E+00 0.  1.
</event>
<event>
12    1  0.8406581E-002  0.2607571E+03  0.7818608E-02  0.1106756E+00
         21   -1    0    0  503  502  0.00000000000E+00  0.00000000000E+00  0.14751036762E+03  0.14751036762E+03  0.00000000000E+00 0. -1.
         21   -1    0    0  501  503 -0.00000000000E+00 -0.00000000000E+00 -0.53206785440E+03  0.53206785440E+03  0.00000000000E+00 0.  1.
          6    2    1    2  501    0  0.19527295614E+03 -0.12565154002E+02 -0.31705081805E+03  0.41022448961E+03  0.17167847902E+03 0.  0.
         24    2    3    3    0    0  0.13872780195E+03 -0.54413570732E+02 -0.28820888554E+03  0.33404974632E+03  0.79489820732E+02 0.  0.
         -6    2    1    2    0  502 -0.19527295614E+03  0.12565154002E+02 -0.67506668734E+02  0.26935373241E+03  0.17235101492E+03 0.  0.
        -24    2    5    5    0    0 -0.83400338505E+02  0.68016478163E+02 -0.37974335465E+02  0.14096144044E+03  0.82741886451E+02 0.  0.
          5    1    3    3  501    0  0.56545154183E+02  0.41848416730E+02 -0.28841932511E+02  0.76174743290E+02  0.47000000000E+01 0. -1.
        -13    1    4    4    0    0  0.44638153418E+02  0.61901931481E+01 -0.34508904378E+02  0.56760441446E+02  0.00000000000E+00 0.  1.
         14    1    4    4    0    0  0.94089648536E+02 -0.60603763880E+02 -0.25369998116E+03  0.27728930487E+03  0.00000000000E+00 0. -1.
         -5    1    5    5    0  502 -0.11187261763E+03 -0.55451324161E+02 -0.29532333269E+02  0.12839229196E+03  0.47000000000E+01 0.  1.
         13    1    6    6    0    0 -0.46433532247E+02 -0.11598469953E+02 -0.16135200006E+02  0.50506852025E+02  0.00000000000E+00 0. -1.
        -14    1    6    6    0    0 -0.36966806258E+02  0.79614948117E+02 -0.21839135459E+02  0.90454588419E+02  0.00000000000E+00 0.  1.
</event>
<event>
12    1  0.8406581E-002  0.2175646E+03  0.7818608E-02  0.1135846E+00
         21   -1    0    0  503  502  0.00000000000E+00  0.00000000000E+00  0.23598497436E+03  0.23598497436E+03  0.00000000000E+00 0. -1.
         21   -1    0    0  501  503 -0.00000000000E+00 -0.00000000000E+00 -0.76154827680E+03  0.76154827680E+03  0.00000000000E+00 0. -1.
          6    2    1    2  501    0  0.40366113038E+02  0.12616288044E+03 -0.69121495382E+03  0.72464645197E+03  0.17259163502E+03 0.  0.
         24    2    3    3    0    0 -0.33323385318E+02  0.67220957779E+02 -0.24308870702E+03  0.26666881551E+03  0.79943933571E+02 0.  0.
         -6    2    1    2    0  502 -0.40366113038E+02 -0.12616288044E+03  0.16565165137E+03  0.27288679919E+03  0.17169810741E+03 0.  0.
        -24    2    5    5    0    0 -0.16061722750E+02 -0.10256885813E+03  0.19013711150E+03  0.23082721011E+03  0.79691468581E+02 0.  0.
          5    1    3    3  501    0  0.73689498356E+02  0.58941922661E+02 -0.44812624681E+03  0.45797763646E+03  0.47000000000E+01 0. -1.
        -13    1    4    4    0    0  0.56681907772E+01 -0.39582740711E+01  0.30045311403E+01  0.75381382106E+01  0.00000000000E+00 0.  1.
         14    1    4    4    0    0 -0.38991576095E+02  0.71179231850E+02 -0.24609323816E+03  0.25913067730E+03  0.00000000000E+00 0. -1.
         -5    1    5    5    0  502 -0.24304390288E+02 -0.23594022309E+02 -0.24485460122E+02  0.42059589077E+02  0.47000000000E+01 0.  1.
         11    1    6    6    0    0 -0.28725658766E+02 -0.30735678243E+02  0.21834224191E+02  0.47398087879E+02  0.00000000000E+00 0. -1.
        -12    1    6    6    0    0  0.12663936016E+02 -0.71833179889E+02  0.16830288731E+03  0.18342912223E+03  0.00000000000E+00 0.  1.
</event>
<event>
12    1  0.8406581E-002  0.3492115E+03  0.7818608E-02  0.1062956E+00
         21   -1    0    0  503  502  0.00000000000E+00  0.00000000000E+00  0.36931175941E+03  0.36931175941E+03  0.00000000000E+00 0.  1.
         21   -1    0    0  501  503 -0.00000000000E+00 -0.00000000000E+00 -0.82812503086E+03  0.82812503086E+03  0.00000000000E+00 0. -1.
          6    2    1    2  501    0  0.19404662093E+03  0.23282139098E+03 -0.69371056877E+03  0.77657405247E+03  0.17312716295E+03 0.  0.
         24    2    3    3    0    0  0.14226380500E+03  0.24489981885E+03 -0.55618024397E+03  0.62904768640E+03  0.78419490545E+02 0.  0.
         -6    2    1    2    0  502 -0.19404662093E+03 -0.23282139098E+03  0.23489729732E+03  0.42086273781E+03  0.17346127117E+03 0.  0.
        -24    2    5    5    0    0 -0.61218534553E+01 -0.41161304320E+02  0.74315637605E+02  0.10804031776E+03  0.66469287687E+02 0.  0.
          5    1    3    3  501    0  0.51782815930E+02 -0.12078427870E+02 -0.13753032480E+03  0.14752636606E+03  0.47000000000E+01 0. -1.
        -11    1    4    4    0    0  0.10925488121E+03  0.13255671311E+03 -0.27215136287E+03  0.32182957535E+03  0.00000000000E+00 0.  1.
         12    1    4    4    0    0  0.33008923786E+02  0.11234310574E+03 -0.28402888111E+03  0.30721811105E+03  0.00000000000E+00 0. -1.
         -5    1    5    5    0  502 -0.18792476747E+03 -0.19166008666E+03  0.16058165972E+03  0.31282242005E+03  0.47000000000E+01 0.  1.
         11    1    6    6    0    0  0.17575556394E+02 -0.23648222813E+02  0.15158436032E+01  0.29503159265E+02  0.00000000000E+00 0. -1.
        -12    1    6    6    0    0 -0.23697409850E+02 -0.17513081506E+02  0.72799794002E+02  0.78537158493E+02  0.00000000000E+00 0.  1.
</event>
<event>
12    1  0.8406581E-002  0.1922168E+03  0.7818608E-02  0.1156488E+00
         21   -1    0    0  503  502  0.00000000000E+00  0.00000000000E+00  0.16629918084E+03  0.16629918084E+03  0.00000000000E+00 0. -1.
         21   -1    0    0  501  503 -0.00000000000E+00 -0.00000000000E+00 -0.26925116780E+03  0.26925116780E+03  0.00000000000E+00 0. -1.
          6    2    1    2  501    0 -0.39478500973E+02  0.73835862435E+02 -0.14260069379E+03  0.23933712769E+03  0.17302316666E+03 0.  0.
         24    2    3    3    0    0 -0.70590421953E+02  0.10170292928E+03 -0.12589058532E+03  0.19410613426E+03  0.80636582199E+02 0.  0.
         -6    2    1    2    0  502  0.39478500973E+02 -0.73835862435E+02  0.39648706822E+02  0.19621322095E+03  0.17296624382E+03 0.  0.
        -24    2    5    5    0    0  0.54216411063E+02 -0.27565844695E+02  0.86331859768E+02  0.12868894898E+03  0.73541556668E+02 0.  0.
          5    1    3    3  501    0  0.31111920980E+02 -0.27867066848E+02 -0.16710108463E+02  0.45230993430E+02  0.47000000000E+01 0. -1.
        -13    1    4    4    0    0 -0.77284691389E+01  0.81258796655E+02 -0.68084485716E+02  0.10629307816E+03  0.00000000000E+00 0.  1.
         14    1    4    4    0    0 -0.62861952814E+02  0.20444132628E+02 -0.57806099606E+02  0.87813056103E+02  0.00000000000E+00 0. -1.
         -5    1    5    5    0  502 -0.14737910091E+02 -0.46270017739E+02 -0.46683152946E+02  0.67524271965E+02  0.47000000000E+01 0.  1.
         13    1    6    6    0    0  0.39303671348E+02  0.18313914823E+02  0.59069719994E+02  0.73276257258E+02  0.00000000000E+00 0. -1.
        -14    1    6    6    0    0  0.14912739715E+02 -0.45879759518E+02  0.27262139774E+02  0.55412691726E+02  0.00000000000E+00 0.  1.
</event>
<event>
12    1  0.8406581E-002  0.1901154E+03  0.7818608E-02  0.1159774E+00
         21   -1    0    0  501  502  0.00000000000E+00  0.00000000000E+00  0.61929254982E+02  0.61929254982E+02  0.00000000000E+00 0. -1.
         21   -1    0    0  502  503 -0.00000000000E+00 -0.00000000000E+00 -0.56679873060E+03  0.56679873060E+03  0.00000000000E+00 0. -1.
         -6    2    1    2    0  503 -0.54888752166E+02  0.55250614679E+02 -0.27517614379E+03  0.33446343579E+03  0.17343146839E+03 0.  0.
        -24    2    3    3    0    0 -0.59102324114E+02 -0.59023226244E+01 -0.73794889482E+02  0.12390718317E+03  0.79871034791E+02 0.  0.
          6    2    1    2  501    0  0.54888752166E+02 -0.55250614679E+02 -0.22969333182E+03  0.29426454979E+03  0.16663490944E+03 0.  0.
         24    2    5    5    0    0  0.61693411624E+02 -0.98408527266E+02 -0.15313713464E+03  0.20599309270E+03  0.74107064171E+02 0.  0.
          5    1    5    5  501    0 -0.68046594574E+01  0.43157912588E+02 -0.76556197187E+02  0.88271457091E+02  0.47000000000E+01 0. -1.
        -11    1    6    6    0    0  0.66429350960E+02 -0.56152613987E+02 -0.13306630453E+03  0.15897363344E+03  0.00000000000E+00 0.  1.
         12    1    6    6    0    0 -0.47359393365E+01 -0.42255913280E+02 -0.20070830104E+02  0.47019459265E+02  0.00000000000E+00 0. -1.
         -5    1    3    3    0  503  0.42135719481E+01  0.61152937303E+02 -0.20138125431E+03  0.21055625262E+03  0.47000000000E+01 0.  1.
         11    1    4    4    0    0  0.14466391067E+02  0.26130001477E+01  0.52298779423E+01  0.15603072248E+02  0.00000000000E+00 0. -1.
        -12    1    4    4    0    0 -0.73568715182E+02 -0.85153227721E+01 -0.79024767425E+02  0.10830411092E+03  0.00000000000E+00 0.  1.
</event>
<event>
12    1  0.8406581E-002  0.1828604E+03  0.7818608E-02  0.1165475E+00
         21   -1    0    0  501  502  0.00000000000E+00  0.00000000000E+00  0.17565905199E+03  0.17565905199E+03  0.00000000000E+00 0.  1.
         21   -1    0    0  502  503 -0.00000000000E+00 -0.00000000000E+00 -0.20096569568E+03  0.20096569568E+03  0.00000000000E+00 0.  1.
         -6    2    1    2    0  503  0.28557127103E+02  0.51279693396E+02 -0.59493133658E+02  0.19229495567E+03  0.17318429652E+03 0.  0.
        -24    2    3    3    0    0  0.44896300249E+02  0.57184417886E+02  0.20897696897E+02  0.10991407204E+03  0.79741169239E+02 0.  0.
          6    2    1    2  501    0 -0.28557127103E+02 -0.51279693396E+02  0.34186489963E+02  0.18432979200E+03  0.17135822028E+03 0.  0.
         24    2    5    5    0    0 -0.29187546903E+02 -0.72136780432E+02  0.80088169029E+02  0.13368919909E+03  0.73505504219E+02 0.  0.
          5    1    5    5  501    0  0.63041980060E+00  0.20857087036E+02 -0.45901679066E+02  0.50640592905E+02  0.47000000000E+01 0. -1.
        -11    1    6    6    0    0 -0.41234984232E+02 -0.71195548412E+02  0.39357710982E+02  0.91203944279E+02  0.00000000000E+00 0.  1.
         12    1    6    6    0    0  0.12047437329E+02 -0.94123201954E+00  0.40730458047E+02  0.42485254814E+02  0.00000000000E+00 0. -1.
         -5    1    3    3    0  503 -0.16339173146E+02 -0.59047244903E+01 -0.80390830555E+02  0.82380883630E+02  0.47000000000E+01 0.  1.
         13    1    4    4    0    0  0.18256629217E+02  0.17251082947E+02 -0.30549461364E+02  0.39549639225E+02  0.00000000000E+00 0. -1.
        -14    1    4    4    0    0  0.26639671032E+02  0.39933334939E+02  0.51447158261E+02  0.70364432813E+02  0.00000000000E+00 0.  1.
</event>
<event>
12    1  0.8406581E-002  0.1826854E+03  0.7818608E-02  0.1165450E+00
         21   -1    0    0  503  502  0.00000000000E+00  0.00000000000E+00  0.22310213954E+03  0.22310213954E+03  0.00000000000E+00 0.  1.
         21   -1    0    0  501  503 -0.00000000000E+00 -0.00000000000E+00 -0.16874668088E+03  0.16874668088E+03  0.00000000000E+00 0.  1.
          6    2    1    2  501    0 -0.33990759636E+02  0.49016469796E+02 -0.40067641093E+02  0.18702776088E+03  0.17267304777E+03 0.  0.
         24    2    3    3    0    0  0.24644102155E+02 -0.15534733731E+02 -0.78858234550E+01  0.93954325999E+02  0.88975105727E+02 0.  0.
         -6    2    1    2    0  502  0.33990759636E+02 -0.49016469796E+02  0.94423099750E+02  0.20482105955E+03  0.17169146343E+03 0.  0.
        -24    2    5    5    0    0  0.41834478946E+02 -0.83699996533E+02  0.22661876872E+02  0.12459491625E+03  0.79085519806E+02 0.  0.
          5    1    3    3  501    0 -0.58634861790E+02  0.64551203526E+02 -0.32181817638E+02  0.93073434880E+02  0.47000000000E+01 0. -1.
        -13    1    4    4    0    0  0.40739106529E+01 -0.49190974339E+02 -0.19132493306E+02  0.52937708720E+02  0.00000000000E+00 0.  1.
         14    1    4    4    0    0  0.20570191502E+02  0.33656240608E+02  0.11246669851E+02  0.41016617279E+02  0.00000000000E+00 0. -1.
         -5    1    5    5    0  502 -0.78437193105E+01  0.34683526737E+02  0.71761222878E+02  0.80226143298E+02  0.47000000000E+01 0.  1.
         11    1    6    6    0    0  0.80147803616E+01  0.22183768174E+01 -0.20904609442E+02  0.22498013154E+02  0.00000000000E+00 0. -1.
        -12    1    6    6    0    0  0.33819698585E+02 -0.85918373350E+02  0.43566486314E+02  0.10209690309E+03  0.00000000000E+00 0.  1.
</event>
<event>
12    1  0.8406581E-002  0.2290874E+03  0.7818608E-02  0.1127752E+00
         21   -1    0    0  503  502  0.00000000000E+00  0.00000000000E+00  0.10217136704E+03  0.10217136704E+03  0.00000000000E+00 0.  1.
         21   -1    0    0  501  503 -0.00000000000E+00 -0.00000000000E+00 -0.55702295847E+03  0.55702295847E+03  0.00000000000E+00 0.  1.
          6    2    1    2  501    0  0.14371002991E+03 -0.43765220804E+02 -0.32422852904E+03  0.39548344274E+03  0.16945514802E+03 0.  0.
         24    2    3    3    0    0  0.79265521588E+02 -0.15939026522E+02 -0.30098408418E+03  0.32139035293E+03  0.78506461800E+02 0.  0.
         -6    2    1    2    0  502 -0.14371002991E+03  0.43765220804E+02 -0.13062306240E+03  0.26371088277E+03  0.17295397658E+03 0.  0.
        -24    2    5    5    0    0 -0.52991611468E+02  0.76047746452E+02 -0.37494126126E+02  0.12966953961E+03  0.82565182625E+02 0.  0.
          5    1    3    3  501    0  0.64444508321E+02 -0.27826194283E+02 -0.23244444852E+02  0.74093089809E+02  0.47000000000E+01 0. -1.
        -13    1    4    4    0    0  0.42301914540E+02 -0.47698124488E+02 -0.16083169031E+03  0.17300692374E+03  0.00000000000E+00 0.  1.
         14    1    4    4    0    0  0.36963607048E+02  0.31759097966E+02 -0.14015239387E+03  0.14838342919E+03  0.00000000000E+00 0. -1.
         -5    1    5    5    0  502 -0.90718418441E+02 -0.32282525647E+02 -0.93128936272E+02  0.13404134317E+03  0.47000000000E+01 0.  1.
         11    1    6    6    0    0  0.82572847394E+01 -0.13357947161E+02 -0.34972430361E+01  0.16088760439E+02  0.00000000000E+00 0. -1.
        -12    1    6    6    0    0 -0.61248896208E+02  0.89405693612E+02 -0.33996883089E+02  0.11358077917E+03  0.00000000000E+00 0.  1.
</event>
<event>
12    1  0.8406581E-002  0.1957218E+03  0.7818608E-02  0.1154818E+00
         21   -1    0    0  503  502  0.00000000000E+00  0.00000000000E+00  0.38520735664E+03  0.38520735664E+03  0.00000000000E+00 0.  1.
         21   -1    0    0  501  503 -0.00000000000E+00 -0.00000000000E+00 -0.12579986469E+03  0.12579986469E+03  0.00000000000E+00 0.  1.
          6    2    1    2  501    0 -0.77533719441E+02  0.55683448242E+01  0.41429778367E+01  0.18934438506E+03  0.17260257175E+03 0.  0.
         24    2    3    3    0    0 -0.10185265449E+03 -0.38078719369E+02  0.18645841739E+02  0.13710551184E+03  0.81402099892E+02 0.  0.
         -6    2    1    2    0  502  0.77533719441E+02 -0.55683448242E+01  0.25526451411E+03  0.32166283626E+03  0.17962328343E+03 0.  0.
        -24    2    5    5    0    0  0.30395025620E+02  0.39027098629E+02  0.50410805387E+02  0.10672577103E+03  0.80013554427E+02 0.  0.
          5    1    3    3  501    0  0.24318935045E+02  0.43647064193E+02 -0.14502863903E+02  0.52238873225E+02  0.47000000000E+01 0. -1.
        -13    1    4    4    0    0 -0.39618212672E+02 -0.51055067158E+02  0.32050170123E+02  0.72134846383E+02  0.00000000000E+00 0.  1.
         14    1    4    4    0    0 -0.62234441815E+02  0.12976347789E+02 -0.13404328383E+02  0.64970665453E+02  0.00000000000E+00 0. -1.
         -5    1    5    5    0  502  0.47138693821E+02 -0.44595443453E+02  0.20485370873E+03  0.21493706523E+03  0.47000000000E+01 0.  1.
         11    1    6    6    0    0 -0.25589160408E+01  0.56609784418E+02  0.28657622535E+02  0.63501772199E+02  0.00000000000E+00 0. -1.
        -12    1    6    6    0    0  0.32953941661E+02 -0.17582685789E+02  0.21753182853E+02  0.43223998829E+02  0.00000000000E+00 0.  1.
</event>
<event>
12    1  0.8406581E-002  0.2219089E+03  0.7818608E-02  0.1132668E+00
         21   -1    0    0  503  502  0.00000000000E+00  0.00000000000E+00  0.63486278366E+03  0.63486278366E+03  0.00000000000E+00 0.  1.
         21   -1    0    0  501  503 -0.00000000000E+00 -0.00000000000E+00 -0.92897743276E+02  0.92897743276E+02  0.00000000000E+00 0.  1.
          6    2    1    2  501    0  0.13808012612E+03  0.12749829496E+00  0.12079788041E+03  0.25170871830E+03  0.17233401716E+03 0.  0.
         24    2    3    3    0    0  0.81504695400E+02  0.16932742665E+02  0.14718040658E+03  0.18689110274E+03  0.79602004083E+02 0.  0.
         -6    2    1    2    0  502 -0.13808012612E+03 -0.12749829496E+00  0.42116715998E+03  0.47605180864E+03  0.17371646548E+03 0.  0.
        -24    2    5    5    0    0 -0.90330358201E+02 -0.55988519331E+02  0.26890069909E+03  0.30691382024E+03  0.10292822341E+03 0.  0.
          5    1    3    3  501    0  0.56575430723E+02 -0.16805244370E+02 -0.26382526176E+02  0.64817615563E+02  0.47000000000E+01 0. -1.
        -11    1    4    4    0    0  0.81380215187E+02  0.20744467992E+02  0.69205895773E+02  0.10882338161E+03  0.00000000000E+00 0.  1.
         12    1    4    4    0    0  0.12448021226E+00 -0.38117253275E+01  0.77974510809E+02  0.78067721122E+02  0.00000000000E+00 0. -1.
         -5    1    5    5    0  502 -0.47749767922E+02  0.55861021036E+02  0.15226646089E+03  0.16913798840E+03  0.47000000000E+01 0.  1.
         13    1    6    6    0    0  0.22976271484E+02 -0.41673765264E+01  0.43006664378E+02  0.48937197093E+02  0.00000000000E+00 0. -1.
        -14    1    6    6    0    0 -0.11330662968E+03 -0.51821142804E+02  0.22589403471E+03  0.25797662315E+03  0.00000000000E+00 0.  1.
</event>
<event>
12    1  0.8406581E-002  0.2917786E+03  0.7818608E-02  0.1089476E+00
         21   -1    0    0  501  502  0.00000000000E+00  0.00000000000E+00  0.23538690117E+03  0.23538690117E+03  0.00000000000E+00 0.  1.
         21   -1    0    0  502  503 -0.00000000000E+00 -0.00000000000E+00 -0.41105664711E+03  0.41105664711E+03  0.00000000000E+00 0. -1.
         -6    2    1    2    0  503  0.18885603345E+03  0.14037081721E+03 -0.20036600135E+03  0.35362171220E+03  0.17184648135E+03 0.  0.
        -24    2    3    3    0    0  0.59962615355E+02  0.42058385096E+02 -0.16918863806E+02  0.10876708225E+03  0.78610477877E+02 0.  0.
          6    2    1    2  501    0 -0.18885603345E+03 -0.14037081721E+03  0.24696255407E+02  0.29282183609E+03  0.17252291142E+03 0.  0.
         24    2    5    5    0    0 -0.21193455345E+03 -0.11024343592E+03  0.26520207055E+02  0.25453745299E+03  0.83762303473E+02 0.  0.
          5    1    5    5  501    0  0.23078520007E+02 -0.30127381293E+02 -0.18239516478E+01  0.38284383094E+02  0.47000000000E+01 0. -1.
        -13    1    6    6    0    0 -0.10777342379E+02 -0.22230028506E+01  0.23771723285E+02  0.26195184259E+02  0.00000000000E+00 0.  1.
         14    1    6    6    0    0 -0.20115721108E+03 -0.10802043307E+03  0.27484837701E+01  0.22834226873E+03  0.00000000000E+00 0. -1.
         -5    1    3    3    0  503  0.12889341809E+03  0.98312432115E+02 -0.18344713754E+03  0.24485462995E+03  0.47000000000E+01 0.  1.
         13    1    4    4    0    0  0.20550480359E+02  0.34775907763E+02 -0.44511591075E+02  0.60107967390E+02  0.00000000000E+00 0. -1.
        -14    1    4    4    0    0  0.39412134996E+02  0.72824773325E+01  0.27592727269E+02  0.48659114862E+02  0.00000000000E+00 0.  1.
</event>
<event>
12    1  0.8406581E-002  0.1748696E+03  0.7818608E-02  0.1173356E+00
         21   -1    0    0  503  502  0.00000000000E+00  0.00000000000E+00  0.23277535079E+03  0.23277535079E+03  0.00000000000E+00 0. -1.
         21   -1    0    0  501  503 -0.00000000000E+00 -0.00000000000E+00 -0.22332738384E+03  0.22332738384E+03  0.00000000000E+00 0. -1.
          6    2    1    2  501    0 -0.19252677558E+02 -0.44187298543E+01 -0.14275641528E+03  0.22574048992E+03  0.17375034941E+03 0.  0.
         24    2    3    3    0    0 -0.42835773452E+02  0.13155450175E+02 -0.16504085150E+03  0.18854236747E+03  0.79383703063E+02 0.  0.
         -6    2    1    2    0  502  0.19252677558E+02  0.44187298543E+01  0.15220438222E+03  0.23036224471E+03  0.17178591053E+03 0.  0.
        -24    2    5    5    0    0  0.55210267605E+02 -0.34955837261E+02  0.51450991152E+02  0.11627175155E+03  0.81251655436E+02 0.  0.
          5    1    3    3  501    0  0.23583095893E+02 -0.17574180029E+02  0.22284436224E+02  0.37198122445E+02  0.47000000000E+01 0. -1.
        -13    1    4    4    0    0 -0.28788869513E+02 -0.70073784744E+01 -0.95628213522E+01  0.31134384740E+02  0.00000000000E+00 0.  1.
         14    1    4    4    0    0 -0.14046903939E+02  0.20162828649E+02 -0.15547803015E+03  0.15740798273E+03  0.00000000000E+00 0. -1.
         -5    1    5    5    0  502 -0.35957590047E+02  0.39374567115E+02  0.10075339107E+03  0.11409049316E+03  0.47000000000E+01 0.  1.
         13    1    6    6    0    0 -0.77071289190E+00  0.17064067115E+02  0.33753849506E+02  0.37829865733E+02  0.00000000000E+00 0. -1.
        -14    1    6    6    0    0  0.55980980497E+02 -0.52019904376E+02  0.17697141645E+02  0.78441885820E+02  0.00000000000E+00 0.  1.
</event>
<event>
12    1  0.8406581E-002  0.2123702E+03  0.7818608E-02  0.1140148E+00
         21   -1    0    0  501  502  0.00000000000E+00  0.00000000000E+00  0.11089965771E+04  0.11089965771E+04  0.00000000000E+00 0.  1.
         21   -1    0    0  502  503 -0.00000000000E+00 -0.00000000000E+00 -0.46086789610E+02  0.46086789610E+02  0.00000000000E+00 0.  1.
         -6    2    1    2    0  503 -0.19477118846E+02 -0.12305978150E+03  0.32815400009E+03  0.39087866787E+03  0.17198260737E+03 0.  0.
        -24    2    3    3    0    0 -0.40689801059E+02 -0.56802851485E+02  0.29300899876E+03  0.31279397167E+03  0.84282688104E+02 0.  0.
          6    2    1    2  501    0  0.19477118846E+02  0.12305978150E+03  0.73475578742E+03  0.76420469886E+03  0.16917354001E+03 0.  0.
         24    2    5    5    0    0  0.65591026587E+02  0.12711592166E+03  0.57896215203E+03  0.60161105942E+03  0.79234165766E+02 0.  0.
          5    1    5    5  501    0 -0.46113907741E+02 -0.40561401603E+01  0.15579363538E+03  0.16259363944E+03  0.47000000000E+01 0. -1.
        -13    1    6    6    0    0  0.19646969084E+02  0.65325149580E+02  0.13758266723E+03  0.15356551984E+03  0.00000000000E+00 0.  1.
         14    1    6    6    0    0  0.45944057502E+02  0.61790772077E+02  0.44137948480E+03  0.44804553958E+03  0.00000000000E+00 0. -1.
         -5    1    3    3    0  503  0.21212682213E+02 -0.66256930011E+02  0.35145001334E+02  0.78084696196E+02  0.47000000000E+01 0.  1.
         13    1    4    4    0    0 -0.25177821206E+02 -0.39498045363E+02  0.49389912248E+02  0.68068948133E+02  0.00000000000E+00 0. -1.
        -14    1    4    4    0    0 -0.15511979853E+02 -0.17304806122E+02  0.24361908651E+03  0.24472502354E+03  0.00000000000E+00 0.  1.
</event>
<event>
12    1  0.8406581E-002  0.1933869E+03  0.7818608E-02  0.1155960E+00
         21   -1    0    0  501  502  0.00000000000E+00  0.00000000000E+00  0.91063708561E+03  0.91063708561E+03  0.00000000000E+00 0.  1.
         21   -1    0    0  502  503 -0.00000000000E+00 -0.00000000000E+00 -0.83803708255E+02  0.83803708255E+02  0.00000000000E+00 0.  1.
         -6    2    1    2    0  503  0.82227197336E+02 -0.34630059182E+02  0.55086267337E+02  0.19883278440E+03  0.16893616049E+03 0.  0.
        -24    2    3    3    0    0  0.50202223402E+02 -0.65408383085E+02 -0.14546211102E+02  0.11610626972E+03  0.80439752596E+02 0.  0.
          6    2    1    2  501    0 -0.82227197336E+02  0.34630059182E+02  0.77174711002E+03  0.79560800947E+03  0.17157491054E+03 0.  0.
         24    2    5    5    0    0 -0.11943442049E+03  0.46328872355E+02  0.54678110684E+03  0.56723762551E+03  0.79862380272E+02 0.  0.
          5    1    5    5  501    0  0.37207223151E+02 -0.11698813173E+02  0.22496600318E+03  0.22837038397E+03  0.47000000000E+01 0. -1.
        -13    1    6    6    0    0 -0.44194929323E+02 -0.21217134057E+02  0.15178393926E+03  0.15950461677E+03  0.00000000000E+00 0.  1.
         14    1    6    6    0    0 -0.75239491164E+02  0.67546006412E+02  0.39499716758E+03  0.40773300873E+03  0.00000000000E+00 0. -1.
         -5    1    3    3    0  503  0.32024973934E+02  0.30778323903E+02  0.69632478439E+02  0.82726514681E+02  0.47000000000E+01 0.  1.
         13    1    4    4    0    0 -0.74593012633E+01 -0.50098429630E+02  0.99409055418E+01  0.51617007175E+02  0.00000000000E+00 0. -1.
        -14    1    4    4    0    0  0.57661524666E+02 -0.15309953454E+02 -0.24487116644E+02  0.64489262541E+02  0.00000000000E+00 0.  1.
</event>
<event>
12    1  0.8406581E-002  0.1899459E+03  0.7818608E-02  0.1158763E+00
         21   -1    0    0  501  502  0.00000000000E+00  0.00000000000E+00  0.16589955605E+03  0.16589955605E+03  0.00000000000E+00 0. -1.
         21   -1    0    0  502  503 -0.00000000000E+00 -0.00000000000E+00 -0.26898384656E+03  0.26898384656E+03  0.00000000000E+00 0. -1.
         -6    2    1    2    0  503 -0.79994576324E+02  0.18220548560E+02 -0.14798899072E+03  0.24079079060E+03  0.17131358042E+03 0.  0.
        -24    2    3    3    0    0 -0.93538134947E+02  0.87124074113E+00 -0.36505766402E+02  0.12705853587E+03  0.77852802184E+02 0.  0.
          6    2    1    2  501    0  0.79994576324E+02 -0.18220548560E+02  0.44904700209E+02  0.19409261200E+03  0.17007171811E+03 0.  0.
         24    2    5    5    0    0  0.10489905703E+03 -0.17401815272E+01 -0.84727649333E+01  0.13274866820E+03  0.80892402389E+02 0.  0.
          5    1    5    5  501    0 -0.24904480708E+02 -0.16480367033E+02  0.53377465142E+02  0.61343943808E+02  0.47000000000E+01 0. -1.
        -13    1    6    6    0    0  0.35405646928E+02  0.29132963982E+02 -0.28661199003E+02  0.54071746347E+02  0.00000000000E+00 0.  1.
         14    1    6    6    0    0  0.69493410104E+02 -0.30873145509E+02  0.20188434069E+02  0.78676921849E+02  0.00000000000E+00 0. -1.
         -5    1    3    3    0  503  0.13543558623E+02  0.17349307819E+02 -0.11148322432E+03  0.11373225473E+03  0.47000000000E+01 0.  1.
         11    1    4    4    0    0 -0.51992661562E+02  0.25920915848E+02 -0.50058979521E+02  0.76687887996E+02  0.00000000000E+00 0. -1.
        -12    1    4    4    0    0 -0.41545473385E+02 -0.25049675107E+02  0.13553213119E+02  0.50370647877E+02  0.00000000000E+00 0.  1.
</event>
<event>
12    1  0.8406581E-002  0.1748175E+03  0.7818608E-02  0.1172999E+00
         21   -1    0    0  501  502  0.00000000000E+00  0.00000000000E+00  0.41276382487E+02  0.41276382487E+02  0.00000000000E+00 0.  1.
         21   -1    0    0  502  503 -0.00000000000E+00 -0.00000000000E+00 -0.86029153381E+03  0.86029153381E+03  0.00000000000E+00 0.  1.
         -6    2    1    2    0  503 -0.25842252533E+02 -0.20918920609E+02 -0.57910509517E+03  0.60491642197E+03  0.17162675508E+03 0.  0.
        -24    2    3    3    0    0 -0.29805286569E+02 -0.78037077899E+02 -0.43542512840E+03  0.45017724664E+03  0.78015192843E+02 0.  0.
          6    2    1    2  501    0  0.25842252533E+02  0.20918920609E+02 -0.23991005616E+03  0.29665149433E+03  0.17128879353E+03 0.  0.
         24    2    5    5    0    0  0.19224690685E+02 -0.49542193088E+02 -0.17783840930E+03  0.20239896115E+03  0.80714447421E+02 0.  0.
          5    1    5    5  501    0  0.66175618477E+01  0.70461113698E+02 -0.62071646855E+02  0.94252533184E+02  0.47000000000E+01 0. -1.
        -11    1    6    6    0    0 -0.35870372423E+01 -0.24429180998E+02 -0.36765321260E+01  0.24963345307E+02  0.00000000000E+00 0.  1.
         12    1    6    6    0    0  0.22811727928E+02 -0.25113012090E+02 -0.17416187717E+03  0.17743561584E+03  0.00000000000E+00 0. -1.
         -5    1    3    3    0  503  0.39630340353E+01  0.57118157290E+02 -0.14367996676E+03  0.15473917533E+03  0.47000000000E+01 0.  1.
         11    1    4    4    0    0  0.20155318944E+02 -0.37092761234E+01 -0.42610026435E+02  0.47282237298E+02  0.00000000000E+00 0. -1.
        -12    1    4    4    0    0 -0.49960605512E+02 -0.74327801776E+02 -0.39281510197E+03  0.40289500934E+03  0.00000000000E+00 0.  1.
</event>
<event>
12    1  0.8406581E-002  0.1976352E+03  0.7818608E-02  0.1152011E+00
         21   -1    0    0  501  502  0.00000000000E+00  0.00000000000E+00  0.23893177245E+03  0.23893177245E+03  0.00000000000E+00 0. -1.
         21   -1    0    0  502  503 -0.00000000000E+00 -0.00000000000E+00 -0.60050710934E+03  0.60050710934E+03  0.00000000000E+00 0. -1.
         -6    2    1    2    0  503 -0.21343198765E+02  0.94388210412E+02 -0.53940871081E+03  0.57447491874E+03  0.17232239714E+03 0.  0.
        -24    2    3    3    0    0  0.46276571868E+02  0.43643354348E+02 -0.38250278810E+03  0.39618012807E+03  0.81265290791E+02 0.  0.
          6    2    1    2  501    0  0.21343198765E+02 -0.94388210412E+02  0.17783337393E+03  0.26496396305E+03  0.17092842488E+03 0.  0.
         24    2    5    5    0    0 -0.24693353531E+02 -0.41721291108E+02  0.27816449925E+02  0.99373093663E+02  0.82163428710E+02 0.  0.
          5    1    5    5  501    0  0.46036552296E+02 -0.52666919304E+02  0.15001692400E+03  0.16559086938E+03  0.47000000000E+01 0. -1.
        -11    1    6    6    0    0  0.17718584796E+02  0.74885588657E+01  0.28524747118E+02  0.34404766518E+02  0.00000000000E+00 0.  1.
         12    1    6    6    0    0 -0.42411938326E+02 -0.49209849974E+02 -0.70829719292E+00  0.64968327144E+02  0.00000000000E+00 0. -1.
         -5    1    3    3    0  503 -0.67619770633E+02  0.50744856064E+02 -0.15690592271E+03  0.17829479067E+03  0.47000000000E+01 0.  1.
         13    1    4    4    0    0  0.11463145749E+02 -0.22572094715E+02 -0.60148375304E+02  0.65258947447E+02  0.00000000000E+00 0. -1.
        -14    1    4    4    0    0  0.34813426119E+02  0.66215449062E+02 -0.32235441280E+03  0.33092118062E+03  0.00000000000E+00 0.  1.
</event>
<event>
12    1  0.8406581E-002  0.2159268E+03  0.7818608E-02  0.1136991E+00
         21   -1    0    0  503  502  0.00000000000E+00  0.00000000000E+00  0.45238782189E+03  0.45238782189E+03  0.00000000000E+00 0.  1.
         21   -1    0    0  501  503 -0.00000000000E+00 -0.00000000000E+00 -0.14539927653E+03  0.14539927653E+03  0.00000000000E+00 0. -1.
          6    2    1    2  501    0  0.90826770317E+02  0.93838991718E+02 -0.79953860030E+01  0.21589805790E+03  0.17173464017E+03 0.  0.
         24    2    3    3    0    0  0.80434397673E+01  0.74267932442E+02  0.41194551954E+02  0.11752201318E+03  0.80833221875E+02 0.  0.
         -6    2    1    2    0  502 -0.90826770317E+02 -0.93838991718E+02  0.31498393136E+03  0.38188904052E+03  0.17195669131E+03 0.  0.
        -24    2    5    5    0    0 -0.37693858288E+02 -0.12371392209E+03  0.19359032923E+03  0.24596952594E+03  0.79358872546E+02 0.  0.
          5    1    3    3  501    0  0.82783330550E+02  0.19571059276E+02 -0.49189937957E+02  0.98376044718E+02  0.47000000000E+01 0. -1.
        -11    1    4    4    0    0 -0.32584236534E+02  0.11836249067E+02  0.20241227769E+02  0.40143948038E+02  0.00000000000E+00 0.  1.
         12    1    4    4    0    0  0.40627676302E+02  0.62431683375E+02  0.20953324185E+02  0.77378065142E+02  0.00000000000E+00 0. -1.
         -5    1    5    5    0  502 -0.53132912029E+02  0.29874930370E+02  0.12139360213E+03  0.13591951458E+03  0.47000000000E+01 0.  1.
         13    1    6    6    0    0 -0.12900253669E+02 -0.11542148706E+03  0.18503082792E+03  0.21846039343E+03  0.00000000000E+00 0. -1.
        -14    1    6    6    0    0 -0.24793604619E+02 -0.82924350310E+01  0.85595013061E+01  0.27509132508E+02  0.00000000000E+00 0.  1.
</event>
<event>
12    1  0.8406581E-002  0.1826928E+03  0.7818608E-02  0.1165498E+00
         21   -1    0    0  501  502  0.00000000000E+00  0.00000000000E+00  0.51244397412E+03  0.51244397412E+03  0.00000000000E+00 0.  1.
         21   -1    0    0  502  503 -0.00000000000E+00 -0.00000000000E+00 -0.62780351639E+03  0.62780351639E+03  0.00000000000E+00 0.  1.
         -6    2    1    2    0  503 -0.40876464035E+02 -0.40185018938E+02 -0.59759839619E+03  0.62456252230E+03  0.17224627741E+03 0.  0.
        -24    2    3    3    0    0  0.15689151673E+02 -0.38118688712E+02 -0.16394921907E+03  0.18720953281E+03  0.80429340622E+02 0.  0.
          6    2    1    2  501    0  0.40876464035E+02  0.40185018938E+02  0.48223885392E+03  0.51568496820E+03  0.17346744115E+03 0.  0.
         24    2    5    5    0    0  0.54896895750E+02 -0.34383368891E+02  0.32939630483E+03  0.34498068652E+03  0.79459821432E+02 0.  0.
          5    1    5    5  501    0 -0.14020431715E+02  0.74568387829E+02  0.15284254910E+03  0.17070428168E+03  0.47000000000E+01 0. -1.
        -11    1    6    6    0    0  0.63152334680E+01 -0.47734771905E+02  0.11364688431E+03  0.12342651634E+03  0.00000000000E+00 0.  1.
         12    1    6    6    0    0  0.48581662282E+02  0.13351403014E+02  0.21574942052E+03  0.22155417018E+03  0.00000000000E+00 0. -1.
         -5    1    3    3    0  503 -0.56565615708E+02 -0.20663302256E+01 -0.43364917712E+03  0.43735298949E+03  0.47000000000E+01 0.  1.
         11    1    4    4    0    0  0.63671266063E+01  0.24967962998E+02 -0.59365957978E+02  0.64716740061E+02  0.00000000000E+00 0. -1.
        -12    1    4    4    0    0  0.93220250667E+01 -0.63086651711E+02 -0.10458326109E+03  0.12249279275E+03  0.00000000000E+00 0.  1.
</event>
<event>
12    1  0.8406581E-002  0.2295749E+03  0.7818608E-02  0.1127936E+00
         21   -1    0    0  503  502  0.00000000000E+00  0.00000000000E+00  0.72243467256E+02  0.72243467256E+02  0.00000000000E+00 0.  1.
         21   -1    0    0  501  503 -0.00000000000E+00 -0.00000000000E+00 -0.98649628398E+03  0.98649628398E+03  0.00000000000E+00 0.  1.
          6    2    1    2  501    0 -0.14505848936E+03 -0.41133356945E+02 -0.74044920047E+03  0.77522231705E+03  0.17312048980E+03 0.  0.
         24    2    3    3    0    0 -0.57511354592E+02 -0.29017999369E+02 -0.17646576135E+03  0.20433643328E+03  0.80396597188E+02 0.  0.
         -6    2    1    2    0  502  0.14505848936E+03  0.41133356945E+02 -0.17380361626E+03  0.28351743419E+03  0.16565180372E+03 0.  0.
        -24    2    5    5    0    0  0.12020074560E+03  0.85856949003E+02 -0.15477095465E+03  0.22872291513E+03  0.80873287099E+02 0.  0.
          5    1    3    3  501    0 -0.87547134767E+02 -0.12115357576E+02 -0.56398343912E+03  0.57088588377E+03  0.47000000000E+01 0. -1.
        -13    1    4    4    0    0 -0.74854274172E+02 -0.12291123385E+02 -0.15264444620E+03  0.17045398509E+03  0.00000000000E+00 0.  1.
         14    1    4    4    0    0  0.17342919580E+02 -0.16726875984E+02 -0.23821315154E+02  0.33882448190E+02  0.00000000000E+00 0. -1.
         -5    1    5    5    0  502  0.24857743761E+02 -0.44723592058E+02 -0.19032661608E+02  0.54794519063E+02  0.47000000000E+01 0.  1.
         13    1    6    6    0    0 -0.42119617249E+01  0.19151768753E+02 -0.50623916964E+00  0.19615992099E+02  0.00000000000E+00 0. -1.
        -14    1    6    6    0    0  0.12441270732E+03  0.66705180250E+02 -0.15426471548E+03  0.20910692303E+03  0.00000000000E+00 0.  1.
</event>
<event>
12    1  0.8406581E-002  0.2083095E+03  0.7818608E-02  0.1143073E+00
         21   -1    0    0  501  502  0.00000000000E+00  0.00000000000E+00  0.35193432625E+03  0.35193432625E+03  0.00000000000E+00 0.  1.
         21   -1    0    0  502  503 -0.00000000000E+00 -0.00000000000E+00 -0.14589529792E+03  0.14589529792E+03  0.00000000000E+00 0.  1.
         -6    2    1    2    0  503  0.24701375191E+01 -0.11674564889E+03  0.41973817576E+01  0.20835182577E+03  0.17250280338E+03 0.  0.
        -24    2    3    3    0    0 -0.64499895654E+02 -0.83268802494E+02 -0.10559747836E+02  0.13189564576E+03  0.78683054641E+02 0.  0.
          6    2    1    2  501    0 -0.24701375191E+01  0.11674564889E+03  0.20184164657E+03  0.28947779840E+03  0.17152754113E+03 0.  0.
         24    2    5    5    0    0 -0.95040110769E+01  0.15067466091E+03  0.15136703182E+03  0.22807397142E+03  0.79451736621E+02 0.  0.
          5    1    5    5  501    0  0.70338735579E+01 -0.33929012024E+02  0.50474614746E+02  0.61403826981E+02  0.47000000000E+01 0. -1.
        -11    1    6    6    0    0 -0.23179537023E+02  0.14495018353E+03  0.15429026157E+03  0.21296321620E+03  0.00000000000E+00 0.  1.
         12    1    6    6    0    0  0.13675525946E+02  0.57244773799E+01 -0.29232297451E+01  0.15110755220E+02  0.00000000000E+00 0. -1.
         -5    1    3    3    0  503  0.66970033174E+02 -0.33476846391E+02  0.14757129593E+02  0.76456180008E+02  0.47000000000E+01 0.  1.
         11    1    4    4    0    0 -0.19882686452E+02  0.11637563289E+02  0.98528167301E+01  0.25056577927E+02  0.00000000000E+00 0. -1.
        -12    1    4    4    0    0 -0.44617209202E+02 -0.94906365783E+02 -0.20412564566E+02  0.10683906783E+03  0.00000000000E+00 0.  1.
</event>
<event>
12    1  0.8406581E-002  0.2143033E+03  0.7818608E-02  0.1138363E+00
         21   -1    0    0  501  502  0.00000000000E+00  0.00000000000E+00  0.42551072599E+02  0.42551072599E+02  0.00000000000E+00 0.  1.
         21   -1    0    0  502  503 -0.00000000000E+00 -0.00000000000E+00 -0.14923917158E+04  0.14923917158E+04  0.00000000000E+00 0. -1.
         -6    2    1    2    0  503  0.12733760047E+03  0.46219030474E+01 -0.11317305895E+04  0.11518420242E+04  0.17230697899E+03 0.  0.
        -24    2    3    3    0    0  0.19730641165E+02 -0.37421154642E+02 -0.33745724863E+03  0.34919695543E+03  0.79192663892E+02 0.  0.
          6    2    1    2  501    0 -0.12733760047E+03 -0.46219030474E+01 -0.31811005361E+03  0.38310076412E+03  0.17127744386E+03 0.  0.
         24    2    5    5    0    0 -0.31732183335E+02  0.53534778744E+02 -0.15956111273E+03  0.18898107918E+03  0.79882386043E+02 0.  0.
          5    1    5    5  501    0 -0.95605417137E+02 -0.58156681792E+02 -0.15854894089E+03  0.19411968493E+03  0.47000000000E+01 0. -1.
        -13    1    6    6    0    0 -0.52528712140E+02  0.55996850339E+02 -0.10156545229E+03  0.12732028096E+03  0.00000000000E+00 0.  1.
         14    1    6    6    0    0  0.20796528805E+02 -0.24620715944E+01 -0.57995660441E+02  0.61660798218E+02  0.00000000000E+00 0. -1.
         -5    1    3    3    0  503  0.10760695931E+03  0.42043057690E+02 -0.79427334092E+03  0.80264506881E+03  0.47000000000E+01 0.  1.
         13    1    4    4    0    0  0.17084304606E+01  0.13787031389E+02 -0.21253864066E+03  0.21299219409E+03  0.00000000000E+00 0. -1.
        -14    1    4    4    0    0  0.18022210704E+02 -0.51208186031E+02 -0.12491860797E+03  0.13620476134E+03  0.00000000000E+00 0.  1.
</event>
<event>
12    1  0.8406581E-002  0.1743128E+03  0.7818608E-02  0.1173553E+00
         21   -1    0    0  503  502  0.00000000000E+00  0.00000000000E+00  0.26945121454E+03  0.26945121454E+03  0.00000000000E+00 0.  1.
         21   -1    0    0  501  503 -0.00000000000E+00 -0.00000000000E+00 -0.10333818843E+04  0.10333818843E+04  0.00000000000E+00 0.  1.
          6    2    1    2  501    0  0.20698296936E+02 -0.13471046653E+02 -0.99686260685E+03  0.10118996955E+04  0.17203502050E+03 0.  0.
         24    2    3    3    0    0 -0.36659057155E+02 -0.16051188848E+02 -0.83998048141E+03  0.84477514770E+03  0.80475548436E+02 0.  0.
         -6    2    1    2    0  502 -0.20698296936E+02  0.13471046653E+02  0.23293193709E+03  0.29093340330E+03  0.17255453992E+03 0.  0.
        -24    2    5    5    0    0  0.48462595245E+02 -0.10004527655E+02  0.10149543261E+03  0.14049412550E+03  0.83597624055E+02 0.  0.
          5    1    3    3  501    0  0.57357354091E+02  0.25801421946E+01 -0.15688212544E+03  0.16712454782E+03  0.47000000000E+01 0. -1.
        -11    1    4    4    0    0  0.51949542703E+01  0.24839846354E+02 -0.41635240427E+03  0.41712507723E+03  0.00000000000E+00 0.  1.
         12    1    4    4    0    0 -0.41854011425E+02 -0.40891035202E+02 -0.42362807714E+03  0.42765007047E+03  0.00000000000E+00 0. -1.
         -5    1    5    5    0  502 -0.69160892181E+02  0.23475574308E+02  0.13143650448E+03  0.15043927781E+03  0.47000000000E+01 0.  1.
         11    1    6    6    0    0 -0.38810732393E+01  0.29934842428E+02  0.42227800908E+02  0.51907077458E+02  0.00000000000E+00 0. -1.
        -12    1    6    6    0    0  0.52343668485E+02 -0.39939370083E+02  0.59267631699E+02  0.88587048039E+02  0.00000000000E+00 0.  1.
</event>
<event>
12    1  0.8406581E-002  0.1749868E+03  0.7818608E-02  0.1174099E+00
         21   -1    0    0  501  502  0.00000000000E+00  0.00000000000E+00  0.31179471212E+03  0.31179471212E+03  0.00000000000E+00 0. -1.
         21   -1    0    0  502  503 -0.00000000000E+00 -0.00000000000E+00 -0.10351380507E+03  0.10351380507E+03  0.00000000000E+00 0. -1.
         -6    2    1    2    0  503 -0.92365853250E+00 -0.40432995271E+02  0.44003311213E+02  0.17529288979E+03  0.16478964033E+03 0.  0.
        -24    2    3    3    0    0 -0.55964399560E+02  0.50611143076E+01  0.34797591047E+02  0.10314004880E+03  0.79179343440E+02 0.  0.
          6    2    1    2  501    0  0.92365853250E+00  0.40432995271E+02  0.16427759584E+03  0.24001562740E+03  0.17024891380E+03 0.  0.
         24    2    5    5    0    0 -0.20785985751E+02 -0.43550626068E+02  0.65600660815E+02  0.10854781836E+03  0.71766760670E+02 0.  0.
          5    1    5    5  501    0  0.21709644283E+02  0.83983621339E+02  0.98676935021E+02  0.13146780904E+03  0.47000000000E+01 0. -1.
        -13    1    6    6    0    0  0.70533565084E+01 -0.46322705384E+02  0.12448071288E+02  0.48481928086E+02  0.00000000000E+00 0.  1.
         14    1    6    6    0    0 -0.27839342259E+02  0.27720793156E+01  0.53152589527E+02  0.60065890276E+02  0.00000000000E+00 0. -1.
         -5    1    3    3    0  503  0.55040741027E+02 -0.45494109578E+02  0.92057201658E+01  0.72152840990E+02  0.47000000000E+01 0.  1.
         13    1    4    4    0    0 -0.51087755712E+02 -0.26597794095E+02  0.24993358836E+01  0.57651089446E+02  0.00000000000E+00 0. -1.
        -14    1    4    4    0    0 -0.48766438477E+01  0.31658908403E+02  0.32298255164E+02  0.45488959354E+02  0.00000000000E+00 0.  1.
</event>
<event>
12    1  0.8406581E-002  0.1775103E+03  0.7818608E-02  0.1170421E+00
         21   -1    0    0  503  502  0.00000000000E+00  0.00000000000E+00  0.30811274314E+03  0.30811274314E+03  0.00000000000E+00 0.  1.
         21   -1    0    0  501  503 -0.00000000000E+00 -0.00000000000E+00 -0.13886811674E+03  0.13886811674E+03  0.00000000000E+00 0.  1.
          6    2    1    2  501    0  0.18036898906E+02  0.39337632529E+02 -0.30925375016E+02  0.17944032818E+03  0.17137582532E+03 0.  0.
         24    2    3    3    0    0  0.73766252031E+02  0.22864467100E+02  0.34923511765E+01  0.11173659228E+03  0.80676054332E+02 0.  0.
         -6    2    1    2    0  502 -0.18036898906E+02 -0.39337632529E+02  0.20017000142E+03  0.26754053170E+03  0.17215437135E+03 0.  0.
        -24    2    5    5    0    0 -0.25811834065E+02  0.42281730730E+02  0.13049906069E+03  0.15984512762E+03  0.77887511534E+02 0.  0.
          5    1    3    3  501    0 -0.55729353125E+02  0.16473165429E+02 -0.34417726193E+02  0.67703735903E+02  0.47000000000E+01 0. -1.
        -13    1    4    4    0    0  0.62358116760E+02  0.47591982678E+02 -0.13557329320E+02  0.79607365986E+02  0.00000000000E+00 0.  1.
         14    1    4    4    0    0  0.11408135271E+02 -0.24727515578E+02  0.17049680496E+02  0.32129226291E+02  0.00000000000E+00 0. -1.
         -5    1    5    5    0  502  0.77749351588E+01 -0.81619363259E+02  0.69670940733E+02  0.10769540407E+03  0.47000000000E+01 0.  1.
         11    1    6    6    0    0  0.11895164730E+01  0.98266606681E+01  0.11413928482E+03  0.11456768545E+03  0.00000000000E+00 0. -1.
        -12    1    6    6    0    0 -0.27001350538E+02  0.32455070062E+02  0.16359775869E+02  0.45277442177E+02  0.00000000000E+00 0.  1.
</event>
<event>
12    1  0.8406581E-002  0.2050608E+03  0.7818608E-02  0.1145939E+00
         21   -1    0    0  503  502  0.00000000000E+00  0.00000000000E+00  0.57296550641E+03  0.57296550641E+03  0.00000000000E+00 0.  1.
         21   -1    0    0  501  503 -0.00000000000E+00 -0.00000000000E+00 -0.73207256043E+02  0.73207256043E+02  0.00000000000E+00 0.  1.
          6    2    1    2  501    0 -0.11165395876E+03  0.37190105265E+01  0.22158191844E+03  0.30058343288E+03  0.16962139015E+03 0.  0.
         24    2    3    3    0    0 -0.11246350398E+03  0.30947225601E+02  0.23192269945E+03  0.27106982904E+03  0.78006045899E+02 0.  0.
         -6    2    1    2    0  502  0.11165395876E+03 -0.37190105265E+01  0.27817633193E+03  0.34558932957E+03  0.17195777250E+03 0.  0.
        -24    2    5    5    0    0  0.29193099979E+02  0.15510692151E+02  0.23500748122E+03  0.25043043945E+03  0.79962929664E+02 0.  0.
          5    1    3    3  501    0  0.80954521880E+00 -0.27228215074E+02 -0.10340781011E+02  0.29513603838E+02  0.47000000000E+01 0. -1.
        -11    1    4    4    0    0 -0.57488653320E+02  0.16856687565E+02  0.42830257708E+02  0.73644579920E+02  0.00000000000E+00 0.  1.
         12    1    4    4    0    0 -0.54974850662E+02  0.14090538035E+02  0.18909244174E+03  0.19742524912E+03  0.00000000000E+00 0. -1.
         -5    1    5    5    0  502  0.82460858784E+02 -0.19229702678E+02  0.43168850712E+02  0.95158890117E+02  0.47000000000E+01 0.  1.
         13    1    6    6    0    0 -0.21617671973E+02  0.19347019228E+02  0.43699084093E+02  0.52452272068E+02  0.00000000000E+00 0. -1.
        -14    1    6    6    0    0  0.50810771952E+02 -0.38363270768E+01  0.19130839712E+03  0.19797816739E+03  0.00000000000E+00 0.  1.
</event>
<event>
12    1  0.8406581E-002  0.1779922E+03  0.7818608E-02  0.1170476E+00
         21   -1    0    0  501  502  0.00000000000E+00  0.00000000000E+00  0.26121500639E+03  0.26121500639E+03  0.00000000000E+00 0. -1.
         21   -1    0    0  502  503 -0.00000000000E+00 -0.00000000000E+00 -0.13520373651E+03  0.13520373651E+03  0.00000000000E+00 0. -1.
         -6    2    1    2    0  503 -0.15216430195E+02  0.35312262068E+02 -0.44657917374E+01  0.17804826092E+03  0.17378936768E+03 0.  0.
        -24    2    3    3    0    0  0.34110362337E+02  0.76256381199E+02  0.61887533831E+01  0.11289334794E+03  0.75683914070E+02 0.  0.
          6    2    1    2  501    0  0.15216430195E+02 -0.35312262068E+02  0.13047706162E+03  0.21837048199E+03  0.17083005647E+03 0.  0.
         24    2    5    5    0    0 -0.48872146758E+02 -0.56938402739E+02  0.77663718574E+02  0.13242646032E+03  0.76646237845E+02 0.  0.
          5    1    5    5  501    0  0.64088576953E+02  0.21626140671E+02  0.52813343043E+02  0.85944021662E+02  0.47000000000E+01 0. -1.
        -13    1    6    6    0    0  0.13983151896E+02  0.76914342001E+01  0.19237779434E+02  0.24995576699E+02  0.00000000000E+00 0.  1.
         14    1    6    6    0    0 -0.62855298654E+02 -0.64629836939E+02  0.58425939141E+02  0.10743088362E+03  0.00000000000E+00 0. -1.
         -5    1    3    3    0  503 -0.49326792532E+02 -0.40944119131E+02 -0.10654545121E+02  0.65154912974E+02  0.47000000000E+01 0.  1.
         13    1    4    4    0    0  0.26555378548E+02  0.91270833780E+01 -0.25814512519E+02  0.38142900223E+02  0.00000000000E+00 0. -1.
        -14    1    4    4    0    0  0.75549837892E+01  0.67129297821E+02  0.32003265902E+02  0.74750447720E+02  0.00000000000E+00 0.  1.
</event>
<event>
12    1  0.8406581E-002  0.1923098E+03  0.7818608E-02  0.1156903E+00
         21   -1    0    0  503  502  0.00000000000E+00  0.00000000000E+00  0.10698122365E+03  0.10698122365E+03  0.00000000000E+00 0.  1.
         21   -1    0    0  501  503 -0.00000000000E+00 -0.00000000000E+00 -0.42412520279E+03  0.42412520279E+03  0.00000000000E+00 0.  1.
          6    2    1    2  501    0 -0.40681469082E+02  0.72460613530E+02 -0.27645609977E+03  0.33676552944E+03  0.17342872968E+03 0.  0.
         24    2    3    3    0    0 -0.28682907523E+02  0.11774170498E+03 -0.20587237827E+03  0.25192158762E+03  0.79970193808E+02 0.  0.
         -6    2    1    2    0  502  0.40681469082E+02 -0.72460613530E+02 -0.40687879363E+02  0.19434089700E+03  0.17090160408E+03 0.  0.
        -24    2    5    5    0    0 -0.19403779115E+02 -0.96752385696E+02 -0.41457451558E+02  0.12935621044E+03  0.72641435195E+02 0.  0.
          5    1    3    3  501    0 -0.11998561559E+02 -0.45281091452E+02 -0.70583721503E+02  0.84843941821E+02  0.47000000000E+01 0. -1.
        -13    1    4    4    0    0  0.21856894508E+02  0.22611452705E+02 -0.20554935310E+02  0.37570027902E+02  0.00000000000E+00 0.  1.
         14    1    4    4    0    0 -0.50539802031E+02  0.95130252277E+02 -0.18531744296E+03  0.21435155972E+03  0.00000000000E+00 0. -1.
         -5    1    5    5    0  502  0.60085248197E+02  0.24291772166E+02  0.76957219503E+00  0.64984686560E+02  0.47000000000E+01 0.  1.
         13    1    6    6    0    0 -0.39060664194E+02 -0.26836963871E+02 -0.29305376556E+02  0.55720402118E+02  0.00000000000E+00 0. -1.
        -14    1    6    6    0    0  0.19656885079E+02 -0.69915421825E+02 -0.12152075002E+02  0.73635808319E+02  0.00000000000E+00 0.  1.
</event>
<event>
12    1  0.8406581E-002  0.2520564E+03  0.7818608E-02  0.1112085E+00
         21   -1    0    0  503  502  0.00000000000E+00  0.00000000000E+00  0.10845143885E+03  0.10845143885E+03  0.00000000000E+00 0.  1.
         21   -1    0    0  501  503 -0.00000000000E+00 -0.00000000000E+00 -0.96714184864E+03  0.96714184864E+03  0.00000000000E+00 0. -1.
          6    2    1    2  501    0 -0.51088741387E+02 -0.17695139629E+03 -0.76775801937E+03  0.80807474537E+03  0.17207719677E+03 0.  0.
         24    2    3    3    0    0 -0.27180508216E+02 -0.54173466336E+02 -0.17104659747E+03  0.19837593881E+03  0.80140689472E+02 0.  0.
         -6    2    1    2    0  502  0.51088741387E+02  0.17695139629E+03 -0.90932390428E+02  0.26751854213E+03  0.17139315799E+03 0.  0.
        -24    2    5    5    0    0  0.12394936923E+02  0.11079613933E+03  0.14607701952E+02  0.13700214612E+03  0.78273776789E+02 0.  0.
          5    1    3    3  501    0 -0.23908233170E+02 -0.12277792996E+03 -0.59671142190E+03  0.60969880656E+03  0.47000000000E+01 0. -1.
        -13    1    4    4    0    0 -0.59289775004E+01 -0.64890920527E+02 -0.74670289547E+02  0.99104169852E+02  0.00000000000E+00 0.  1.
         14    1    4    4    0    0 -0.21251530716E+02  0.10717454192E+02 -0.96376307924E+02  0.99271768954E+02  0.00000000000E+00 0. -1.
         -5    1    5    5    0  502  0.38693804464E+02  0.66155256964E+02 -0.10554009238E+03  0.13051639601E+03  0.47000000000E+01 0.  1.
         11    1    6    6    0    0  0.37378205187E+02  0.37074363726E+02  0.25337252282E+02  0.58426150155E+02  0.00000000000E+00 0. -1.
        -12    1    6    6    0    0 -0.24983268265E+02  0.73721775601E+02 -0.10729550330E+02  0.78575995961E+02  0.00000000000E+00 0.  1.
</event>
<event>
12    1  0.8406581E-002  0.1774988E+03  0.7818608E-02  0.1170375E+00
         21   -1    0    0  503  502  0.00000000000E+00  0.00000000000E+00  0.12427103455E+03  0.12427103455E+03  0.00000000000E+00 0.  1.
         21   -1    0    0  501  503 -0.00000000000E+00 -0.00000000000E+00 -0.44563113321E+03  0.44563113321E+03  0.00000000000E+00 0.  1.
          6    2    1    2  501    0  0.71767153913E+01 -0.38754569694E+02 -0.34799983264E+03  0.39041538370E+03  0.17253076941E+03 0.  0.
         24    2    3    3    0    0 -0.50521664106E+02 -0.18780363357E+01 -0.11313887521E+03  0.14573040044E+03  0.76687541118E+02 0.  0.
         -6    2    1    2    0  502 -0.71767153913E+01  0.38754569694E+02  0.26639733987E+02  0.17948678405E+03  0.17306764084E+03 0.  0.
        -24    2    5    5    0    0 -0.18315393122E+02  0.81513874063E+02  0.53933623237E+02  0.12733820169E+03  0.79537516967E+02 0.  0.
          5    1    3    3  501    0  0.57698379497E+02 -0.36876533358E+02 -0.23486095743E+03  0.24468498326E+03  0.47000000000E+01 0. -1.
        -13    1    4    4    0    0 -0.43386001529E+01 -0.35687911854E+00 -0.96529858810E+02  0.96627969325E+02  0.00000000000E+00 0.  1.
         14    1    4    4    0    0 -0.46183063953E+02 -0.15211572171E+01 -0.16609016404E+02  0.49102431113E+02  0.00000000000E+00 0. -1.
         -5    1    5    5    0  502  0.11138677730E+02 -0.42759304370E+02 -0.27293889251E+02  0.52148582360E+02  0.47000000000E+01 0.  1.
         13    1    6    6    0    0  0.87939653916E+01  0.49281504453E+02  0.66638353463E+02  0.83346689561E+02  0.00000000000E+00 0. -1.
        -14    1    6    6    0    0 -0.27109358513E+02  0.32232369610E+02 -0.12704730226E+02  0.43991512133E+02  0.00000000000E+00 0.  1.
</event>
<event>
12    1  0.8406581E-002  0.2094970E+03  0.7818608E-02  0.1141984E+00
         21   -1    0    0  501  502  0.00000000000E+00  0.00000000000E+00  0.23768510719E+04  0.23768510719E+04  0.00000000000E+00 0. -1.
         21   -1    0    0  502  503 -0.00000000000E+00 -0.00000000000E+00 -0.48774969203E+02  0.48774969203E+02  0.00000000000E+00 0.  1.
         -6    2    1    2    0  503  0.11315568081E+03 -0.11870702173E+02  0.20774455550E+03  0.29497007190E+03  0.17579653384E+03 0.  0.
        -24    2    3    3    0    0 -0.32352100596E+00  0.20240998827E+02  0.51568689317E+02  0.99210827515E+02  0.82302222807E+02 0.  0.
          6    2    1    2  501    0 -0.11315568081E+03  0.11870702173E+02  0.21203315472E+04  0.21306559692E+04  0.17590869048E+03 0.  0.
         24    2    5    5    0    0 -0.10657554368E+03 -0.52474792766E+02  0.15810379280E+04  0.15874770497E+04  0.79312691594E+02 0.  0.
          5    1    5    5  501    0 -0.65801371245E+01  0.64345494939E+02  0.53929361917E+03  0.54317891951E+03  0.47000000000E+01 0. -1.
        -13    1    6    6    0    0 -0.64062756224E+02  0.54851108403E+01  0.51129809504E+03  0.51532500926E+03  0.00000000000E+00 0.  1.
         14    1    6    6    0    0 -0.42512787457E+02 -0.57959903606E+02  0.10697398330E+04  0.10721520404E+04  0.00000000000E+00 0. -1.
         -5    1    3    3    0  503  0.11347920181E+03 -0.32111701000E+02  0.15617586618E+03  0.19575924439E+03  0.47000000000E+01 0.  1.
         13    1    4    4    0    0 -0.28449803733E+02 -0.20627953344E+02  0.21046075075E+02  0.40961458319E+02  0.00000000000E+00 0. -1.
        -14    1    4    4    0    0  0.28126282727E+02  0.40868952170E+02  0.30522614241E+02  0.58249369195E+02  0.00000000000E+00 0.  1.
</event>
<event>
12    1  0.8406581E-002  0.1863584E+03  0.7818608E-02  0.1162496E+00
         21   -1    0    0  501  502  0.00000000000E+00  0.00000000000E+00  0.12247848169E+03  0.12247848169E+03  0.00000000000E+00 0. -1.
         21   -1    0    0  502  503 -0.00000000000E+00 -0.00000000000E+00 -0.32848375347E+03  0.32848375347E+03  0.00000000000E+00 0. -1.
         -6    2    1    2    0  503  0.68241270010E+02  0.12458953167E+02 -0.18983709741E+03  0.26390374131E+03  0.16969079137E+03 0.  0.
        -24    2    3    3    0    0  0.13033837497E+02  0.52909795151E+02 -0.16591004141E+03  0.19124890506E+03  0.77978679787E+02 0.  0.
          6    2    1    2  501    0 -0.68241270010E+02 -0.12458953167E+02 -0.16168174371E+02  0.18705849385E+03  0.17296639503E+03 0.  0.
         24    2    5    5    0    0 -0.91991450242E+02 -0.21209692009E+02 -0.58545147251E+02  0.13747478360E+03  0.80990764329E+02 0.  0.
          5    1    5    5  501    0  0.23750180232E+02  0.87507388416E+01  0.42376972880E+02  0.49583710246E+02  0.47000000000E+01 0. -1.
        -11    1    6    6    0    0 -0.12219906787E+02  0.28015787721E+02 -0.16586924982E+02  0.34775516730E+02  0.00000000000E+00 0.  1.
         12    1    6    6    0    0 -0.79771543455E+02 -0.49225479729E+02 -0.41958222269E+02  0.10269926687E+03  0.00000000000E+00 0. -1.
         -5    1    3    3    0  503  0.55207432513E+02 -0.40450841984E+02 -0.23927055994E+02  0.72654836249E+02  0.47000000000E+01 0.  1.
         13    1    4    4    0    0  0.33627640025E+02  0.51549003182E+02 -0.70295236344E+02  0.93431997492E+02  0.00000000000E+00 0. -1.
        -14    1    4    4    0    0 -0.20593802528E+02  0.13607919686E+01 -0.95614805068E+02  0.97816907565E+02  0.00000000000E+00 0.  1.
</event>
<event>
12    1  0.8406581E-002  0.1929834E+03  0.7818608E-02  0.1155918E+00
         21   -1    0    0  503  502  0.00000000000E+00  0.00000000000E+00  0.38930058361E+03  0.38930058361E+03  0.00000000000E+00 0.  1.
         21   -1    0    0  501  503 -0.00000000000E+00 -0.00000000000E+00 -0.10253523586E+03  0.10253523586E+03  0.00000000000E+00 0.  1.
          6    2    1    2  501    0  0.77676046585E+02 -0.32468377599E+02  0.78680722438E+02  0.20840641522E+03  0.17365141538E+03 0.  0.
         24    2    3    3    0    0 -0.55791841767E+00 -0.69273026238E+02  0.34299698709E+02  0.11110841571E+03  0.79809443501E+02 0.  0.
         -6    2    1    2    0  502 -0.77676046585E+02  0.32468377599E+02  0.20808462531E+03  0.28342940426E+03  0.17304696515E+03 0.  0.
        -24    2    5    5    0    0  0.22240403297E+02  0.15587110991E+02  0.58562320009E+02  0.10274381019E+03  0.79932168992E+02 0.  0.
          5    1    3    3  501    0  0.78233965003E+02  0.36804648639E+02  0.44381023729E+02  0.97297999510E+02  0.47000000000E+01 0. -1.
        -13    1    4    4    0    0  0.13865981539E+02 -0.49718342732E+02 -0.17001452539E+02  0.54343614496E+02  0.00000000000E+00 0.  1.
         14    1    4    4    0    0 -0.14423899956E+02 -0.19554683506E+02  0.51301151248E+02  0.56764801209E+02  0.00000000000E+00 0. -1.
         -5    1    5    5    0  502 -0.99916449882E+02  0.16881266608E+02  0.14952230531E+03  0.18068559407E+03  0.47000000000E+01 0.  1.
         13    1    6    6    0    0 -0.28866565519E+02  0.37374052239E+01  0.87352356541E+01  0.30389984281E+02  0.00000000000E+00 0. -1.
        -14    1    6    6    0    0  0.51106968817E+02  0.11849705767E+02  0.49827084355E+02  0.72353825909E+02  0.00000000000E+00 0.  1.
</event>
<event>
12    1  0.8406581E-002  0.1785399E+03  0.7818608E-02  0.1171998E+00
         21   -1    0    0  501  502  0.00000000000E+00  0.00000000000E+00  0.11688519054E+03  0.11688519054E+03  0.00000000000E+00 0. -1.
         21   -1    0    0  502  503 -0.00000000000E+00 -0.00000000000E+00 -0.52759375795E+03  0.52759375795E+03  0.00000000000E+00 0.  1.
         -6    2    1    2    0  503 -0.93561438506E+01  0.47539795516E+02 -0.43324438282E+03  0.46452237801E+03  0.16041438478E+03 0.  0.
        -24    2    3    3    0    0  0.34663562904E+02 -0.82475723052E+01 -0.31031155197E+03  0.32245008693E+03  0.80070058302E+02 0.  0.
          6    2    1    2  501    0  0.93561438506E+01 -0.47539795516E+02  0.22535815407E+02  0.17995657048E+03  0.17183985189E+03 0.  0.
         24    2    5    5    0    0 -0.49603722928E+01 -0.96517696752E+02  0.33359561940E+02  0.12758252220E+03  0.76316240204E+02 0.  0.
          5    1    5    5  501    0  0.14316516143E+02  0.48977901235E+02 -0.10823746533E+02  0.52374048277E+02  0.47000000000E+01 0. -1.
        -13    1    6    6    0    0  0.18974249771E+02 -0.92698584463E+02  0.12191502258E+02  0.95402738132E+02  0.00000000000E+00 0.  1.
         14    1    6    6    0    0 -0.23934622064E+02 -0.38191122890E+01  0.21168059682E+02  0.32179784069E+02  0.00000000000E+00 0. -1.
         -5    1    3    3    0  503 -0.44019706755E+02  0.55787367822E+02 -0.12293283085E+03  0.14207229108E+03  0.47000000000E+01 0.  1.
         13    1    4    4    0    0  0.62482991424E+01  0.26747694171E+02 -0.40736137895E+02  0.49131591835E+02  0.00000000000E+00 0. -1.
        -14    1    4    4    0    0  0.28415263762E+02 -0.34995266476E+02 -0.26957541407E+03  0.27331849510E+03  0.00000000000E+00 0.  1.
</event>
<event>
12    1  0.8406581E-002  0.1909943E+03  0.7818608E-02  0.1157917E+00
         21   -1    0    0  503  502  0.00000000000E+00  0.00000000000E+00  0.26137962258E+03  0.26137962258E+03  0.00000000000E+00 0.  1.
         21   -1    0    0  501  503 -0.00000000000E+00 -0.00000000000E+00 -0.21111187378E+03  0.21111187378E+03  0.00000000000E+00 0.  1.
          6    2    1    2  501    0  0.68189169988E+02  0.47705443240E+02 -0.11341696348E+03  0.22213113315E+03  0.17191061773E+03 0.  0.
         24    2    3    3    0    0  0.95190383384E+01 -0.12558709842E+02 -0.11339132247E+03  0.13789311826E+03  0.76867332256E+02 0.  0.
         -6    2    1    2    0  502 -0.68189169988E+02 -0.47705443240E+02  0.16368471228E+03  0.25036036321E+03  0.17018241453E+03 0.  0.
        -24    2    5    5    0    0  0.22331290045E+02  0.81057549732E+00  0.45128935091E+02  0.93435795147E+02  0.78703770459E+02 0.  0.
          5    1    3    3  501    0  0.58670131649E+02  0.60264153082E+02 -0.25641010049E-01  0.84238014886E+02  0.47000000000E+01 0. -1.
        -13    1    4    4    0    0  0.35499892219E+02 -0.11461168353E+02 -0.22974732766E+02  0.43811403461E+02  0.00000000000E+00 0.  1.
         14    1    4    4    0    0 -0.25980853880E+02 -0.10975414890E+01 -0.90416589708E+02  0.94081714802E+02  0.00000000000E+00 0. -1.
         -5    1    5    5    0  502 -0.90520460032E+02 -0.48516018738E+02  0.11855577719E+03  0.15692456807E+03  0.47000000000E+01 0.  1.
         11    1    6    6    0    0  0.22471393350E+02 -0.29192785542E+02 -0.27392848993E+01  0.36941655737E+02  0.00000000000E+00 0. -1.
        -12    1    6    6    0    0 -0.14010330491E+00  0.30003361040E+02  0.47868219991E+02  0.56494139410E+02  0.00000000000E+00 0.  1.
</event>
<event>
12    1  0.8406581E-002  0.1903051E+03  0.7818608E-02  0.1158481E+00
         21   -1    0    0  501  502  0.00000000000E+00  0.00000000000E+00  0.34825017981E+02  0.34825017981E+02  0.00000000000E+00 0.  1.
         21   -1    0    0  502  503 -0.00000000000E+00 -0.00000000000E+00 -0.12657021245E+04  0.12657021245E+04  0.00000000000E+00 0. -1.
         -6    2    1    2    0  503 -0.71680943053E+02  0.36636138906E+02 -0.89609269952E+03  0.91607758523E+03  0.17244028458E+03 0.  0.
        -24    2    3    3    0    0 -0.10544489947E+03 -0.11998127746E+01 -0.74146469472E+03  0.75327870974E+03  0.80863184736E+02 0.  0.
          6    2    1    2  501    0  0.71680943053E+02 -0.36636138906E+02 -0.33478440703E+03  0.38444955729E+03  0.17099853402E+03 0.  0.
         24    2    5    5    0    0  0.93726193658E+02 -0.72432307890E+02 -0.23753106537E+03  0.27839456565E+03  0.83973141904E+02 0.  0.
          5    1    5    5  501    0 -0.22045250606E+02  0.35796168983E+02 -0.97253341659E+02  0.10605499164E+03  0.47000000000E+01 0. -1.
        -11    1    6    6    0    0  0.40594368562E+02  0.10556988904E+02 -0.41579969239E+02  0.59061380069E+02  0.00000000000E+00 0.  1.
         12    1    6    6    0    0  0.53131825096E+02 -0.82989296794E+02 -0.19595109613E+03  0.21933318558E+03  0.00000000000E+00 0. -1.
         -5    1    3    3    0  503  0.33763956422E+02  0.37835951681E+02 -0.15462800480E+03  0.16279887549E+03  0.47000000000E+01 0.  1.
         11    1    4    4    0    0 -0.42202793962E+02 -0.38591605482E+02 -0.25787158173E+03  0.26413659439E+03  0.00000000000E+00 0. -1.
        -12    1    4    4    0    0 -0.63242105512E+02  0.37391792708E+02 -0.48359311299E+03  0.48914211535E+03  0.00000000000E+00 0.  1.
</event>
<event>
12    1  0.8406581E-002  0.2001890E+03  0.7818608E-02  0.1149661E+00
         21   -1    0    0  501  502  0.00000000000E+00  0.00000000000E+00  0.38000973136E+03  0.38000973136E+03  0.00000000000E+00 0.  1.
         21   -1    0    0  502  503 -0.00000000000E+00 -0.00000000000E+00 -0.13016278289E+03  0.13016278289E+03  0.00000000000E+00 0. -1.
         -6    2    1    2    0  503 -0.98289046793E+02 -0.26128253279E+02  0.13437440711E+02  0.20063944911E+03  0.17243027978E+03 0.  0.
        -24    2    3    3    0    0 -0.43506599772E+02 -0.48170158692E+02 -0.49520311407E+02  0.11419449178E+03  0.79843173148E+02 0.  0.
          6    2    1    2  501    0  0.98289046793E+02  0.26128253279E+02  0.23640950775E+03  0.30953306515E+03  0.17198209420E+03 0.  0.
         24    2    5    5    0    0  0.24635523996E+02 -0.21513984876E+02  0.43433419484E+02  0.97503621624E+02  0.80936603055E+02 0.  0.
          5    1    5    5  501    0  0.73653522797E+02  0.47642238155E+02  0.19297608827E+03  0.21202944352E+03  0.47000000000E+01 0. -1.
        -13    1    6    6    0    0  0.45899507796E+02 -0.16440040256E+02 -0.13855863686E+00  0.48755091407E+02  0.00000000000E+00 0.  1.
         14    1    6    6    0    0 -0.21263983800E+02 -0.50739446198E+01  0.43571978121E+02  0.48748530218E+02  0.00000000000E+00 0. -1.
         -5    1    3    3    0  503 -0.54782447020E+02  0.22041905413E+02  0.62957752118E+02  0.86444957329E+02  0.47000000000E+01 0.  1.
         11    1    4    4    0    0 -0.42036717401E+02 -0.45572054463E+02  0.25375816585E+01  0.62051084426E+02  0.00000000000E+00 0. -1.
        -12    1    4    4    0    0 -0.14698823716E+01 -0.25981042289E+01 -0.52057893066E+02  0.52143407351E+02  0.00000000000E+00 0.  1.
</event>
<event>
12    1  0.8406581E-002  0.2592279E+03  0.7818608E-02  0.1108784E+00
         21   -1    0    0  503  502  0.00000000000E+00  0.00000000000E+00  0.20804196489E+03  0.20804196489E+03  0.00000000000E+00 0.  1.
         21   -1    0    0  501  503 -0.00000000000E+00 -0.00000000000E+00 -0.40239509733E+03  0.40239509733E+03  0.00000000000E+00 0. -1.
          6    2    1    2  501    0  0.17228252436E+03  0.65068582167E+02 -0.24174912432E+03  0.35445978549E+03  0.18243878927E+03 0.  0.
         24    2    3    3    0    0  0.53570259872E+02 -0.37804025672E+02 -0.97154814749E+02  0.14090656133E+03  0.78209231542E+02 0.  0.
         -6    2    1    2    0  502 -0.17228252436E+03 -0.65068582167E+02  0.47395991891E+02  0.25597727674E+03  0.17135576317E+03 0.  0.
        -24    2    5    5    0    0 -0.19744509729E+03 -0.72331064711E+02  0.46843249149E+02  0.22936347855E+03  0.78720810055E+02 0.  0.
          5    1    3    3  501    0  0.11871226449E+03  0.10287260784E+03 -0.14459430958E+03  0.21355322415E+03  0.47000000000E+01 0. -1.
        -13    1    4    4    0    0 -0.40623887411E+01 -0.24641586426E+02 -0.72808919457E+02  0.76973044219E+02  0.00000000000E+00 0.  1.
         14    1    4    4    0    0  0.57632648613E+02 -0.13162439246E+02 -0.24345895292E+02  0.63933517115E+02  0.00000000000E+00 0. -1.
         -5    1    5    5    0  502  0.25162572929E+02  0.72624825439E+01  0.55274274183E+00  0.26613798182E+02  0.47000000000E+01 0.  1.
         11    1    6    6    0    0 -0.12536406303E+03 -0.76146527969E+02  0.68392076643E+01  0.14683738210E+03  0.00000000000E+00 0. -1.
        -12    1    6    6    0    0 -0.72081034263E+02  0.38154632579E+01  0.40004041485E+02  0.82526096451E+02  0.00000000000E+00 0.  1.
</event>
<event>
12    1  0.8406581E-002  0.2060637E+03  0.7818608E-02  0.1146049E+00
         21   -1    0    0  503  502  0.00000000000E+00  0.00000000000E+00  0.11922914831E+04  0.11922914831E+04  0.00000000000E+00 0. -1.
         21   -1    0    0  501  503 -0.00000000000E+00 -0.00000000000E+00 -0.55945486902E+02  0.55945486902E+02  0.00000000000E+00 0.  1.
          6    2    1    2  501    0  0.44335796305E+02  0.10211353302E+03  0.18744397450E+03  0.27856325677E+03  0.17340532860E+03 0.  0.
         24    2    3    3    0    0  0.86878601914E+02  0.26853857974E+02  0.11880056326E+03  0.16807381427E+03  0.76591200900E+02 0.  0.
         -6    2    1    2    0  502 -0.44335796305E+02 -0.10211353302E+03  0.94890202165E+03  0.96967371318E+03  0.16570825834E+03 0.  0.
        -24    2    5    5    0    0 -0.43370166104E+02  0.22833295913E+01  0.33086808040E+03  0.34286618299E+03  0.78723236149E+02 0.  0.
          5    1    3    3  501    0 -0.42542805608E+02  0.75259675047E+02  0.68643411243E+02  0.11048944250E+03  0.47000000000E+01 0. -1.
        -13    1    4    4    0    0  0.21066891722E+02  0.45240944121E+02  0.58941923035E+02  0.77231517160E+02  0.00000000000E+00 0.  1.
         14    1    4    4    0    0  0.65811710192E+02 -0.18387086147E+02  0.59858640221E+02  0.90842297111E+02  0.00000000000E+00 0. -1.
         -5    1    5    5    0  502 -0.96563020070E+00 -0.10439686261E+03  0.61803394125E+03  0.62680753019E+03  0.47000000000E+01 0.  1.
         11    1    6    6    0    0  0.21913501853E+02 -0.85735780574E+01  0.97120153596E+02  0.99930135788E+02  0.00000000000E+00 0. -1.
        -12    1    6    6    0    0 -0.65283667957E+02  0.10856907649E+02  0.23374792681E+03  0.24293604721E+03  0.00000000000E+00 0.  1.
</event>
<event>
12    1  0.8406581E-002  0.1727324E+03  0.7818608E-02  0.1176301E+00
         21   -1    0    0  501  502  0.00000000000E+00  0.00000000000E+00  0.10875136772E+03  0.10875136772E+03  0.00000000000E+00 0. -1.
         21   -1    0    0  502  503 -0.00000000000E+00 -0.00000000000E+00 -0.29138222407E+03  0.29138222407E+03  0.00000000000E+00 0. -1.
         -6    2    1    2    0  503  0.14394531674E+00  0.15057348663E+02 -0.14843924198E+03  0.22404969391E+03  0.16714458506E+03 0.  0.
        -24    2    3    3    0    0 -0.31766915229E+02 -0.34996409015E+02 -0.13781008146E+03  0.16356208583E+03  0.74344144498E+02 0.  0.
          6    2    1    2  501    0 -0.14394531674E+00 -0.15057348663E+02 -0.34191614366E+02  0.17608389787E+03  0.17207477482E+03 0.  0.
         24    2    5    5    0    0  0.59431078160E+02 -0.36566866289E+02 -0.89636429194E+01  0.10774369511E+03  0.81603726506E+02 0.  0.
          5    1    5    5  501    0 -0.59575023477E+02  0.21509517625E+02 -0.25227971446E+02  0.68340202765E+02  0.47000000000E+01 0. -1.
        -13    1    6    6    0    0  0.15958152591E+01 -0.47306706643E+02 -0.12034726070E+02  0.48839592048E+02  0.00000000000E+00 0.  1.
         14    1    6    6    0    0  0.57835262901E+02  0.10739840355E+02  0.30710831508E+01  0.58904103061E+02  0.00000000000E+00 0. -1.
         -5    1    3    3    0  503  0.31910860545E+02  0.50053757679E+02 -0.10629160520E+02  0.60487608085E+02  0.47000000000E+01 0.  1.
         13    1    4    4    0    0  0.88608082332E+01  0.33368983558E+01 -0.88645278323E+02  0.89149504666E+02  0.00000000000E+00 0. -1.
        -14    1    4    4    0    0 -0.40627723462E+02 -0.38333307371E+02 -0.49164803138E+02  0.74412581163E+02  0.00000000000E+00 0.  1.
</event>
<event>
12    1  0.8406581E-002  0.1953612E+03  0.7818608E-02  0.1153823E+00
         21   -1    0    0  501  502  0.00000000000E+00  0.00000000000E+00  0.32918578171E+03  0.32918578171E+03  0.00000000000E+00 0.  1.
         21   -1    0    0  502  503 -0.00000000000E+00 -0.00000000000E+00 -0.33086790040E+03  0.33086790040E+03  0.00000000000E+00 0.  1.
         -6    2    1    2    0  503  0.83507527513E+02  0.39208397539E+02 -0.26701840269E+03  0.33055505763E+03  0.17163045522E+03 0.  0.
        -24    2    3    3    0    0 -0.11799798139E+02  0.53248494081E+01 -0.60852034845E+02  0.10086343308E+03  0.79390633768E+02 0.  0.
          6    2    1    2  501    0 -0.83507527513E+02 -0.39208397539E+02  0.26533628400E+03  0.32949862449E+03  0.17220683594E+03 0.  0.
         24    2    5    5    0    0 -0.10333896483E+03 -0.75229369941E+02  0.18342376442E+03  0.23772418784E+03  0.80809110731E+02 0.  0.
          5    1    5    5  501    0  0.19831437313E+02  0.36020972401E+02  0.81912519579E+02  0.91774436650E+02  0.47000000000E+01 0. -1.
        -11    1    6    6    0    0 -0.77633858598E+02 -0.26190974483E+02  0.15538322972E+03  0.17566141074E+03  0.00000000000E+00 0.  1.
         12    1    6    6    0    0 -0.25705106227E+02 -0.49038395458E+02  0.28040534705E+02  0.62062777103E+02  0.00000000000E+00 0. -1.
         -5    1    3    3    0  503  0.95307325652E+02  0.33883548131E+02 -0.20616636784E+03  0.22969162455E+03  0.47000000000E+01 0.  1.
         13    1    4    4    0    0 -0.43196252951E+02  0.17683171319E+02 -0.34141533380E+02  0.57829535001E+02  0.00000000000E+00 0. -1.
        -14    1    4    4    0    0  0.31396454812E+02 -0.12358321911E+02 -0.26710501465E+02  0.43033898077E+02  0.00000000000E+00 0.  1.
</event>
<event>
12    1  0.8406581E-002  0.2228266E+03  0.7818608E-02  0.1131875E+00
         21   -1    0    0  503  502  0.00000000000E+00  0.00000000000E+00  0.11373831789E+03  0.11373831789E+03  0.00000000000E+00 0.  1.
         21   -1    0    0  501  503 -0.00000000000E+00 -0.00000000000E+00 -0.13466520591E+04  0.13466520591E+04  0.00000000000E+00 0.  1.
          6    2    1    2  501    0  0.49319219553E+02 -0.13225063876E+03 -0.12168300759E+04  0.12369840858E+04  0.17184754267E+03 0.  0.
         24    2    3    3    0    0  0.61117546372E+02 -0.12843812958E+03 -0.12119062048E+04  0.12228394667E+04  0.79924993253E+02 0.  0.
         -6    2    1    2    0  502 -0.49319219553E+02  0.13225063876E+03 -0.16083665337E+02  0.22340629126E+03  0.17242119886E+03 0.  0.
        -24    2    5    5    0    0 -0.26450277391E+02 -0.16851283410E+01 -0.10462405258E+02  0.87334741004E+02  0.82555667467E+02 0.  0.
          5    1    3    3  501    0 -0.11798326819E+02 -0.38125091824E+01 -0.49238711657E+01  0.14144619092E+02  0.47000000000E+01 0. -1.
        -11    1    4    4    0    0  0.37370228758E+02 -0.14014125587E+02 -0.48065294728E+03  0.48230714845E+03  0.00000000000E+00 0.  1.
         12    1    4    4    0    0  0.23747317614E+02 -0.11442400399E+03 -0.73125325747E+03  0.74053231823E+03  0.00000000000E+00 0. -1.
         -5    1    5    5    0  502 -0.22868942162E+02  0.13393576710E+03 -0.56212600786E+01  0.13607155026E+03  0.47000000000E+01 0.  1.
         13    1    6    6    0    0 -0.26462528631E+02  0.36397525405E+02 -0.18081710522E+02  0.48497355934E+02  0.00000000000E+00 0. -1.
        -14    1    6    6    0    0  0.12251240247E-01 -0.38082653746E+02  0.76193052638E+01  0.38837385071E+02  0.00000000000E+00 0.  1.
</event>
<event>
12    1  0.8406581E-002  0.1808948E+03  0.7818608E-02  0.1167090E+00
         21   -1    0    0  501  502  0.00000000000E+00  0.00000000000E+00  0.51783167623E+02  0.51783167623E+02  0.00000000000E+00 0.  1.
         21   -1    0    0  502  503 -0.00000000000E+00 -0.00000000000E+00 -0.74017002995E+03  0.74017002995E+03  0.00000000000E+00 0.  1.
         -6    2    1    2    0  503  0.40820570870E+02  0.34311709928E+02 -0.49763695196E+03  0.52949546973E+03  0.17285631044E+03 0.  0.
        -24    2    3    3    0    0 -0.40688907035E+02  0.36757727274E+02 -0.31013385469E+03  0.32497339396E+03  0.80112304223E+02 0.  0.
          6    2    1    2  501    0 -0.40820570870E+02 -0.34311709928E+02 -0.19074991036E+03  0.26245772784E+03  0.17220603403E+03 0.  0.
         24    2    5    5    0    0 -0.91575755999E+02 -0.33790640705E+02 -0.11381530215E+03  0.17016805198E+03  0.80469350836E+02 0.  0.
          5    1    5    5  501    0  0.50755185128E+02 -0.52106922302E+00 -0.76934608214E+02  0.92289675866E+02  0.47000000000E+01 0. -1.
        -11    1    6    6    0    0 -0.84895585580E+02 -0.41238762883E+01 -0.47869917570E+02  0.97548940613E+02  0.00000000000E+00 0.  1.
         12    1    6    6    0    0 -0.66801704187E+01 -0.29666764417E+02 -0.65945384580E+02  0.72619111364E+02  0.00000000000E+00 0. -1.
         -5    1    3    3    0  503  0.81509477906E+02 -0.24460173455E+01 -0.18750309727E+03  0.20452207577E+03  0.47000000000E+01 0.  1.
         11    1    4    4    0    0 -0.30064339992E+02  0.59418293084E+02 -0.16916143260E+03  0.18179655764E+03  0.00000000000E+00 0. -1.
        -12    1    4    4    0    0 -0.10624567043E+02 -0.22660565810E+02 -0.14097242209E+03  0.14317683632E+03  0.00000000000E+00 0.  1.
</event>
<event>
12    1  0.8406581E-002  0.1993035E+03  0.7818608E-02  0.1150603E+00
         21   -1    0    0  503  502  0.00000000000E+00  0.00000000000E+00  0.52338617214E+02  0.52338617214E+02  0.00000000000E+00 0.  1.
         21   -1    0    0  501  503 -0.00000000000E+00 -0.00000000000E+00 -0.10243549893E+04  0.10243549893E+04  0.00000000000E+00 0.  1.
          6    2    1    2  501    0 -0.56866029677E+02  0.81884494394E+02 -0.20828970347E+03  0.28738992224E+03  0.17108346232E+03 0.  0.
         24    2    3    3    0    0  0.10778880893E+02 -0.60318547336E+01 -0.10274926265E+03  0.13420378377E+03  0.85443999548E+02 0.  0.
         -6    2    1    2    0  502  0.56866029677E+02 -0.81884494394E+02 -0.76372666861E+03  0.78930368427E+03  0.17257770974E+03 0.  0.
        -24    2    5    5    0    0  0.58462662101E+02  0.12157316163E+02 -0.31004463492E+03  0.32595080679E+03  0.80935589284E+02 0.  0.
          5    1    3    3  501    0 -0.67644910570E+02  0.87916349128E+02 -0.10554044082E+03  0.15318613847E+03  0.47000000000E+01 0. -1.
        -13    1    4    4    0    0  0.20479993053E+01  0.16393927567E+02  0.97335347015E+01  0.19175423333E+02  0.00000000000E+00 0.  1.
         14    1    4    4    0    0  0.87308815879E+01 -0.22425782301E+02 -0.11248279735E+03  0.11502836044E+03  0.00000000000E+00 0. -1.
         -5    1    5    5    0  502 -0.15966324239E+01 -0.94041810558E+02 -0.45368203370E+03  0.46335287748E+03  0.47000000000E+01 0.  1.
         13    1    6    6    0    0  0.24267312621E+02  0.40520995762E+02 -0.22603387463E+03  0.23091592851E+03  0.00000000000E+00 0. -1.
        -14    1    6    6    0    0  0.34195349480E+02 -0.28363679599E+02 -0.84010760284E+02  0.95034878282E+02  0.00000000000E+00 0.  1.
</event>
<event>
12    1  0.8406581E-002  0.1784763E+03  0.7818608E-02  0.1170001E+00
         21   -1    0    0  503  502  0.00000000000E+00  0.00000000000E+00  0.63094167404E+03  0.63094167404E+03  0.00000000000E+00 0.  1.
         21   -1    0    0  501  503 -0.00000000000E+00 -0.00000000000E+00 -0.63912350770E+02  0.63912350770E+02  0.00000000000E+00 0.  1.
          6    2    1    2  501    0 -0.32196473716E+02  0.31951803129E+02  0.11770855668E+03  0.21138433573E+03  0.16961869719E+03 0.  0.
         24    2    3    3    0    0  0.25076696825E+02  0.64672244395E+02  0.88394409610E+02  0.13905002466E+03  0.81914576171E+02 0.  0.
         -6    2    1    2    0  502  0.32196473716E+02 -0.31951803129E+02  0.44932076660E+03  0.48346968908E+03  0.17261592718E+03 0.  0.
        -24    2    5    5    0    0  0.40981673195E+02 -0.58251691600E+02  0.16105690016E+03  0.19383714505E+03  0.80998497527E+02 0.  0.
          5    1    3    3  501    0 -0.57273170541E+02 -0.32720441265E+02  0.29314147065E+02  0.72334311074E+02  0.47000000000E+01 0. -1.
        -13    1    4    4    0    0  0.24990765721E+01  0.71514480088E+02  0.32919541865E+02  0.78767140881E+02  0.00000000000E+00 0.  1.
         14    1    4    4    0    0  0.22577620252E+02 -0.68422356930E+01  0.55474867745E+02  0.60282883781E+02  0.00000000000E+00 0. -1.
         -5    1    5    5    0  502 -0.87851994790E+01  0.26299888471E+02  0.28826386644E+03  0.28963254402E+03  0.47000000000E+01 0.  1.
         11    1    6    6    0    0 -0.11697627211E+02  0.10087168653E+02  0.63623476833E+01  0.16705236360E+02  0.00000000000E+00 0. -1.
        -12    1    6    6    0    0  0.52679300406E+02 -0.68338860253E+02  0.15469455248E+03  0.17713190869E+03  0.00000000000E+00 0.  1.
</event>
<event>
12    1  0.8406581E-002  0.1949030E+03  0.7818608E-02  0.1154495E+00
         21   -1    0    0  503  502  0.00000000000E+00  0.00000000000E+00  0.13757401724E+03  0.13757401724E+03  0.00000000000E+00 0. -1.
         21   -1    0    0  501  503 -0.00000000000E+00 -0.00000000000E+00 -0.49708774586E+03  0.49708774586E+03  0.00000000000E+00 0. -1.
          6    2    1    2  501    0 -0.91541272041E+02 -0.86136549737E+01 -0.39295131562E+03  0.43863188506E+03  0.17185224643E+03 0.  0.
         24    2    3    3    0    0 -0.70302711152E+02  0.57943242395E+02 -0.19717534506E+03  0.23071070359E+03  0.77778027201E+02 0.  0.
         -6    2    1    2    0  502  0.91541272041E+02  0.86136549737E+01  0.33437586999E+02  0.19602987804E+03  0.16986948319E+03 0.  0.
        -24    2    5    5    0    0  0.62521999884E+02 -0.58340958217E+02  0.13129201896E+02  0.12013812032E+03  0.83355408557E+02 0.  0.
          5    1    3    3  501    0 -0.21238560889E+02 -0.66556897369E+02 -0.19577597056E+03  0.20792118147E+03  0.47000000000E+01 0. -1.
        -11    1    4    4    0    0 -0.12204545627E+02  0.44083857246E+02 -0.14276845294E+03  0.14991720568E+03  0.00000000000E+00 0.  1.
         12    1    4    4    0    0 -0.58098165525E+02  0.13859385150E+02 -0.54406892123E+02  0.80793497910E+02  0.00000000000E+00 0. -1.
         -5    1    5    5    0  502  0.29019272157E+02  0.66954613191E+02  0.20308385103E+02  0.75891757718E+02  0.47000000000E+01 0.  1.
         13    1    6    6    0    0  0.17281346139E+02  0.16602698510E+02  0.21504331665E+02  0.32198304343E+02  0.00000000000E+00 0. -1.
        -14    1    6    6    0    0  0.45240653745E+02 -0.74943656727E+02 -0.83751297695E+01  0.87939815974E+02  0.00000000000E+00 0.  1.
</event>
<event>
12    1  0.8406581E-002  0.1966892E+03  0.7818608E-02  0.1152616E+00
         21   -1    0    0  501  502  0.00000000000E+00  0.00000000000E+00  0.87437160691E+02  0.87437160691E+02  0.00000000000E+00 0. -1.
         21   -1    0    0  502  503 -0.00000000000E+00 -0.00000000000E+00 -0.64614200045E+03  0.64614200045E+03  0.00000000000E+00 0. -1.
         -6    2    1    2    0  503  0.58873494447E+02 -0.74055186793E+02 -0.73251451256E+02  0.20988671724E+03  0.17244245394E+03 0.  0.
        -24    2    3    3    0    0  0.34804638049E+02 -0.11637108101E+03 -0.38632490133E+02  0.14996587595E+03  0.79017107822E+02 0.  0.
          6    2    1    2  501    0 -0.58873494447E+02  0.74055186793E+02 -0.48545338851E+03  0.52369244390E+03  0.17215842806E+03 0.  0.
         24    2    5    5    0    0 -0.32644245978E+02 -0.43599912756E+01 -0.15790830936E+03  0.18583924724E+03  0.92285076417E+02 0.  0.
          5    1    5    5  501    0 -0.26229248469E+02  0.78415178069E+02 -0.32754507914E+03  0.33785319666E+03  0.47000000000E+01 0. -1.
        -11    1    6    6    0    0  0.27293029733E+02 -0.22305068419E+02 -0.62259917478E+02  0.71545250531E+02  0.00000000000E+00 0.  1.
         12    1    6    6    0    0 -0.59937275711E+02  0.17945077143E+02 -0.95648391886E+02  0.11429399671E+03  0.00000000000E+00 0. -1.
         -5    1    3    3    0  503  0.24068856399E+02  0.42315894220E+02 -0.34618961123E+02  0.59920841292E+02  0.47000000000E+01 0.  1.
         13    1    4    4    0    0  0.18705072424E+02 -0.40507271123E+02  0.23651145471E+02  0.50498469584E+02  0.00000000000E+00 0. -1.
        -14    1    4    4    0    0  0.16099565624E+02 -0.75863809890E+02 -0.62283635604E+02  0.99467406362E+02  0.00000000000E+00 0.  1.
</event>
<event>
12    1  0.8406581E-002  0.2761421E+03  0.7818608E-02  0.1097850E+00
         21   -1    0    0  501  502  0.00000000000E+00  0.00000000000E+00  0.33908384541E+03  0.33908384541E+03  0.00000000000E+00 0. -1.
         21   -1    0    0  502  503 -0.00000000000E+00 -0.00000000000E+00 -0.22528678940E+03  0.22528678940E+03  0.00000000000E+00 0. -1.
         -6    2    1    2    0  503 -0.17106548607E+03 -0.13157974388E+03  0.71581459129E+02  0.28526895272E+03  0.17227257637E+03 0.  0.
        -24    2    3    3    0    0 -0.17563326220E+03 -0.86026364389E+02  0.96046181500E+02  0.23314805862E+03  0.82979335348E+02 0.  0.
          6    2    1    2  501    0  0.17106548607E+03  0.13157974388E+03  0.42215596883E+02  0.27910168209E+03  0.17186902805E+03 0.  0.
         24    2    5    5    0    0  0.95477218270E+02 -0.44626016926E+01  0.19285515669E+02  0.12172002928E+03  0.72856162344E+02 0.  0.
          5    1    5    5  501    0  0.75588267803E+02  0.13604234557E+03  0.22930081213E+02  0.15738165281E+03  0.47000000000E+01 0. -1.
        -13    1    6    6    0    0  0.32659494349E+02  0.17545686463E+02 -0.22272828877E+02  0.43250116656E+02  0.00000000000E+00 0.  1.
         14    1    6    6    0    0  0.62817723921E+02 -0.22008288156E+02  0.41558344546E+02  0.78469912626E+02  0.00000000000E+00 0. -1.
         -5    1    3    3    0  503  0.45677761256E+01 -0.45553379486E+02 -0.24464722371E+02  0.52120894103E+02  0.47000000000E+01 0.  1.
         11    1    4    4    0    0 -0.12068975042E+03 -0.14313287562E+02  0.46623438577E+02  0.13017154482E+03  0.00000000000E+00 0. -1.
        -12    1    4    4    0    0 -0.54943511781E+02 -0.71713076827E+02  0.49422742923E+02  0.10297651379E+03  0.00000000000E+00 0.  1.
</event>
<event>
12    1  0.8406581E-002  0.1880805E+03  0.7818608E-02  0.1160529E+00
         21   -1    0    0  503  502  0.00000000000E+00  0.00000000000E+00  0.12645985502E+03  0.12645985502E+03  0.00000000000E+00 0. -1.
         21   -1    0    0  501  503 -0.00000000000E+00 -0.00000000000E+00 -0.41359427115E+03  0.41359427115E+03  0.00000000000E+00 0. -1.
          6    2    1    2  501    0  0.70206914842E+02 -0.16377902819E+02 -0.29802728324E+03  0.35165843214E+03  0.17218055856E+03 0.  0.
         24    2    3    3    0    0 -0.14761823011E+02 -0.16585232909E+02 -0.48319211282E+02  0.87848006644E+02  0.69925279572E+02 0.  0.
         -6    2    1    2    0  502 -0.70206914842E+02  0.16377902819E+02  0.10892867110E+02  0.18839569404E+03  0.17371538903E+03 0.  0.
        -24    2    5    5    0    0 -0.66869544729E+02  0.28805750499E+02  0.69256475175E+02  0.12844579676E+03  0.80003475412E+02 0.  0.
          5    1    3    3  501    0  0.84968737853E+02  0.20733009026E+00 -0.24970807196E+03  0.26381042549E+03  0.47000000000E+01 0. -1.
        -11    1    4    4    0    0 -0.22018915705E+02  0.20178043649E+02 -0.45200100062E+01  0.30206234204E+02  0.00000000000E+00 0.  1.
         12    1    4    4    0    0  0.72570926945E+01 -0.36763276558E+02 -0.43799201276E+02  0.57641772440E+02  0.00000000000E+00 0. -1.
         -5    1    5    5    0  502 -0.33373701137E+01 -0.12427847680E+02 -0.58363608066E+02  0.59949897278E+02  0.47000000000E+01 0.  1.
         11    1    6    6    0    0 -0.20660847737E+02  0.46213195159E+02  0.10505857236E+02  0.51700126424E+02  0.00000000000E+00 0. -1.
        -12    1    6    6    0    0 -0.46208696992E+02 -0.17407444660E+02  0.58750617940E+02  0.76745670338E+02  0.00000000000E+00 0.  1.
</event>
<event>
12    1  0.8406581E-002  0.2160625E+03  0.7818608E-02  0.1137543E+00
         21   -1    0    0  501  502  0.00000000000E+00  0.00000000000E+00  0.66141043934E+03  0.66141043934E+03  0.00000000000E+00 0.  1.
         21   -1    0    0  502  503 -0.00000000000E+00 -0.00000000000E+00 -0.11652552149E+03  0.11652552149E+03  0.00000000000E+00 0.  1.
         -6    2    1    2    0  503 -0.11797592448E+03  0.46227815821E+02  0.26483437575E+02  0.21767955699E+03  0.17500767798E+03 0.  0.
        -24    2    3    3    0    0 -0.11440350829E+03 -0.27688260794E+02  0.18031616009E+02  0.14304798306E+03  0.79264013188E+02 0.  0.
          6    2    1    2  501    0  0.11797592448E+03 -0.46227815821E+02  0.51840148027E+03  0.56025640384E+03  0.17056322460E+03 0.  0.
         24    2    5    5    0    0  0.13322373820E+03 -0.41256200227E+02  0.29246206159E+03  0.33369973610E+03  0.79817403666E+02 0.  0.
          5    1    5    5  501    0 -0.15247813713E+02 -0.49716155936E+01  0.22593941868E+03  0.22655666774E+03  0.47000000000E+01 0. -1.
        -13    1    6    6    0    0  0.32159397897E+02 -0.36539841032E+01  0.15829349381E+03  0.16156858808E+03  0.00000000000E+00 0.  1.
         14    1    6    6    0    0  0.10106434030E+03 -0.37602216124E+02  0.13416856779E+03  0.17213114802E+03  0.00000000000E+00 0. -1.
         -5    1    3    3    0  503 -0.35724161958E+01  0.73916076615E+02  0.84518215653E+01  0.74631573931E+02  0.47000000000E+01 0.  1.
         13    1    4    4    0    0 -0.53564266844E+02 -0.27285452797E+02  0.46381280235E+02  0.75926607807E+02  0.00000000000E+00 0. -1.
        -14    1    4    4    0    0 -0.60839241444E+02 -0.40280799675E+00 -0.28349664226E+02  0.67121375250E+02  0.00000000000E+00 0.  1.
</event>
<event>
12    1  0.8406581E-002  0.1770310E+03  0.7818608E-02  0.1171268E+00
         21   -1    0    0  503  502  0.00000000000E+00  0.00000000000E+00  0.58749396675E+02  0.58749396675E+02  0.00000000000E+00 0.  1.
         21   -1    0    0  501  503 -0.00000000000E+00 -0.00000000000E+00 -0.96392303220E+03  0.96392303220E+03  0.00000000000E+00 0.  1.
          6    2    1    2  501    0  0.17194423207E+02  0.33661709194E+02 -0.79538270271E+03  0.81436010960E+03  0.17064578949E+03 0.  0.
         24    2    3    3    0    0 -0.16202505006E+02  0.17176089001E+01 -0.73380226192E+03  0.73722373008E+03  0.69047789500E+02 0.  0.
         -6    2    1    2    0  502 -0.17194423207E+02 -0.33661709194E+02 -0.10979093281E+03  0.20831231928E+03  0.17294858941E+03 0.  0.
        -24    2    5    5    0    0 -0.29123949809E+02 -0.14747083804E+02  0.11718616259E+02  0.84672773929E+02  0.77242939772E+02 0.  0.
          5    1    3    3  501    0  0.33396928213E+02  0.31944100294E+02 -0.61580440791E+02  0.77136379521E+02  0.47000000000E+01 0. -1.
        -11    1    4    4    0    0 -0.39345809162E+02  0.12986094234E+02 -0.32812258247E+03  0.33072822750E+03  0.00000000000E+00 0.  1.
         12    1    4    4    0    0  0.23143304155E+02 -0.11268485334E+02 -0.40567967945E+03  0.40649550257E+03  0.00000000000E+00 0. -1.
         -5    1    5    5    0  502  0.11929526602E+02 -0.18914625389E+02 -0.12150954907E+03  0.12363954535E+03  0.47000000000E+01 0.  1.
         13    1    6    6    0    0  0.14034903760E+02  0.22716352058E+02  0.41636712109E+01  0.27024939081E+02  0.00000000000E+00 0. -1.
        -14    1    6    6    0    0 -0.43158853569E+02 -0.37463435862E+02  0.75549450483E+01  0.57647834848E+02  0.00000000000E+00 0.  1.
</event>
<event>
12    1  0.8406581E-002  0.1830355E+03  0.7818608E-02  0.1165056E+00
         21   -1    0    0  501  502  0.00000000000E+00  0.00000000000E+00  0.19370467496E+04  0.19370467496E+04  0.00000000000E+00 0. -1.
         21   -1    0    0  502  503 -0.00000000000E+00 -0.00000000000E+00 -0.68778679605E+02  0.68778679605E+02  0.00000000000E+00 0. -1.
         -6    2    1    2    0  503  0.55792455370E+02  0.25072862128E+02  0.65471178849E+02  0.19376068479E+03  0.17180011997E+03 0.  0.
        -24    2    3    3    0    0  0.23937131232E+02 -0.22527086632E+02 -0.31168855358E+02  0.81324467277E+02  0.67540473420E+02 0.  0.
          6    2    1    2  501    0 -0.55792455370E+02 -0.25072862128E+02  0.18027968911E+04  0.18120647444E+04  0.17251249438E+03 0.  0.
         24    2    5    5    0    0  0.42472020985E+01 -0.72814612550E+02  0.12495265659E+04  0.12534824514E+04  0.67687596330E+02 0.  0.
          5    1    5    5  501    0 -0.60039657469E+02  0.47741750421E+02  0.55327032526E+03  0.55858229297E+03  0.47000000000E+01 0. -1.
        -13    1    6    6    0    0 -0.18921341847E+02 -0.69712250488E+02  0.76821279149E+03  0.77160139195E+03  0.00000000000E+00 0.  1.
         14    1    6    6    0    0  0.23168543945E+02 -0.31023620616E+01  0.48131377438E+03  0.48188105948E+03  0.00000000000E+00 0. -1.
         -5    1    3    3    0  503  0.31855324139E+02  0.47599948761E+02  0.96640034207E+02  0.11243621752E+03  0.47000000000E+01 0.  1.
         11    1    4    4    0    0  0.15739771732E+02 -0.45260649867E+02 -0.94703811969E+01  0.48846237937E+02  0.00000000000E+00 0. -1.
        -12    1    4    4    0    0  0.81973594998E+01  0.22733563235E+02 -0.21698474161E+02  0.32478229340E+02  0.00000000000E+00 0.  1.
</event>
<event>
12    1  0.8406581E-002  0.2500164E+03  0.7818608E-02  0.1113310E+00
         21   -1    0    0  501  502  0.00000000000E+00  0.00000000000E+00  0.23495581698E+03  0.23495581698E+03  0.00000000000E+00 0. -1.
         21   -1    0    0  502  503 -0.00000000000E+00 -0.00000000000E+00 -0.10386566188E+04  0.10386566188E+04  0.00000000000E+00 0. -1.
         -6    2    1    2    0  503  0.65122892837E+02  0.16980905329E+03 -0.95109544859E+03  0.98338258135E+03  0.17141366113E+03 0.  0.
        -24    2    3    3    0    0  0.14257671798E+02  0.32961026591E+02 -0.54039071890E+03  0.54747534568E+03  0.80108767120E+02 0.  0.
          6    2    1    2  501    0 -0.65122892837E+02 -0.16980905329E+03  0.14739464674E+03  0.29022985446E+03  0.17155780595E+03 0.  0.
         24    2    5    5    0    0  0.24651669415E+02 -0.12532777517E+03  0.94343465125E+02  0.17676367447E+03  0.77652760200E+02 0.  0.
          5    1    5    5  501    0 -0.89774562251E+02 -0.44481278122E+02  0.53051181619E+02  0.11346617999E+03  0.47000000000E+01 0. -1.
        -11    1    6    6    0    0  0.19509017057E+02 -0.77968127002E+01 -0.63112854956E+01  0.21936826557E+02  0.00000000000E+00 0.  1.
         12    1    6    6    0    0  0.51426523579E+01 -0.11753096247E+03  0.10065475062E+03  0.15482684791E+03  0.00000000000E+00 0. -1.
         -5    1    3    3    0  503  0.50865221039E+02  0.13684802670E+03 -0.41070472969E+03  0.43590723567E+03  0.47000000000E+01 0.  1.
         13    1    4    4    0    0 -0.19139144084E+02  0.28089160139E+02 -0.44488585061E+03  0.44618239300E+03  0.00000000000E+00 0. -1.
        -14    1    4    4    0    0  0.33396815882E+02  0.48718664514E+01 -0.95504868295E+02  0.10129295268E+03  0.00000000000E+00 0.  1.
</event>
<event>
12    1  0.8406581E-002  0.3390434E+03  0.7818608E-02  0.1067218E+00
         21   -1    0    0  503  502  0.00000000000E+00  0.00000000000E+00  0.18778474227E+03  0.18778474227E+03  0.00000000000E+00 0.  1.
         21   -1    0    0  501  503 -0.00000000000E+00 -0.00000000000E+00 -0.65305425976E+03  0.65305425976E+03  0.00000000000E+00 0.  1.
          6    2    1    2  501    0  0.11762154611E+02 -0.29162965051E+03 -0.33821867591E+03  0.47889696277E+03  0.17252311984E+03 0.  0.
         24    2    3    3    0    0 -0.43106193014E+02 -0.25871708634E+03 -0.28542121210E+03  0.39581005263E+03  0.80047828253E+02 0.  0.
         -6    2    1    2    0  502 -0.11762154611E+02  0.29162965051E+03 -0.12705084159E+03  0.36194203926E+03  0.17226120312E+03 0.  0.
        -24    2    5    5    0    0  0.23586623652E+02  0.26939751021E+03 -0.68863603451E+02  0.29016705149E+03  0.79519648951E+02 0.  0.
          5    1    3    3  501    0  0.54868347625E+02 -0.32912564166E+02 -0.52797463806E+02  0.83086910133E+02  0.47000000000E+01 0. -1.
        -13    1    4    4    0    0  0.80559520752E+01 -0.18071255022E+03 -0.18475627763E+03  0.25856683139E+03  0.00000000000E+00 0.  1.
         14    1    4    4    0    0 -0.51162145089E+02 -0.78004536119E+02 -0.10066493447E+03  0.13724322124E+03  0.00000000000E+00 0. -1.
         -5    1    5    5    0  502 -0.35348778263E+02  0.22232140299E+02 -0.58187238139E+02  0.71774987769E+02  0.47000000000E+01 0.  1.
         13    1    6    6    0    0 -0.31722361213E+01  0.94047251128E+01 -0.22673508870E+02  0.24750756371E+02  0.00000000000E+00 0. -1.
        -14    1    6    6    0    0  0.26758859773E+02  0.25999278510E+03 -0.46190094581E+02  0.26541629512E+03  0.00000000000E+00 0.  1.
</event>
<event>
12    1  0.8406581E-002  0.1736404E+03  0.7818608E-02  0.1174667E+00
         21   -1    0    0  501  502  0.00000000000E+00  0.00000000000E+00  0.82563345846E+02  0.82563345846E+02  0.00000000000E+00 0.  1.
         21   -1    0    0  502  503 -0.00000000000E+00 -0.00000000000E+00 -0.47748139290E+03  0.47748139290E+03  0.00000000000E+00 0.  1.
         -6    2    1    2    0  503  0.46218505795E+00 -0.28026192460E+02 -0.59847423223E+02  0.18366462605E+03  0.17136306404E+03 0.  0.
        -24    2    3    3    0    0  0.10600844716E+02  0.54104129784E+02 -0.47922773892E+01  0.84159142113E+02  0.63404735707E+02 0.  0.
          6    2    1    2  501    0 -0.46218505795E+00  0.28026192460E+02 -0.33507062383E+03  0.37638011269E+03  0.16912712733E+03 0.  0.
         24    2    5    5    0    0 -0.33361412550E+02 -0.40359065405E+02 -0.19806151969E+03  0.21968777950E+03  0.79325386060E+02 0.  0.
          5    1    5    5  501    0  0.32899227492E+02  0.68385257865E+02 -0.13700910414E+03  0.15669233319E+03  0.47000000000E+01 0. -1.
        -13    1    6    6    0    0 -0.10723732732E+02  0.17646311842E+02 -0.10948652509E+03  0.11141673995E+03  0.00000000000E+00 0.  1.
         14    1    6    6    0    0 -0.22637679818E+02 -0.58005377248E+02 -0.88574994603E+02  0.10827103955E+03  0.00000000000E+00 0. -1.
         -5    1    3    3    0  503 -0.10138659658E+02 -0.82130322244E+02 -0.55055145834E+02  0.99505483941E+02  0.47000000000E+01 0.  1.
         13    1    4    4    0    0 -0.20849121405E+02  0.43327832227E+02 -0.13210568148E+02  0.49864877616E+02  0.00000000000E+00 0. -1.
        -14    1    4    4    0    0  0.31449966121E+02  0.10776297557E+02  0.84182907586E+01  0.34294264497E+02  0.00000000000E+00 0.  1.
</event>
<event>
12    1  0.8406581E-002  0.1841652E+03  0.7818608E-02  0.1164197E+00
         21   -1    0    0  501  502  0.00000000000E+00  0.00000000000E+00  0.39776218533E+03  0.39776218533E+03  0.00000000000E+00 0.  1.
         21   -1    0    0  502  503 -0.00000000000E+00 -0.00000000000E+00 -0.12792348187E+03  0.12792348187E+03  0.00000000000E+00 0.  1.
         -6    2    1    2    0  503  0.14104704096E+02 -0.62343424797E+02 -0.17746899461E+02  0.18501834230E+03  0.17271707864E+03 0.  0.
        -24    2    3    3    0    0  0.16122832646E+01  0.13994931625E+02  0.28873549275E+02  0.94579625593E+02  0.88955978782E+02 0.  0.
          6    2    1    2  501    0 -0.14104704096E+02  0.62343424797E+02  0.28758560292E+03  0.34066732490E+03  0.17106461340E+03 0.  0.
         24    2    5    5    0    0  0.51465473990E+02  0.65051999284E+02  0.18429132389E+03  0.21819862396E+03  0.82261107540E+02 0.  0.
          5    1    5    5  501    0 -0.65570178086E+02 -0.27085744868E+01  0.10329427903E+03  0.12246870094E+03  0.47000000000E+01 0. -1.
        -13    1    6    6    0    0 -0.71930742045E+01 -0.13664634604E+02  0.46622386463E+02  0.49113231159E+02  0.00000000000E+00 0.  1.
         14    1    6    6    0    0  0.58658548194E+02  0.78716633888E+02  0.13766893743E+03  0.16908539280E+03  0.00000000000E+00 0. -1.
         -5    1    3    3    0  503  0.12492420831E+02 -0.76338356423E+02 -0.46620448736E+02  0.90438716708E+02  0.47000000000E+01 0.  1.
         11    1    4    4    0    0  0.35183849753E+02  0.33162536458E+02  0.28083062404E+02  0.55913464405E+02  0.00000000000E+00 0. -1.
        -12    1    4    4    0    0 -0.33571566489E+02 -0.19167604832E+02  0.79048687053E+00  0.38666161188E+02  0.00000000000E+00 0.  1.
</event>
<event>
12    1  0.8406581E-002  0.2043239E+03  0.7818608E-02  0.1146677E+00
         21   -1    0    0  503  502  0.00000000000E+00  0.00000000000E+00  0.25613988938E+03  0.25613988938E+03  0.00000000000E+00 0.  1.
         21   -1    0    0  501  503 -0.00000000000E+00 -0.00000000000E+00 -0.28624084405E+03  0.28624084405E+03  0.00000000000E+00 0.  1.
          6    2    1    2  501    0 -0.75167049290E+02  0.81093227228E+02 -0.19453715814E+03  0.28212224062E+03  0.17181983574E+03 0.  0.
         24    2    3    3    0    0  0.27154460867E+02  0.42309262630E+02 -0.77396041749E+02  0.12175385689E+03  0.79412945667E+02 0.  0.
         -6    2    1    2    0  502  0.75167049290E+02 -0.81093227228E+02  0.16443620346E+03  0.26025849281E+03  0.16872765413E+03 0.  0.
        -24    2    5    5    0    0 -0.19078657417E+02 -0.63201627287E+02  0.70284997405E+02  0.12576350337E+03  0.80734361086E+02 0.  0.
          5    1    3    3  501    0 -0.10232151016E+03  0.38783964598E+02 -0.11714111639E+03  0.16036838373E+03  0.47000000000E+01 0. -1.
        -11    1    4    4    0    0 -0.16863040929E+02  0.39700306454E+02 -0.61000339203E+02  0.74709556717E+02  0.00000000000E+00 0.  1.
         12    1    4    4    0    0  0.44017501796E+02  0.26089561757E+01 -0.16395702546E+02  0.47044300172E+02  0.00000000000E+00 0. -1.
         -5    1    5    5    0  502  0.94245706707E+02 -0.17891599941E+02  0.94151206059E+02  0.13449498944E+03  0.47000000000E+01 0.  1.
         11    1    6    6    0    0  0.58636960405E+00 -0.78516705575E+02  0.46197202003E+02  0.91101033784E+02  0.00000000000E+00 0. -1.
        -12    1    6    6    0    0 -0.19665027021E+02  0.15315078288E+02  0.24087795402E+02  0.34662469590E+02  0.00000000000E+00 0.  1.
</event>
<event>
12    1  0.8406581E-002  0.1731807E+03  0.7818608E-02  0.1174585E+00
         21   -1    0    0  501  502  0.00000000000E+00  0.00000000000E+00  0.49327441670E+02  0.49327441670E+02  0.00000000000E+00 0. -1.
         21   -1    0    0  502  503 -0.00000000000E+00 -0.00000000000E+00 -0.70647482119E+03  0.70647482119E+03  0.00000000000E+00 0. -1.
         -6    2    1    2    0  503  0.28003253199E+01 -0.20512829928E+02 -0.46974724432E+03  0.50063493961E+03  0.17188441232E+03 0.  0.
        -24    2    3    3    0    0 -0.73929994498E+01  0.18424788180E+02 -0.44624022192E+03  0.45378718538E+03  0.79989653721E+02 0.  0.
          6    2    1    2  501    0 -0.28003253199E+01  0.20512829928E+02 -0.18740013520E+03  0.25516732325E+03  0.17193875121E+03 0.  0.
         24    2    5    5    0    0 -0.33241739096E+01  0.63412035560E+02 -0.18556172525E+03  0.21196910556E+03  0.80409025903E+02 0.  0.
          5    1    5    5  501    0  0.52384858970E+00 -0.42899205632E+02 -0.18384099560E+01  0.43198217699E+02  0.47000000000E+01 0. -1.
        -11    1    6    6    0    0 -0.38976358428E+02  0.25143770743E+02 -0.59167742111E+02  0.75181031052E+02  0.00000000000E+00 0.  1.
         12    1    6    6    0    0  0.35652184519E+02  0.38268264816E+02 -0.12639398314E+03  0.13678807450E+03  0.00000000000E+00 0. -1.
         -5    1    3    3    0  503  0.10193324770E+02 -0.38937618107E+02 -0.23507022404E+02  0.46847754226E+02  0.47000000000E+01 0.  1.
         11    1    4    4    0    0 -0.40356271135E+02 -0.43075069370E+01 -0.17753939368E+03  0.18211924540E+03  0.00000000000E+00 0. -1.
        -12    1    4    4    0    0  0.32963271686E+02  0.22732295117E+02 -0.26870082823E+03  0.27166793998E+03  0.00000000000E+00 0.  1.
</event>
<event>
12    1  0.8406581E-002  0.2457492E+03  0.7818608E-02  0.1116346E+00
         21   -1    0    0  501  502  0.00000000000E+00  0.00000000000E+00  0.38569137149E+03  0.38569137149E+03  0.00000000000E+00 0. -1.
         21   -1    0    0  502  503 -0.00000000000E+00 -0.00000000000E+00 -0.22256007679E+03  0.22256007679E+03  0.00000000000E+00 0. -1.
         -6    2    1    2    0  503  0.35613222753E+02 -0.17191168794E+03 -0.85841385325E+02  0.25842280388E+03  0.16909072135E+03 0.  0.
        -24    2    3    3    0    0 -0.41157691322E+02 -0.67028481290E+02 -0.55909446654E+02  0.12496018275E+03  0.79387708051E+02 0.  0.
          6    2    1    2  501    0 -0.35613222753E+02  0.17191168794E+03  0.24897268002E+03  0.34982864440E+03  0.17196149266E+03 0.  0.
         24    2    5    5    0    0  0.89679787795E+01  0.32080445511E+02  0.39506776873E+02  0.94019507597E+02  0.78544909207E+02 0.  0.
          5    1    5    5  501    0 -0.44581201532E+02  0.13983124243E+03  0.20946590314E+03  0.25580913680E+03  0.47000000000E+01 0. -1.
        -13    1    6    6    0    0  0.46147768836E+01 -0.26159509374E+02  0.16361302052E+02  0.31197889371E+02  0.00000000000E+00 0.  1.
         14    1    6    6    0    0  0.43532018959E+01  0.58239954886E+02  0.23145474822E+02  0.62821618226E+02  0.00000000000E+00 0. -1.
         -5    1    3    3    0  503  0.76770914075E+02 -0.10488320665E+03 -0.29931938671E+02  0.13346262113E+03  0.47000000000E+01 0.  1.
         11    1    4    4    0    0 -0.37589587128E+02 -0.49588671318E+02  0.41055890757E+01  0.62360798946E+02  0.00000000000E+00 0. -1.
        -12    1    4    4    0    0 -0.35681041935E+01 -0.17439809972E+02 -0.60015035730E+02  0.62599383807E+02  0.00000000000E+00 0.  1.
</event>
<event>
12    1  0.8406581E-002  0.3462305E+03  0.7818608E-02  0.1064310E+00
         21   -1    0    0  503  502  0.00000000000E+00  0.00000000000E+00  0.32783270266E+03  0.32783270266E+03  0.00000000000E+00 0. -1.
         21   -1    0    0  501  503 -0.00000000000E+00 -0.00000000000E+00 -0.44515714085E+03  0.44515714085E+03  0.00000000000E+00 0.  1.
          6    2    1    2  501    0 -0.15623452925E+03 -0.25609438926E+03  0.10599755198E+03  0.36209259721E+03  0.17286411886E+03 0.  0.
         24    2    3    3    0    0 -0.30665558412E+02 -0.53321979364E+02  0.64980539915E+02  0.12004156554E+03  0.80024352136E+02 0.  0.
         -6    2    1    2    0  502  0.15623452925E+03  0.25609438926E+03 -0.22332199017E+03  0.41089724630E+03  0.17020655505E+03 0.  0.
        -24    2    5    5    0    0  0.25191364064E+02  0.38420561428E+02 -0.64958711149E+02  0.11147242334E+03  0.78075109007E+02 0.  0.
          5    1    3    3  501    0 -0.12556897084E+03 -0.20277240990E+03  0.41017012067E+02  0.24205103167E+03  0.47000000000E+01 0. -1.
        -13    1    4    4    0    0  0.77510172869E+01 -0.98797753102E+01 -0.16061543851E+02  0.20387776241E+02  0.00000000000E+00 0.  1.
         14    1    4    4    0    0 -0.38416575699E+02 -0.43442204054E+02  0.81042083766E+02  0.99653789304E+02  0.00000000000E+00 0. -1.
         -5    1    5    5    0  502  0.13104316518E+03  0.21767382783E+03 -0.15836327902E+03  0.29942482296E+03  0.47000000000E+01 0.  1.
         11    1    6    6    0    0  0.51000800038E+02  0.35042141187E+02 -0.57312303807E+02  0.84342951283E+02  0.00000000000E+00 0. -1.
        -12    1    6    6    0    0 -0.25809435974E+02  0.33784202409E+01 -0.76464073427E+01  0.27129472053E+02  0.00000000000E+00 0.  1.
</event>
<event>
12    1  0.8406581E-002  0.1739867E+03  0.7818608E-02  0.1174081E+00
         21   -1    0    0  503  502  0.00000000000E+00  0.00000000000E+00  0.52336416510E+02  0.52336416510E+02  0.00000000000E+00 0. -1.
         21   -1    0    0  501  503 -0.00000000000E+00 -0.00000000000E+00 -0.66119447664E+03  0.66119447664E+03  0.00000000000E+00 0. -1.
          6    2    1    2  501    0 -0.21457880522E+02  0.12451489013E+02 -0.43488065083E+03  0.46839357342E+03  0.17220882364E+03 0.  0.
         24    2    3    3    0    0 -0.23455378035E+02  0.97852427188E+01 -0.83729535665E+02  0.11719520419E+03  0.77962651373E+02 0.  0.
         -6    2    1    2    0  502  0.21457880522E+02 -0.12451489013E+02 -0.17397740930E+03  0.24513731973E+03  0.17090548956E+03 0.  0.
        -24    2    5    5    0    0  0.73836115324E+02 -0.17319311631E+02 -0.16458764572E+03  0.19149561172E+03  0.61884939221E+02 0.  0.
          5    1    3    3  501    0  0.19974975128E+01  0.26662462946E+01 -0.35115111517E+03  0.35119836923E+03  0.47000000000E+01 0. -1.
        -13    1    4    4    0    0  0.23701457469E+02 -0.15196241965E+02 -0.23040695080E+02  0.36380743337E+02  0.00000000000E+00 0.  1.
         14    1    4    4    0    0 -0.47156835503E+02  0.24981484683E+02 -0.60688840585E+02  0.80814460855E+02  0.00000000000E+00 0. -1.
         -5    1    5    5    0  502 -0.52378234802E+02  0.48678226172E+01 -0.93897635746E+01  0.53641708008E+02  0.47000000000E+01 0.  1.
         11    1    6    6    0    0  0.48182410222E+02 -0.24868117274E+02 -0.49754489214E+02  0.73589925320E+02  0.00000000000E+00 0. -1.
        -12    1    6    6    0    0  0.25653705102E+02  0.75488056437E+01 -0.11483315651E+03  0.11790568640E+03  0.00000000000E+00 0.  1.
</event>
<event>
12    1  0.8406581E-002  0.1919414E+03  0.7818608E-02  0.1156731E+00
         21   -1    0    0  503  502  0.00000000000E+00  0.00000000000E+00  0.23424724902E+03  0.23424724902E+03  0.00000000000E+00 0. -1.
         21   -1    0    0  501  503 -0.00000000000E+00 -0.00000000000E+00 -0.16803274938E+03  0.16803274938E+03  0.00000000000E+00 0. -1.
          6    2    1    2  501    0 -0.71282468502E+02  0.48467363957E+02 -0.17860855253E+02  0.19277065666E+03  0.17149705605E+03 0.  0.
         24    2    3    3    0    0 -0.87352572979E+02 -0.20825623203E+02 -0.75131207257E+01  0.12073641523E+03  0.80353322227E+02 0.  0.
         -6    2    1    2    0  502  0.71282468502E+02 -0.48467363957E+02  0.84075354894E+02  0.20950934175E+03  0.17145035228E+03 0.  0.
        -24    2    5    5    0    0  0.40224471303E+02 -0.33732486156E+02 -0.22289304231E+02  0.97628840659E+02  0.79238177234E+02 0.  0.
          5    1    3    3  501    0  0.16070104477E+02  0.69292987159E+02 -0.10347734528E+02  0.72034241422E+02  0.47000000000E+01 0. -1.
        -13    1    4    4    0    0 -0.42576776911E+02  0.26794483299E+02 -0.20095772704E+02  0.54171637855E+02  0.00000000000E+00 0.  1.
         14    1    4    4    0    0 -0.44775796069E+02 -0.47620106501E+02  0.12582651979E+02  0.66564777380E+02  0.00000000000E+00 0. -1.
         -5    1    5    5    0  502  0.31057997199E+02 -0.14734877801E+02  0.10636465913E+03  0.11188050109E+03  0.47000000000E+01 0.  1.
         11    1    6    6    0    0 -0.22079952187E+02 -0.18003422118E+02 -0.16944834048E+02  0.33147773643E+02  0.00000000000E+00 0. -1.
        -12    1    6    6    0    0  0.62304423490E+02 -0.15729064037E+02 -0.53444701832E+01  0.64481067016E+02  0.00000000000E+00 0.  1.
</event>
<event>
12    1  0.8406581E-002  0.2732963E+03  0.7818608E-02  0.1099443E+00
         21   -1    0    0  501  502  0.00000000000E+00  0.00000000000E+00  0.75504397149E+02  0.75504397149E+02  0.00000000000E+00 0.  1.
         21   -1    0    0  502  503 -0.00000000000E+00 -0.00000000000E+00 -0.13043264996E+04  0.13043264996E+04  0.00000000000E+00 0. -1.
         -6    2    1    2    0  503  0.37315766429E+02 -0.20978041752E+03 -0.95378572059E+03  0.99209915762E+03  0.17074322164E+03 0.  0.
        -24    2    3    3    0    0 -0.15647015249E+02 -0.11493662772E+03 -0.72794287315E+03  0.74144504843E+03  0.79904166394E+02 0.  0.
          6    2    1    2  501    0 -0.37315766429E+02  0.20978041752E+03 -0.27503638186E+03  0.38773173914E+03  0.17114496835E+03 0.  0.
         24    2    5    5    0    0 -0.63600226867E+02  0.88415027167E+02 -0.82324772542E+02  0.15842782465E+03  0.80372890712E+02 0.  0.
          5    1    5    5  501    0  0.26284460437E+02  0.12136539035E+03 -0.19271160932E+03  0.22930391449E+03  0.47000000000E+01 0. -1.
        -13    1    6    6    0    0  0.16288158600E+00  0.68390423140E+02 -0.38102911311E+02  0.78288622150E+02  0.00000000000E+00 0.  1.
         14    1    6    6    0    0 -0.63763108453E+02  0.20024604026E+02 -0.44221861231E+02  0.80139202496E+02  0.00000000000E+00 0. -1.
         -5    1    3    3    0  503  0.52962781678E+02 -0.94843789793E+02 -0.22584284745E+03  0.25065410918E+03  0.47000000000E+01 0.  1.
         11    1    4    4    0    0 -0.18911700320E+02 -0.22153119683E+02 -0.38678369815E+03  0.38787890156E+03  0.00000000000E+00 0. -1.
        -12    1    4    4    0    0  0.32646850710E+01 -0.92783508038E+02 -0.34115917500E+03  0.35356614688E+03  0.00000000000E+00 0.  1.
</event>
<event>
12    1  0.8406581E-002  0.1871237E+03  0.7818608E-02  0.1161155E+00
         21   -1    0    0  503  502  0.00000000000E+00  0.00000000000E+00  0.46731177104E+03  0.46731177104E+03  0.00000000000E+00 0. -1.
         21   -1    0    0  501  503 -0.00000000000E+00 -0.00000000000E+00 -0.13290996828E+03  0.13290996828E+03  0.00000000000E+00 0.  1.
          6    2    1    2  501    0 -0.14396563796E+02  0.71081437643E+02 -0.31315800758E+02  0.18941199426E+03  0.17215223602E+03 0.  0.
         24    2    3    3    0    0  0.12555092518E+02  0.34205691875E+02 -0.82316685731E+02  0.12078697935E+03  0.80534451790E+02 0.  0.
         -6    2    1    2    0  502  0.14396563796E+02 -0.71081437643E+02  0.36571760352E+03  0.41080974506E+03  0.17249767907E+03 0.  0.
        -24    2    5    5    0    0 -0.30516675773E+02  0.16828760786E+02  0.18544569537E+03  0.20522411097E+03  0.80699164196E+02 0.  0.
          5    1    3    3  501    0 -0.26951656314E+02  0.36875745768E+02  0.51000884972E+02  0.68625014914E+02  0.47000000000E+01 0. -1.
        -11    1    4    4    0    0 -0.24844426807E+02  0.19692468573E+02 -0.73022944036E+02  0.79607720841E+02  0.00000000000E+00 0.  1.
         12    1    4    4    0    0  0.37399519325E+02  0.14513223302E+02 -0.92937416947E+01  0.41179258505E+02  0.00000000000E+00 0. -1.
         -5    1    5    5    0  502  0.44913239569E+02 -0.87910198429E+02  0.18027190815E+03  0.20558563409E+03  0.47000000000E+01 0.  1.
         13    1    6    6    0    0 -0.38311732529E+02 -0.24191875322E+02  0.82320694145E+02  0.93966655604E+02  0.00000000000E+00 0. -1.
        -14    1    6    6    0    0  0.77950567564E+01  0.41020636108E+02  0.10312500123E+03  0.11125745537E+03  0.00000000000E+00 0.  1.
</event>
<event>
12    1  0.8406581E-002  0.1846489E+03  0.7818608E-02  0.1163502E+00
         21   -1    0    0  503  502  0.00000000000E+00  0.00000000000E+00  0.64797835217E+02  0.64797835217E+02  0.00000000000E+00 0. -1.
         21   -1    0    0  501  503 -0.00000000000E+00 -0.00000000000E+00 -0.71389246836E+03  0.71389246836E+03  0.00000000000E+00 0. -1.
          6    2    1    2  501    0  0.33950195853E+02  0.58102929384E+02 -0.12444232781E+03  0.22266818263E+03  0.17194958681E+03 0.  0.
         24    2    3    3    0    0  0.58261536017E+02  0.24069363210E+02 -0.11860583901E+02  0.10247640276E+03  0.79918701484E+02 0.  0.
         -6    2    1    2    0  502 -0.33950195853E+02 -0.58102929384E+02 -0.52465230533E+03  0.55602212094E+03  0.17138258749E+03 0.  0.
        -24    2    5    5    0    0 -0.56504196689E+02 -0.46103352195E+02 -0.51766099768E+03  0.52912154123E+03  0.81721805816E+02 0.  0.
          5    1    3    3  501    0 -0.24311340164E+02  0.34033566173E+02 -0.11258174391E+03  0.12019177987E+03  0.47000000000E+01 0. -1.
        -13    1    4    4    0    0  0.13082879331E+00  0.29625888374E+02 -0.29162812812E+02  0.41571384740E+02  0.00000000000E+00 0.  1.
         14    1    4    4    0    0  0.58130707224E+02 -0.55565251637E+01  0.17302228910E+02  0.60905018016E+02  0.00000000000E+00 0. -1.
         -5    1    5    5    0  502  0.22554000836E+02 -0.11999577188E+02 -0.69913076462E+01  0.26900579715E+02  0.47000000000E+01 0.  1.
         13    1    6    6    0    0 -0.49469132429E+02  0.12030978912E+02 -0.24949477726E+03  0.25463617850E+03  0.00000000000E+00 0. -1.
        -14    1    6    6    0    0 -0.70350642601E+01 -0.58134331107E+02 -0.26816622042E+03  0.27448536273E+03  0.00000000000E+00 0.  1.
</event>
<event>
12    1  0.8406581E-002  0.1811392E+03  0.7818608E-02  0.1166927E+00
         21   -1    0    0  503  502  0.00000000000E+00  0.00000000000E+00  0.46864865622E+03  0.46864865622E+03  0.00000000000E+00 0. -1.
         21   -1    0    0  501  503 -0.00000000000E+00 -0.00000000000E+00 -0.14674899572E+03  0.14674899572E+03  0.00000000000E+00 0. -1.
          6    2    1    2  501    0  0.35861795049E+02 -0.43797170056E+02 -0.62264704498E+02  0.19066987919E+03  0.17109602261E+03 0.  0.
         24    2    3    3    0    0 -0.70411934698E+01 -0.25473517408E+01 -0.93715876380E+02  0.12319039973E+03  0.79606166178E+02 0.  0.
         -6    2    1    2    0  502 -0.35861795049E+02  0.43797170056E+02  0.38416436499E+03  0.42472777275E+03  0.17206731581E+03 0.  0.
        -24    2    5    5    0    0 -0.17086617838E+02  0.45639944760E+02  0.39236271068E+03  0.40362786825E+03  0.81191146276E+02 0.  0.
          5    1    3    3  501    0  0.42902988519E+02 -0.41249818315E+02  0.31451171883E+02  0.67479479456E+02  0.47000000000E+01 0. -1.
        -13    1    4    4    0    0  0.19732256650E+02 -0.18082787592E+02 -0.25185024654E+01  0.26882931653E+02  0.00000000000E+00 0.  1.
         14    1    4    4    0    0 -0.26773450119E+02  0.15535435852E+02 -0.91197373915E+02  0.96307468077E+02  0.00000000000E+00 0. -1.
         -5    1    5    5    0  502 -0.18775177211E+02 -0.18427747037E+01 -0.81983456863E+01  0.21099904500E+02  0.47000000000E+01 0.  1.
         13    1    6    6    0    0  0.29883953450E+02  0.32831497848E+02  0.22449637929E+03  0.22884401290E+03  0.00000000000E+00 0. -1.
        -14    1    6    6    0    0 -0.46970571288E+02  0.12808446912E+02  0.16786633138E+03  0.17478385535E+03  0.00000000000E+00 0.  1.
</event>
<event>
12    1  0.8406581E-002  0.2243379E+03  0.7818608E-02  0.1130845E+00
         21   -1    0    0  503  502  0.00000000000E+00  0.00000000000E+00  0.24913256819E+03  0.24913256819E+03  0.00000000000E+00 0. -1.
         21   -1    0    0  501  503 -0.00000000000E+00 -0.00000000000E+00 -0.21620688369E+03  0.21620688369E+03  0.00000000000E+00 0. -1.
          6    2    1    2  501    0 -0.79340074157E+02 -0.11773527852E+03 -0.44779100811E+02  0.22792522833E+03  0.17259286968E+03 0.  0.
         24    2    3    3    0    0 -0.99479322935E+02 -0.11357335635E+03 -0.78546662224E+02  0.18811004101E+03  0.80129685009E+02 0.  0.
         -6    2    1    2    0  502  0.79340074157E+02  0.11773527852E+03  0.77704785306E+02  0.23741422355E+03  0.17369811947E+03 0.  0.
        -24    2    5    5    0    0  0.50657170988E+02  0.15222917211E+03  0.65890089947E+02  0.19078574882E+03  0.79484767015E+02 0.  0.
          5    1    3    3  501    0  0.20139248779E+02 -0.41619221738E+01  0.33767561413E+02  0.39815187320E+02  0.47000000000E+01 0. -1.
        -11    1    4    4    0    0  0.19685963662E+01 -0.28572380522E+02 -0.41946462149E+02  0.50791357407E+02  0.00000000000E+00 0.  1.
         12    1    4    4    0    0 -0.10144791930E+03 -0.85000975827E+02 -0.36600200075E+02  0.13731868361E+03  0.00000000000E+00 0. -1.
         -5    1    5    5    0  502  0.28682903169E+02 -0.34493893586E+02  0.11814695359E+02  0.46628474727E+02  0.47000000000E+01 0.  1.
         13    1    6    6    0    0 -0.53625090383E+01  0.54519529202E+02  0.55004767600E+02  0.77631565914E+02  0.00000000000E+00 0. -1.
        -14    1    6    6    0    0  0.56019680027E+02  0.97709642908E+02  0.10885322347E+02  0.11315418291E+03  0.00000000000E+00 0.  1.
</event>
<event>
12    1  0.8406581E-002  0.1772676E+03  0.7818608E-02  0.1170650E+00
         21   -1    0    0  501  502  0.00000000000E+00  0.00000000000E+00  0.33447429806E+03  0.33447429806E+03  0.00000000000E+00 0.  1.
         21   -1    0    0  502  503 -0.00000000000E+00 -0.00000000000E+00 -0.98175297880E+02  0.98175297880E+02  0.00000000000E+00 0.  1.
         -6    2    1    2    0  503 -0.16275035990E+02  0.35271320069E+02  0.71541365399E+02  0.19115957121E+03  0.17295916249E+03 0.  0.
        -24    2    3    3    0    0 -0.88731685542E+01  0.90388553602E+02  0.55537388652E+02  0.13309999538E+03  0.79889820944E+02 0.  0.
          6    2    1    2  501    0  0.16275035990E+02 -0.35271320069E+02  0.16475763478E+03  0.24149002473E+03  0.17223069125E+03 0.  0.
         24    2    5    5    0    0 -0.42907103662E+02 -0.63579891976E+02  0.10026360346E+03  0.14937340857E+03  0.79851128977E+02 0.  0.
          5    1    5    5  501    0  0.59182139652E+02  0.28308571908E+02  0.64494031320E+02  0.92116616162E+02  0.47000000000E+01 0. -1.
        -13    1    6    6    0    0  0.16581683082E+02  0.66709258691E+01  0.23418805322E+02  0.29460039180E+02  0.00000000000E+00 0.  1.
         14    1    6    6    0    0 -0.59488786744E+02 -0.70250817845E+02  0.76844798140E+02  0.11991336939E+03  0.00000000000E+00 0. -1.
         -5    1    3    3    0  503 -0.74018674354E+01 -0.55117233533E+02  0.16003976747E+02  0.58059575830E+02  0.47000000000E+01 0.  1.
         13    1    4    4    0    0  0.17527688288E+02 -0.50829604595E+01 -0.23030633143E+01  0.18394576493E+02  0.00000000000E+00 0. -1.
        -14    1    4    4    0    0 -0.26400856842E+02  0.95471514061E+02  0.57840451966E+02  0.11470541889E+03  0.00000000000E+00 0.  1.
</event>
<event>
12    1  0.8406581E-002  0.1746278E+03  0.7818608E-02  0.1173210E+00
         21   -1    0    0  503  502  0.00000000000E+00  0.00000000000E+00  0.28338367646E+03  0.28338367646E+03  0.00000000000E+00 0. -1.
         21   -1    0    0  501  503 -0.00000000000E+00 -0.00000000000E+00 -0.10928560759E+03  0.10928560759E+03  0.00000000000E+00 0. -1.
          6    2    1    2  501    0 -0.27806950901E+02  0.57892367871E+01  0.61055685663E+02  0.18499373101E+03  0.17230247235E+03 0.  0.
         24    2    3    3    0    0 -0.69386365404E+02  0.40728399170E+02  0.15388634545E+02  0.11388000282E+03  0.79111154503E+02 0.  0.
         -6    2    1    2    0  502  0.27806950901E+02 -0.57892367871E+01  0.11304238321E+03  0.20767555305E+03  0.17188313806E+03 0.  0.
        -24    2    5    5    0    0 -0.42492283117E+02  0.28725455083E+02  0.72843117582E+02  0.11952047823E+03  0.79676088280E+02 0.  0.
          5    1    3    3  501    0  0.41579414502E+02 -0.34939162383E+02  0.45667051118E+02  0.71113728184E+02  0.47000000000E+01 0. -1.
        -11    1    4    4    0    0 -0.37552913678E+02  0.11140400771E+02  0.46226287825E+02  0.60590424500E+02  0.00000000000E+00 0.  1.
         12    1    4    4    0    0 -0.31833451726E+02  0.29587998399E+02 -0.30837653279E+02  0.53289578323E+02  0.00000000000E+00 0. -1.
         -5    1    5    5    0  502  0.70299234019E+02 -0.34514691870E+02  0.40199265629E+02  0.88155074815E+02  0.47000000000E+01 0.  1.
         13    1    6    6    0    0 -0.18890845542E+02  0.53287216719E+02  0.61688890722E+02  0.83677420786E+02  0.00000000000E+00 0. -1.
        -14    1    6    6    0    0 -0.23601437575E+02 -0.24561761636E+02  0.11154226861E+02  0.35843057447E+02  0.00000000000E+00 0.  1.
</event>
<event>
12    1  0.8406581E-002  0.1911497E+03  0.7818608E-02  0.1159299E+00
         21   -1    0    0  501  502  0.00000000000E+00  0.00000000000E+00  0.18588619476E+04  0.18588619476E+04  0.00000000000E+00 0. -1.
         21   -1    0    0  502  503 -0.00000000000E+00 -0.00000000000E+00 -0.19388902036E+02  0.19388902036E+02  0.00000000000E+00 0. -1.
         -6    2    1    2    0  503 -0.61972122908E+02 -0.18492449898E+01  0.74014364854E+03  0.76242678397E+03  0.17215695376E+03 0.  0.
        -24    2    3    3    0    0 -0.82789271541E+02 -0.52718153980E+02  0.46923792441E+03  0.48596159459E+03  0.79631491679E+02 0.  0.
          6    2    1    2  501    0  0.61972122908E+02  0.18492449898E+01  0.10993293970E+04  0.11158240656E+04  0.18081553753E+03 0.  0.
         24    2    5    5    0    0 -0.39853022476E+02 -0.71909793596E+01  0.55075463770E+03  0.55778603608E+03  0.78451370357E+02 0.  0.
          5    1    5    5  501    0  0.10182514538E+03  0.90402243494E+01  0.54857475930E+03  0.55803802955E+03  0.47000000000E+01 0. -1.
        -11    1    6    6    0    0 -0.29461664594E+02  0.24564248720E+02  0.45008216442E+03  0.45171378850E+03  0.00000000000E+00 0.  1.
         12    1    6    6    0    0 -0.10391357882E+02 -0.31755228080E+02  0.10067247328E+03  0.10607224757E+03  0.00000000000E+00 0. -1.
         -5    1    3    3    0  503  0.20817148633E+02  0.50868908990E+02  0.27090572412E+03  0.27646518938E+03  0.47000000000E+01 0.  1.
         13    1    4    4    0    0 -0.82816332041E+02 -0.20949370053E+02  0.40935710931E+03  0.41817539849E+03  0.00000000000E+00 0. -1.
        -14    1    4    4    0    0  0.27060500241E-01 -0.31768783926E+02  0.59880815105E+02  0.67786196102E+02  0.00000000000E+00 0.  1.
</event>
<event>
12    1  0.8406581E-002  0.1855352E+03  0.7818608E-02  0.1164747E+00
         21   -1    0    0  501  502  0.00000000000E+00  0.00000000000E+00  0.53699676322E+02  0.53699676322E+02  0.00000000000E+00 0. -1.
         21   -1    0    0  502  503 -0.00000000000E+00 -0.00000000000E+00 -0.63243196185E+03  0.63243196185E+03  0.00000000000E+00 0. -1.
         -6    2    1    2    0  503  0.63650043178E+02 -0.19721758964E+02 -0.23139731578E+03  0.29659406407E+03  0.17315612990E+03 0.  0.
        -24    2    3    3    0    0 -0.26211456452E+02  0.10483565160E+02 -0.14513814872E+03  0.16833579096E+03  0.80466829908E+02 0.  0.
          6    2    1    2  501    0 -0.63650043178E+02  0.19721758964E+02 -0.34733496975E+03  0.38953757409E+03  0.16327175092E+03 0.  0.
         24    2    5    5    0    0 -0.18639468879E+02 -0.84239191016E+01 -0.31870927694E+03  0.32904252239E+03  0.79214809954E+02 0.  0.
          5    1    5    5  501    0 -0.45010574300E+02  0.28145678066E+02 -0.28625692803E+02  0.60495051707E+02  0.47000000000E+01 0. -1.
        -13    1    6    6    0    0 -0.43690084937E+02  0.15435537717E+02 -0.20581625502E+03  0.21096779417E+03  0.00000000000E+00 0.  1.
         14    1    6    6    0    0  0.25050616059E+02 -0.23859456819E+02 -0.11289302192E+03  0.11807472822E+03  0.00000000000E+00 0. -1.
         -5    1    3    3    0  503  0.89861499631E+02 -0.30205324124E+02 -0.86259167057E+02  0.12825827312E+03  0.47000000000E+01 0.  1.
         11    1    4    4    0    0 -0.14933336929E+02  0.14924486179E+02 -0.15263203729E+03  0.15408531288E+03  0.00000000000E+00 0. -1.
        -12    1    4    4    0    0 -0.11278119524E+02 -0.44409210191E+01  0.74938885674E+01  0.14250478074E+02  0.00000000000E+00 0.  1.
</event>
<event>
12    1  0.8406581E-002  0.2238475E+03  0.7818608E-02  0.1132443E+00
         21   -1    0    0  501  502  0.00000000000E+00  0.00000000000E+00  0.26925179373E+03  0.26925179373E+03  0.00000000000E+00 0.  1.
         21   -1    0    0  502  503 -0.00000000000E+00 -0.00000000000E+00 -0.76084254332E+03  0.76084254332E+03  0.00000000000E+00 0. -1.
         -6    2    1    2    0  503  0.13043792147E+03  0.27373342220E+01 -0.69683040654E+03  0.73190186014E+03  0.18189605011E+03 0.  0.
        -24    2    3    3    0    0  0.41103423570E+02 -0.38546881360E+02 -0.17253944312E+03  0.19843382615E+03  0.80192084618E+02 0.  0.
          6    2    1    2  501    0 -0.13043792147E+03 -0.27373342220E+01  0.20523965696E+03  0.29819247691E+03  0.17255112906E+03 0.  0.
         24    2    5    5    0    0 -0.15795420720E+03  0.20153993795E+02  0.15407824141E+03  0.23557666964E+03  0.80003423461E+02 0.  0.
          5    1    5    5  501    0  0.27516285729E+02 -0.22891328017E+02  0.51161415552E+02  0.62615807269E+02  0.47000000000E+01 0. -1.
        -13    1    6    6    0    0 -0.62500197522E+02 -0.34602541543E+01  0.13523201806E+02  0.64040026828E+02  0.00000000000E+00 0.  1.
         14    1    6    6    0    0 -0.95454009674E+02  0.23614247949E+02  0.14055503960E+03  0.17153664281E+03  0.00000000000E+00 0. -1.
         -5    1    3    3    0  503  0.89334497896E+02  0.41284215582E+02 -0.52429096342E+03  0.53346803400E+03  0.47000000000E+01 0.  1.
         13    1    4    4    0    0  0.19217832489E+02  0.72233410349E+00 -0.14379161683E+03  0.14507196808E+03  0.00000000000E+00 0. -1.
        -14    1    4    4    0    0  0.21885591082E+02 -0.39269215463E+02 -0.28747826294E+02  0.53361858070E+02  0.00000000000E+00 0.  1.
</event>
<event>
12    1  0.8406581E-002  0.1979880E+03  0.7818608E-02  0.1152257E+00
         21   -1    0    0  501  502  0.00000000000E+00  0.00000000000E+00  0.23002589710E+03  0.23002589710E+03  0.00000000000E+00 0. -1.
         21   -1    0    0  502  503 -0.00000000000E+00 -0.00000000000E+00 -0.23560915773E+03  0.23560915773E+03  0.00000000000E+00 0.  1.
         -6    2    1    2    0  503  0.76655485917E+02 -0.50095632356E+02 -0.12825575840E+03  0.23589999183E+03  0.17553811746E+03 0.  0.
        -24    2    3    3    0    0  0.83998350049E+02 -0.62295750542E+02 -0.24955399031E+02  0.13151697222E+03  0.75746014387E+02 0.  0.
          6    2    1    2  501    0 -0.76655485917E+02  0.50095632356E+02  0.12267249777E+03  0.22973506300E+03  0.17130096778E+03 0.  0.
         24    2    5    5    0    0 -0.73637654486E+02 -0.23351392998E+01  0.13783579696E+03  0.17487060488E+03  0.78441471760E+02 0.  0.
          5    1    5    5  501    0 -0.30178314305E+01  0.52430771656E+02 -0.15163299194E+02  0.54864458125E+02  0.47000000000E+01 0. -1.
        -13    1    6    6    0    0 -0.33167327155E+02 -0.40247908564E+02  0.67811077319E+02  0.85547109486E+02  0.00000000000E+00 0.  1.
         14    1    6    6    0    0 -0.40470327331E+02  0.37912769264E+02  0.70024719645E+02  0.89323495392E+02  0.00000000000E+00 0. -1.
         -5    1    3    3    0  503 -0.73428641320E+01  0.12200118186E+02 -0.10330035937E+03  0.10438301961E+03  0.47000000000E+01 0.  1.
         11    1    4    4    0    0  0.31769971363E+02  0.14565701006E+02 -0.15086940229E+02  0.38067131382E+02  0.00000000000E+00 0. -1.
        -12    1    4    4    0    0  0.52228378686E+02 -0.76861451548E+02 -0.98684588021E+01  0.93449840842E+02  0.00000000000E+00 0.  1.
</event>
<event>
12    1  0.8406581E-002  0.2262677E+03  0.7818608E-02  0.1130420E+00
         21   -1    0    0  503  502  0.00000000000E+00  0.00000000000E+00  0.22102910359E+03  0.22102910359E+03  0.00000000000E+00 0. -1.
         21   -1    0    0  501  503 -0.00000000000E+00 -0.00000000000E+00 -0.24733726448E+03  0.24733726448E+03  0.00000000000E+00 0. -1.
          6    2    1    2  501    0 -0.14575091927E+03  0.16124702461E+01 -0.83122303445E+02  0.24105266946E+03  0.17306398122E+03 0.  0.
         24    2    3    3    0    0 -0.11291653282E+03 -0.16992084554E+02  0.10659253056E+02  0.13985337730E+03  0.80040446935E+02 0.  0.
         -6    2    1    2    0  502  0.14575091927E+03 -0.16124702461E+01  0.56814142556E+02  0.22731369862E+03  0.16491737403E+03 0.  0.
        -24    2    5    5    0    0  0.12966458130E+03 -0.29187486416E+02  0.89663629339E+02  0.18126665128E+03  0.84576707396E+02 0.  0.
          5    1    3    3  501    0 -0.32834386446E+02  0.18604554800E+02 -0.93781556501E+02  0.10119929215E+03  0.47000000000E+01 0. -1.
        -13    1    4    4    0    0 -0.38793559572E+02  0.31719479981E+02  0.10290956011E+02  0.51156323658E+02  0.00000000000E+00 0.  1.
         14    1    4    4    0    0 -0.74122973249E+02 -0.48711564535E+02  0.36829704495E+00  0.88697053645E+02  0.00000000000E+00 0. -1.
         -5    1    5    5    0  502  0.16086337964E+02  0.27575016170E+02 -0.32849486784E+02  0.46047047330E+02  0.47000000000E+01 0.  1.
         13    1    6    6    0    0  0.93261571844E+02  0.19108026977E+02  0.68140847645E+02  0.11707268083E+03  0.00000000000E+00 0. -1.
        -14    1    6    6    0    0  0.36403009458E+02 -0.48295513393E+02  0.21522781695E+02  0.64193970460E+02  0.00000000000E+00 0.  1.
</event>
<event>
12    1  0.8406581E-002  0.1839294E+03  0.7818608E-02  0.1164129E+00
         21   -1    0    0  503  502  0.00000000000E+00  0.00000000000E+00  0.70888054853E+02  0.70888054853E+02  0.00000000000E+00 0.  1.
         21   -1    0    0  501  503 -0.00000000000E+00 -0.00000000000E+00 -0.16521550871E+04  0.16521550871E+04  0.00000000000E+00 0.  1.
          6    2    1    2  501    0 -0.51946505869E+02  0.37449330043E+02 -0.15176049138E+04  0.15287101379E+04  0.17242134256E+03 0.  0.
         24    2    3    3    0    0 -0.10798580561E+02  0.58692859107E+02 -0.13724093937E+04  0.13762363095E+04  0.83410877731E+02 0.  0.
         -6    2    1    2    0  502  0.51946505869E+02 -0.37449330043E+02 -0.63662118369E+02  0.19433300403E+03  0.17208009573E+03 0.  0.
        -24    2    5    5    0    0 -0.24605337802E+02  0.93311676054E+01 -0.59579398038E+00  0.84569389832E+02  0.80368733901E+02 0.  0.
          5    1    3    3  501    0 -0.41147925308E+02 -0.21243529064E+02 -0.14519552013E+03  0.15247382841E+03  0.47000000000E+01 0. -1.
        -13    1    4    4    0    0 -0.45436674527E+02  0.17965013240E+02 -0.60879128995E+03  0.61074877634E+03  0.00000000000E+00 0.  1.
         14    1    4    4    0    0  0.34638093966E+02  0.40727845867E+02 -0.76361810377E+03  0.76548753314E+03  0.00000000000E+00 0. -1.
         -5    1    5    5    0  502  0.76551843671E+02 -0.46780497648E+02 -0.63066324389E+02  0.10976361420E+03  0.47000000000E+01 0.  1.
         11    1    6    6    0    0 -0.13245516374E+01 -0.17003721144E+02 -0.32753959205E+02  0.36928347017E+02  0.00000000000E+00 0. -1.
        -12    1    6    6    0    0 -0.23280786165E+02  0.26334888749E+02  0.32158165225E+02  0.47641042815E+02  0.00000000000E+00 0.  1.
</event>
<event>
12    1  0.8406581E-002  0.1802770E+03  0.7818608E-02  0.1167669E+00
         21   -1    0    0  503  502  0.00000000000E+00  0.00000000000E+00  0.36213252370E+03  0.36213252370E+03  0.00000000000E+00 0. -1.
         21   -1    0    0  501  503 -0.00000000000E+00 -0.00000000000E+00 -0.10539339665E+03  0.10539339665E+03  0.00000000000E+00 0.  1.
          6    2    1    2  501    0  0.54557213334E+02 -0.94415370094E+00  0.21906555194E+03  0.28335452631E+03  0.17123869475E+03 0.  0.
         24    2    3    3    0    0 -0.47396816893E+01  0.52501247455E+02  0.87817191743E+02  0.12966407534E+03  0.79511431269E+02 0.  0.
         -6    2    1    2    0  502 -0.54557213334E+02  0.94415370094E+00  0.37673575120E+02  0.18417139404E+03  0.17182090434E+03 0.  0.
        -24    2    5    5    0    0 -0.76257743313E+02 -0.32897850531E+02  0.68194631278E+02  0.13347801064E+03  0.79172972692E+02 0.  0.
          5    1    3    3  501    0  0.59296895023E+02 -0.53445401156E+02  0.13124836019E+03  0.15369045096E+03  0.47000000000E+01 0. -1.
        -11    1    4    4    0    0  0.37363920645E+02  0.27880765090E+02  0.43593558906E+02  0.63826311236E+02  0.00000000000E+00 0.  1.
         12    1    4    4    0    0 -0.42103602334E+02  0.24620482366E+02  0.44223632838E+02  0.65837764108E+02  0.00000000000E+00 0. -1.
         -5    1    5    5    0  502  0.21700529979E+02  0.33842004232E+02 -0.30521056158E+02  0.50693383403E+02  0.47000000000E+01 0.  1.
         11    1    6    6    0    0 -0.66217123642E+02 -0.27778126051E+02  0.80166491589E+01  0.72253708652E+02  0.00000000000E+00 0. -1.
        -12    1    6    6    0    0 -0.10040619672E+02 -0.51197244797E+01  0.60177982119E+02  0.61224301989E+02  0.00000000000E+00 0.  1.
</event>
<event>
12    1  0.8406581E-002  0.2974955E+03  0.7818608E-02  0.1086510E+00
         21   -1    0    0  503  502  0.00000000000E+00  0.00000000000E+00  0.12301405238E+03  0.12301405238E+03  0.00000000000E+00 0. -1.
         21   -1    0    0  501  503 -0.00000000000E+00 -0.00000000000E+00 -0.87965164272E+03  0.87965164272E+03  0.00000000000E+00 0. -1.
          6    2    1    2  501    0  0.94689990278E+02 -0.22352052221E+03 -0.59244526001E+03  0.66294416781E+03  0.17197664206E+03 0.  0.
         24    2    3    3    0    0  0.33218730823E+01 -0.17684562371E+03 -0.40456543873E+03  0.44882364979E+03  0.80523691751E+02 0.  0.
         -6    2    1    2    0  502 -0.94689990278E+02  0.22352052221E+03 -0.16419233032E+03  0.33972152729E+03  0.17182542495E+03 0.  0.
        -24    2    5    5    0    0  0.55832828777E+01  0.48756715236E+02 -0.26626316719E+02  0.95705921978E+02  0.77732055365E+02 0.  0.
          5    1    3    3  501    0  0.91368117196E+02 -0.46674898499E+02 -0.18787982128E+03  0.21412051801E+03  0.47000000000E+01 0. -1.
        -11    1    4    4    0    0  0.42661369395E+01 -0.10109095950E+03 -0.13435194067E+03  0.16819044556E+03  0.00000000000E+00 0.  1.
         12    1    4    4    0    0 -0.94426385721E+00 -0.75754664218E+02 -0.27021349806E+03  0.28063320423E+03  0.00000000000E+00 0. -1.
         -5    1    5    5    0  502 -0.10027327316E+03  0.17476380698E+03 -0.13756601360E+03  0.24401560531E+03  0.47000000000E+01 0.  1.
         13    1    6    6    0    0 -0.31584970434E+02  0.13627820021E+02  0.61740111433E+01  0.34949195262E+02  0.00000000000E+00 0. -1.
        -14    1    6    6    0    0  0.37168253312E+02  0.35128895215E+02 -0.32800327862E+02  0.60756726715E+02  0.00000000000E+00 0.  1.
</event>
<event>
12    1  0.8406581E-002  0.4305046E+03  0.7818608E-02  0.1033715E+00
         21   -1    0    0  501  502  0.00000000000E+00  0.00000000000E+00  0.98091297406E+03  0.98091297406E+03  0.00000000000E+00 0. -1.
         21   -1    0    0  502  503 -0.00000000000E+00 -0.00000000000E+00 -0.23679867208E+03  0.23679867208E+03  0.00000000000E+00 0.  1.
         -6    2    1    2    0  503  0.51537795122E+02 -0.39102017220E+03  0.98177193278E+02  0.44155744171E+03  0.17257257506E+03 0.  0.
        -24    2    3    3    0    0 -0.82158752475E+01 -0.34123629923E+03  0.96441106779E+02  0.36362131962E+03  0.80061629313E+02 0.  0.
          6    2    1    2  501    0 -0.51537795122E+02  0.39102017220E+03  0.64593710870E+03  0.77615420443E+03  0.17212693357E+03 0.  0.
         24    2    5    5    0    0 -0.71281621639E+02  0.14163035272E+03  0.23806767141E+03  0.29765167714E+03  0.82341231090E+02 0.  0.
          5    1    5    5  501    0  0.19743826517E+02  0.24938981948E+03  0.40786943729E+03  0.47850252729E+03  0.47000000000E+01 0. -1.
        -13    1    6    6    0    0  0.11980498814E+02  0.13896377921E+02  0.47884688575E+01  0.18962360221E+02  0.00000000000E+00 0.  1.
         14    1    6    6    0    0 -0.83262120452E+02  0.12773397480E+03  0.23327920255E+03  0.27868931692E+03  0.00000000000E+00 0. -1.
         -5    1    3    3    0  503  0.59753670370E+02 -0.49783872963E+02  0.17360864993E+01  0.77936122088E+02  0.47000000000E+01 0.  1.
         13    1    4    4    0    0 -0.53529713121E+01 -0.12914510716E+02 -0.11391062351E+02  0.18033169172E+02  0.00000000000E+00 0. -1.
        -14    1    4    4    0    0 -0.28629039354E+01 -0.32832178852E+03  0.10783216913E+03  0.34558815045E+03  0.00000000000E+00 0.  1.
</event>
<event>
12    1  0.8406581E-002  0.1730540E+03  0.7818608E-02  0.1177040E+00
         21   -1    0    0  501  502  0.00000000000E+00  0.00000000000E+00  0.48022293546E+03  0.48022293546E+03  0.00000000000E+00 0.  1.
         21   -1    0    0  502  503 -0.00000000000E+00 -0.00000000000E+00 -0.59968353125E+02  0.59968353125E+02  0.00000000000E+00 0.  1.
         -6    2    1    2    0  503  0.13649832324E+02 -0.81402646291E+01  0.23549040008E+03  0.28704017829E+03  0.16335162563E+03 0.  0.
        -24    2    3    3    0    0 -0.29162638708E+02  0.33779668818E+02  0.10822162431E+03  0.14629352725E+03  0.87740245175E+02 0.  0.
          6    2    1    2  501    0 -0.13649832324E+02  0.81402646291E+01  0.18476418226E+03  0.25315111029E+03  0.17232266179E+03 0.  0.
         24    2    5    5    0    0 -0.33828078701E+02  0.32288832242E+01  0.20571771592E+03  0.22327764603E+03  0.79864660384E+02 0.  0.
          5    1    5    5  501    0  0.20178246377E+02  0.49113814050E+01 -0.20953533661E+02  0.29873464263E+02  0.47000000000E+01 0. -1.
        -11    1    6    6    0    0 -0.33707449083E+02  0.29271386354E+02  0.57533901756E+02  0.72822771397E+02  0.00000000000E+00 0.  1.
         12    1    6    6    0    0 -0.12062961807E+00 -0.26042503130E+02  0.14818381416E+03  0.15045487463E+03  0.00000000000E+00 0. -1.
         -5    1    3    3    0  503  0.42812471031E+02 -0.41919933447E+02  0.12726877576E+03  0.14074665105E+03  0.47000000000E+01 0.  1.
         11    1    4    4    0    0  0.73681924357E+01  0.52185419626E+02  0.82742500205E+02  0.98101629046E+02  0.00000000000E+00 0. -1.
        -12    1    4    4    0    0 -0.36530831143E+02 -0.18405750808E+02  0.25479124107E+02  0.48191898200E+02  0.00000000000E+00 0.  1.
</event>
<event>
12    1  0.8406581E-002  0.2184410E+03  0.7818608E-02  0.1135502E+00
         21   -1    0    0  501  502  0.00000000000E+00  0.00000000000E+00  0.29788025138E+03  0.29788025138E+03  0.00000000000E+00 0.  1.
         21   -1    0    0  502  503 -0.00000000000E+00 -0.00000000000E+00 -0.17856248010E+03  0.17856248010E+03  0.00000000000E+00 0. -1.
         -6    2    1    2    0  503  0.18439880809E+02  0.12950464852E+03  0.13933539249E+03  0.25708644942E+03  0.17195234131E+03 0.  0.
        -24    2    3    3    0    0 -0.94022105678E+01  0.10459030236E+03  0.22114532220E+02  0.13396566815E+03  0.80188620112E+02 0.  0.
          6    2    1    2  501    0 -0.18439880809E+02 -0.12950464852E+03 -0.20017621214E+02  0.21935628207E+03  0.17494281960E+03 0.  0.
         24    2    5    5    0    0 -0.42102701961E+02 -0.85231538375E+02  0.49003652857E+02  0.13388076709E+03  0.80533528148E+02 0.  0.
          5    1    5    5  501    0  0.23662821152E+02 -0.44273110142E+02 -0.69021274072E+02  0.85475514980E+02  0.47000000000E+01 0. -1.
        -13    1    6    6    0    0  0.76209174860E+01  0.12669764601E+02  0.58755267292E+01  0.15909843894E+02  0.00000000000E+00 0.  1.
         14    1    6    6    0    0 -0.49723619447E+02 -0.97901302977E+02  0.43128126128E+02  0.11797092319E+03  0.00000000000E+00 0. -1.
         -5    1    3    3    0  503  0.27842091376E+02  0.24914346153E+02  0.11722086027E+03  0.12312078126E+03  0.47000000000E+01 0.  1.
         13    1    4    4    0    0  0.28433948497E+02  0.10029569372E+02  0.25931784809E+01  0.30262291115E+02  0.00000000000E+00 0. -1.
        -14    1    4    4    0    0 -0.37836159065E+02  0.94560732992E+02  0.19521353739E+02  0.10370337704E+03  0.00000000000E+00 0.  1.
</event>
<event>
12    1  0.8406581E-002  0.1808417E+03  0.7818608E-02  0.1167485E+00
         21   -1    0    0  501  502  0.00000000000E+00  0.00000000000E+00  0.16645346470E+03  0.16645346470E+03  0.00000000000E+00 0. -1.
         21   -1    0    0  502  503 -0.00000000000E+00 -0.00000000000E+00 -0.44002529658E+03  0.44002529658E+03  0.00000000000E+00 0. -1.
         -6    2    1    2    0  503 -0.46921898845E+02 -0.16441184686E+02 -0.36375147814E+03  0.40622515427E+03  0.17387282987E+03 0.  0.
        -24    2    3    3    0    0 -0.58436268890E+01 -0.74273247697E+02 -0.23393099978E+03  0.25821360559E+03  0.79999313487E+02 0.  0.
          6    2    1    2  501    0  0.46921898845E+02  0.16441184686E+02  0.90179646263E+02  0.20025360701E+03  0.17174737661E+03 0.  0.
         24    2    5    5    0    0 -0.15245633832E+02 -0.43326546538E+02  0.65419476963E+02  0.11040851922E+03  0.76162419639E+02 0.  0.
          5    1    5    5  501    0  0.62167532678E+02  0.59767731225E+02  0.24760169300E+02  0.89845087783E+02  0.47000000000E+01 0. -1.
        -13    1    6    6    0    0 -0.25131581542E+01 -0.20929177082E+02 -0.15059522625E+02  0.25906285703E+02  0.00000000000E+00 0.  1.
         14    1    6    6    0    0 -0.12732475678E+02 -0.22397369456E+02  0.80478999588E+02  0.84502233521E+02  0.00000000000E+00 0. -1.
         -5    1    3    3    0  503 -0.41078271956E+02  0.57832063011E+02 -0.12982047837E+03  0.14801154868E+03  0.47000000000E+01 0.  1.
         11    1    4    4    0    0  0.18559626302E+02 -0.52413381235E+00 -0.11277156935E+03  0.11428981275E+03  0.00000000000E+00 0. -1.
        -12    1    4    4    0    0 -0.24403253191E+02 -0.73749113885E+02 -0.12115943042E+03  0.14392379284E+03  0.00000000000E+00 0.  1.
</event>
<event>
12    1  0.8406581E-002  0.1776848E+03  0.7818608E-02  0.1170477E+00
         21   -1    0    0  503  502  0.00000000000E+00  0.00000000000E+00  0.65326024795E+02  0.65326024795E+02  0.00000000000E+00 0.  1.
         21   -1    0    0  501  503 -0.00000000000E+00 -0.00000000000E+00 -0.69058749022E+03  0.69058749022E+03  0.00000000000E+00 0.  1.
          6    2    1    2  501    0 -0.19613854536E+02 -0.24514733678E+02 -0.52093218643E+03  0.54986380668E+03  0.17318830092E+03 0.  0.
         24    2    3    3    0    0 -0.63306499769E+01  0.22333746612E+01 -0.51220739267E+03  0.51839768443E+03  0.79590709447E+02 0.  0.
         -6    2    1    2    0  502  0.19613854536E+02  0.24514733678E+02 -0.10432927900E+03  0.20604970834E+03  0.17488913172E+03 0.  0.
        -24    2    5    5    0    0  0.74606655491E+02  0.44748305332E+02 -0.77267260032E+02  0.14133457526E+03  0.80228852777E+02 0.  0.
          5    1    3    3  501    0 -0.13283204559E+02 -0.26748108339E+02 -0.87247937670E+01  0.31466122248E+02  0.47000000000E+01 0. -1.
        -11    1    4    4    0    0  0.32610321973E+02 -0.14593786074E+02 -0.18170971268E+03  0.18518863727E+03  0.00000000000E+00 0.  1.
         12    1    4    4    0    0 -0.38940971950E+02  0.16827160735E+02 -0.33049767999E+03  0.33320904716E+03  0.00000000000E+00 0. -1.
         -5    1    5    5    0  502 -0.54992800955E+02 -0.20233571655E+02 -0.27062018963E+02  0.64715133077E+02  0.47000000000E+01 0.  1.
         13    1    6    6    0    0  0.65209338110E+02  0.66756828381E+02 -0.68836723814E+02  0.11596217684E+03  0.00000000000E+00 0. -1.
        -14    1    6    6    0    0  0.93973173812E+01 -0.22008523048E+02 -0.84305362177E+01  0.25372398421E+02  0.00000000000E+00 0.  1.
</event>
<event>
12    1  0.8406581E-002  0.2042452E+03  0.7818608E-02  0.1146386E+00
         21   -1    0    0  501  502  0.00000000000E+00  0.00000000000E+00  0.45423924583E+02  0.45423924583E+02  0.00000000000E+00 0.  1.
         21   -1    0    0  502  503 -0.00000000000E+00 -0.00000000000E+00 -0.10324242321E+04  0.10324242321E+04  0.00000000000E+00 0.  1.
         -6    2    1    2    0  503  0.60052201282E+02  0.93170369964E+02 -0.67661701482E+03  0.70677201329E+03  0.17154914546E+03 0.  0.
        -24    2    3    3    0    0  0.12811808382E+02  0.11636735902E+03 -0.56594852329E+03  0.58413694473E+03  0.84927819398E+02 0.  0.
          6    2    1    2  501    0 -0.60052201282E+02 -0.93170369964E+02 -0.31038329267E+03  0.37107614337E+03  0.17050727576E+03 0.  0.
         24    2    5    5    0    0 -0.92567953619E+02 -0.64224229891E+02 -0.29316790794E+03  0.32402709825E+03  0.79702951073E+02 0.  0.
          5    1    5    5  501    0  0.32515752337E+02 -0.28946140073E+02 -0.17215384730E+02  0.47049045119E+02  0.47000000000E+01 0. -1.
        -13    1    6    6    0    0 -0.93392734909E+02 -0.54612616248E+02 -0.17690537478E+03  0.20736502215E+03  0.00000000000E+00 0.  1.
         14    1    6    6    0    0  0.82478129012E+00 -0.96116136432E+01 -0.11626253317E+03  0.11666207610E+03  0.00000000000E+00 0. -1.
         -5    1    3    3    0  503  0.47240392900E+02 -0.23196989057E+02 -0.11066849153E+03  0.12263506856E+03  0.47000000000E+01 0.  1.
         13    1    4    4    0    0 -0.21451539854E+02  0.22768000893E+02 -0.52579408741E+02  0.61181244269E+02  0.00000000000E+00 0. -1.
        -14    1    4    4    0    0  0.34263348235E+02  0.93599358128E+02 -0.51336911455E+03  0.52295570047E+03  0.00000000000E+00 0.  1.
</event>
<event>
12    1  0.8406581E-002  0.1876327E+03  0.7818608E-02  0.1160705E+00
         21   -1    0    0  503  502  0.00000000000E+00  0.00000000000E+00  0.27960208388E+03  0.27960208388E+03  0.00000000000E+00 0. -1.
         21   -1    0    0  501  503 -0.00000000000E+00 -0.00000000000E+00 -0.23423250064E+03  0.23423250064E+03  0.00000000000E+00 0.  1.
          6    2    1    2  501    0  0.77958051258E+02  0.18707314536E+02 -0.15225439502E+03  0.24132538211E+03  0.16920141215E+03 0.  0.
         24    2    3    3    0    0  0.10835725208E+03 -0.15186683325E+02 -0.13845347221E+03  0.19351879290E+03  0.79424365330E+02 0.  0.
         -6    2    1    2    0  502 -0.77958051258E+02 -0.18707314536E+02  0.19762397826E+03  0.27250920241E+03  0.16964258676E+03 0.  0.
        -24    2    5    5    0    0 -0.11316327719E+02 -0.59815647611E+02  0.13845701537E+03  0.17425527698E+03  0.86536613516E+02 0.  0.
          5    1    3    3  501    0 -0.30399200820E+02  0.33893997860E+02 -0.13800922808E+02  0.47806589209E+02  0.47000000000E+01 0. -1.
        -11    1    4    4    0    0  0.32116453060E+02  0.10539901459E+00 -0.10330933819E+03  0.10818639944E+03  0.00000000000E+00 0.  1.
         12    1    4    4    0    0  0.76240799018E+02 -0.15292082339E+02 -0.35144134023E+02  0.85332393459E+02  0.00000000000E+00 0. -1.
         -5    1    5    5    0  502 -0.66641723539E+02  0.41108333075E+02  0.59166962888E+02  0.98253925427E+02  0.47000000000E+01 0.  1.
         11    1    6    6    0    0 -0.32148685871E+02 -0.52187012555E+02  0.13915789237E+03  0.15205900596E+03  0.00000000000E+00 0. -1.
        -12    1    6    6    0    0  0.20832358152E+02 -0.76286350555E+01 -0.70087700005E+00  0.22196271028E+02  0.00000000000E+00 0.  1.
</event>
<event>
12    1  0.8406581E-002  0.2839196E+03  0.7818608E-02  0.1093696E+00
         21   -1    0    0  503  502  0.00000000000E+00  0.00000000000E+00  0.43074114511E+03  0.43074114511E+03  0.00000000000E+00 0. -1.
         21   -1    0    0  501  503 -0.00000000000E+00 -0.00000000000E+00 -0.14018395813E+04  0.14018395813E+04  0.00000000000E+00 0.  1.
          6    2    1    2  501    0 -0.22499479509E+03 -0.24471154876E+02 -0.13385999248E+04  0.13681803678E+04  0.16984188282E+03 0.  0.
         24    2    3    3    0    0 -0.21332372308E+03  0.26973167012E+02 -0.11235989460E+04  0.11467526301E+04  0.79576633655E+02 0.  0.
         -6    2    1    2    0  502  0.22499479509E+03  0.24471154876E+02  0.36750148855E+03  0.46440035858E+03  0.17143177570E+03 0.  0.
        -24    2    5    5    0    0  0.18855839871E+03  0.77376800705E+02  0.29074758364E+03  0.36420120558E+03  0.81036545736E+02 0.  0.
          5    1    3    3  501    0 -0.11671072008E+02 -0.51444321888E+02 -0.21500097879E+03  0.22142773778E+03  0.47000000000E+01 0. -1.
        -13    1    4    4    0    0 -0.15917419292E+03 -0.13056123554E+02 -0.85890984697E+03  0.87363208004E+03  0.00000000000E+00 0.  1.
         14    1    4    4    0    0 -0.54149530161E+02  0.40029290566E+02 -0.26468909899E+03  0.27312055002E+03  0.00000000000E+00 0. -1.
         -5    1    5    5    0  502  0.36436396385E+02 -0.52905645829E+02  0.76753904911E+02  0.10019915300E+03  0.47000000000E+01 0.  1.
         13    1    6    6    0    0  0.17535665815E+03  0.42422212708E+02  0.25592982222E+03  0.31312884822E+03  0.00000000000E+00 0. -1.
        -14    1    6    6    0    0  0.13201740552E+02  0.34954587997E+02  0.34817761428E+02  0.51072357361E+02  0.00000000000E+00 0.  1.
</event>
<event>
12    1  0.8406581E-002  0.1910556E+03  0.7818608E-02  0.1160941E+00
         21   -1    0    0  501  502  0.00000000000E+00  0.00000000000E+00  0.72693828466E+03  0.72693828466E+03  0.00000000000E+00 0. -1.
         21   -1    0    0  502  503 -0.00000000000E+00 -0.00000000000E+00 -0.55973123243E+02  0.55973123243E+02  0.00000000000E+00 0. -1.
         -6    2    1    2    0  503  0.49479186936E+02 -0.65625225405E+02  0.48589152612E+03  0.51691425021E+03  0.15606058685E+03 0.  0.
        -24    2    3    3    0    0  0.83097828438E+02 -0.43805509683E+02  0.27759841110E+03  0.30474821896E+03  0.83584851177E+02 0.  0.
          6    2    1    2  501    0 -0.49479186936E+02  0.65625225405E+02  0.18507363530E+03  0.26599715770E+03  0.17247428002E+03 0.  0.
         24    2    5    5    0    0 -0.47117400008E+02  0.11070900141E+03  0.15213133461E+03  0.20991320214E+03  0.80268780261E+02 0.  0.
          5    1    5    5  501    0 -0.23617869272E+01 -0.45083776005E+02  0.32942300688E+02  0.56083955557E+02  0.47000000000E+01 0. -1.
        -13    1    6    6    0    0 -0.15297463857E+01  0.96357110022E+02  0.10952108645E+03  0.14588317639E+03  0.00000000000E+00 0.  1.
         14    1    6    6    0    0 -0.45587653623E+02  0.14351891388E+02  0.42610248160E+02  0.64030025749E+02  0.00000000000E+00 0. -1.
         -5    1    3    3    0  503 -0.33618641503E+02 -0.21819715723E+02  0.20829311502E+03  0.21216603125E+03  0.47000000000E+01 0.  1.
         13    1    4    4    0    0  0.41125501614E+02  0.10917817412E+02  0.18176491816E+03  0.18667884480E+03  0.00000000000E+00 0. -1.
        -14    1    4    4    0    0  0.41972326824E+02 -0.54723327095E+02  0.95833492934E+02  0.11806937416E+03  0.00000000000E+00 0.  1.
</event>
<event>
12    1  0.8406581E-002  0.2641188E+03  0.7818608E-02  0.1104723E+00
         21   -1    0    0  503  502  0.00000000000E+00  0.00000000000E+00  0.17729614662E+03  0.17729614662E+03  0.00000000000E+00 0.  1.
         21   -1    0    0  501  503 -0.00000000000E+00 -0.00000000000E+00 -0.68103823734E+03  0.68103823734E+03  0.00000000000E+00 0. -1.
          6    2    1    2  501    0 -0.18475930659E+03 -0.76598473741E+02 -0.53084202067E+03  0.59282896654E+03  0.17219060690E+03 0.  0.
         24    2    3    3    0    0 -0.15358442325E+03 -0.20495849707E+02 -0.24591806483E+03  0.30072773684E+03  0.77157126556E+02 0.  0.
         -6    2    1    2    0  502  0.18475930659E+03  0.76598473741E+02  0.27099929957E+02  0.26550541742E+03  0.17249751571E+03 0.  0.
        -24    2    5    5    0    0  0.12385456983E+03 -0.20331082873E+02  0.17164316688E+01  0.14815492577E+03  0.78699609236E+02 0.  0.
          5    1    3    3  501    0 -0.31174883339E+02 -0.56102624033E+02 -0.28492395585E+03  0.29210122970E+03  0.47000000000E+01 0. -1.
        -13    1    4    4    0    0 -0.70767215810E+02 -0.46815992074E+02 -0.14021265812E+03  0.16388814919E+03  0.00000000000E+00 0.  1.
         14    1    4    4    0    0 -0.82817207441E+02  0.26320142367E+02 -0.10570540671E+03  0.13683958766E+03  0.00000000000E+00 0. -1.
         -5    1    5    5    0  502  0.60904736762E+02  0.96929556614E+02  0.25383498288E+02  0.11735049165E+03  0.47000000000E+01 0.  1.
         11    1    6    6    0    0  0.51779686734E+02  0.30363816647E+02  0.39165600059E+00  0.60027083171E+02  0.00000000000E+00 0. -1.
        -12    1    6    6    0    0  0.72074883093E+02 -0.50694899520E+02  0.13247756683E+01  0.88127842597E+02  0.00000000000E+00 0.  1.
</event>
<event>
12    1  0.8406581E-002  0.2503961E+03  0.7818608E-02  0.1113103E+00
         21   -1    0    0  503  502  0.00000000000E+00  0.00000000000E+00  0.27889262155E+03  0.27889262155E+03  0.00000000000E+00 0.  1.
         21   -1    0    0  501  503 -0.00000000000E+00 -0.00000000000E+00 -0.52111406236E+03  0.52111406236E+03  0.00000000000E+00 0. -1.
          6    2    1    2  501    0  0.12795244054E+03 -0.12862158746E+03 -0.42284097584E+03  0.49126464612E+03  0.17213692772E+03 0.  0.
         24    2    3    3    0    0  0.15737206143E+03 -0.11423649911E+03 -0.39814401044E+03  0.44997935867E+03  0.78401701114E+02 0.  0.
         -6    2    1    2    0  502 -0.12795244054E+03  0.12862158746E+03  0.18061953503E+03  0.30874203778E+03  0.17257719913E+03 0.  0.
        -24    2    5    5    0    0 -0.54905419562E+02  0.20377690077E+02  0.19240496946E+02  0.10109355470E+03  0.80123995962E+02 0.  0.
          5    1    3    3  501    0 -0.29419620889E+02 -0.14385088343E+02 -0.24696965401E+02  0.41285287451E+02  0.47000000000E+01 0. -1.
        -13    1    4    4    0    0  0.14026952272E+03 -0.63182073755E+02 -0.26595084419E+03  0.30724154174E+03  0.00000000000E+00 0.  1.
         14    1    4    4    0    0  0.17102538704E+02 -0.51054425359E+02 -0.13219316625E+03  0.14273781693E+03  0.00000000000E+00 0. -1.
         -5    1    5    5    0  502 -0.73047020975E+02  0.10824389738E+03  0.16137903808E+03  0.20764848308E+03  0.47000000000E+01 0.  1.
         13    1    6    6    0    0 -0.73522986542E+02  0.17413454240E+02  0.27641414949E+02  0.80454370664E+02  0.00000000000E+00 0. -1.
        -14    1    6    6    0    0  0.18617566980E+02  0.29642358372E+01 -0.84009180029E+01  0.20639184035E+02  0.00000000000E+00 0.  1.
</event>
<event>
12    1  0.8406581E-002  0.1856051E+03  0.7818608E-02  0.1162865E+00
         21   -1    0    0  501  502  0.00000000000E+00  0.00000000000E+00  0.38980964758E+03  0.38980964758E+03  0.00000000000E+00 0. -1.
         21   -1    0    0  502  503 -0.00000000000E+00 -0.00000000000E+00 -0.15980031149E+03  0.15980031149E+03  0.00000000000E+00 0. -1.
         -6    2    1    2    0  503 -0.14865798534E+02 -0.65110994489E+02 -0.69981344553E+02  0.19684422430E+03  0.17143461286E+03 0.  0.
        -24    2    3    3    0    0  0.90894193985E+01 -0.18806632926E+02  0.27091855781E+02  0.86557132633E+02  0.79510135033E+02 0.  0.
          6    2    1    2  501    0  0.14865798534E+02  0.65110994489E+02  0.29999068064E+03  0.35276573477E+03  0.17317280845E+03 0.  0.
         24    2    5    5    0    0  0.30742429573E+02 -0.29416988327E+02  0.13622720022E+03  0.16295484344E+03  0.78650967834E+02 0.  0.
          5    1    5    5  501    0 -0.15876631039E+02  0.94527982816E+02  0.16376348042E+03  0.18981089133E+03  0.47000000000E+01 0. -1.
        -13    1    6    6    0    0 -0.87886004646E+00 -0.44163666787E+02  0.11222509028E+03  0.12060544244E+03  0.00000000000E+00 0.  1.
         14    1    6    6    0    0  0.31621289619E+02  0.14746678461E+02  0.24002109943E+02  0.42349400994E+02  0.00000000000E+00 0. -1.
         -5    1    3    3    0  503 -0.23955217932E+02 -0.46304361563E+02 -0.97073200333E+02  0.11028709167E+03  0.47000000000E+01 0.  1.
         13    1    4    4    0    0 -0.28229166034E+02 -0.25601996491E+02 -0.28721408614E+01  0.38217760694E+02  0.00000000000E+00 0. -1.
        -14    1    4    4    0    0  0.37318585433E+02  0.67953635651E+01  0.29963996642E+02  0.48339371939E+02  0.00000000000E+00 0.  1.
</event>
<event>
12    1  0.8406581E-002  0.3176083E+03  0.7818608E-02  0.1076934E+00
         21   -1    0    0  503  502  0.00000000000E+00  0.00000000000E+00  0.40833439804E+03  0.40833439804E+03  0.00000000000E+00 0.  1.
         21   -1    0    0  501  503 -0.00000000000E+00 -0.00000000000E+00 -0.12983393467E+04  0.12983393467E+04  0.00000000000E+00 0.  1.
          6    2    1    2  501    0  0.10441175537E+03 -0.24424614684E+03 -0.12135131611E+04  0.12543879792E+04  0.17411782051E+03 0.  0.
         24    2    3    3    0    0  0.13245866120E+03 -0.24328520950E+03 -0.11272016031E+04  0.11635071377E+04  0.80202339235E+02 0.  0.
         -6    2    1    2    0  502 -0.10441175537E+03  0.24424614684E+03  0.32350821237E+03  0.45228576556E+03  0.17130923895E+03 0.  0.
        -24    2    5    5    0    0 -0.78714666850E+02  0.19593523863E+03  0.15355276446E+03  0.27367661550E+03  0.82059867685E+02 0.  0.
          5    1    3    3  501    0 -0.28046905832E+02 -0.96093734193E+00 -0.86311557946E+02  0.90880841559E+02  0.47000000000E+01 0. -1.
        -11    1    4    4    0    0  0.74622601940E+02 -0.58724845044E+02 -0.37682078910E+03  0.38860139892E+03  0.00000000000E+00 0.  1.
         12    1    4    4    0    0  0.57836059258E+02 -0.18456036446E+03 -0.75038081402E+03  0.77490573874E+03  0.00000000000E+00 0. -1.
         -5    1    5    5    0  502 -0.25697088515E+02  0.48310908215E+02  0.16995544791E+03  0.17860915006E+03  0.47000000000E+01 0.  1.
         11    1    6    6    0    0  0.16638302899E+02  0.18068849300E+02  0.13503574409E+02  0.28029679987E+02  0.00000000000E+00 0. -1.
        -12    1    6    6    0    0 -0.95352969749E+02  0.17786638933E+03  0.14004919005E+03  0.24564693551E+03  0.00000000000E+00 0.  1.
</event>
<event>
12    1  0.8406581E-002  0.1966310E+03  0.7818608E-02  0.1152820E+00
         21   -1    0    0  503  502  0.00000000000E+00  0.00000000000E+00  0.11502328400E+04  0.11502328400E+04  0.00000000000E+00 0.  1.
         21   -1    0    0  501  503 -0.00000000000E+00 -0.00000000000E+00 -0.43218244357E+02  0.43218244357E+02  0.00000000000E+00 0.  1.
          6    2    1    2  501    0  0.61698118796E+02 -0.68002528448E+02  0.26877815400E+03  0.33246090600E+03  0.17279339169E+03 0.  0.
         24    2    3    3    0    0  0.50745646432E+02 -0.11128795768E+03  0.17170654603E+03  0.22550964556E+03  0.80070794535E+02 0.  0.
         -6    2    1    2    0  502 -0.61698118796E+02  0.68002528448E+02  0.83823644169E+03  0.86099017841E+03  0.17387568374E+03 0.  0.
        -24    2    5    5    0    0 -0.67426878190E+02  0.95687437576E+02  0.80357804951E+03  0.81601721957E+03  0.80274226078E+02 0.  0.
          5    1    3    3  501    0  0.10952472364E+02  0.43285429229E+02  0.97071607973E+02  0.10695126044E+03  0.47000000000E+01 0. -1.
        -11    1    4    4    0    0  0.26333253396E+02  0.54083252373E+01  0.28684621629E+02  0.39312818956E+02  0.00000000000E+00 0.  1.
         12    1    4    4    0    0  0.24412393036E+02 -0.11669628291E+03  0.14302192440E+03  0.18619682661E+03  0.00000000000E+00 0. -1.
         -5    1    5    5    0  502  0.57287593941E+01 -0.27684909128E+02  0.34658392180E+02  0.44972958832E+02  0.47000000000E+01 0.  1.
         11    1    6    6    0    0 -0.21866375185E+02  0.92832627827E+02  0.58495967923E+03  0.59268360993E+03  0.00000000000E+00 0. -1.
        -12    1    6    6    0    0 -0.45560503005E+02  0.28548097484E+01  0.21861837028E+03  0.22333360965E+03  0.00000000000E+00 0.  1.
</event>
<event>
12    1  0.8406581E-002  0.2001374E+03  0.7818608E-02  0.1150395E+00
         21   -1    0    0  503  502  0.00000000000E+00  0.00000000000E+00  0.97980293794E+02  0.97980293794E+02  0.00000000000E+00 0.  1.
         21   -1    0    0  501  503 -0.00000000000E+00 -0.00000000000E+00 -0.42328483531E+03  0.42328483531E+03  0.00000000000E+00 0. -1.
          6    2    1    2  501    0  0.95506805177E+02  0.32531822388E+02 -0.10202579663E+03  0.22141787408E+03  0.16863197349E+03 0.  0.
         24    2    3    3    0    0  0.99585128101E+02  0.70166304492E+02 -0.46453947578E+02  0.15401381361E+03  0.81986447126E+02 0.  0.
         -6    2    1    2    0  502 -0.95506805177E+02 -0.32531822388E+02 -0.22327874488E+03  0.29984725502E+03  0.17284417584E+03 0.  0.
        -24    2    5    5    0    0 -0.21731451011E+02 -0.20339470953E+02 -0.20526751452E+03  0.22278915528E+03  0.81328378527E+02 0.  0.
          5    1    3    3  501    0 -0.40783229241E+01 -0.37634482104E+02 -0.55571849050E+02  0.67404060471E+02  0.47000000000E+01 0. -1.
        -13    1    4    4    0    0  0.17807995951E+02  0.36369542138E+02  0.18227164771E+02  0.44408308352E+02  0.00000000000E+00 0.  1.
         14    1    4    4    0    0  0.81777132150E+02  0.33796762355E+02 -0.64681112349E+02  0.10960550526E+03  0.00000000000E+00 0. -1.
         -5    1    5    5    0  502 -0.73775354166E+02 -0.12192351435E+02 -0.18011230368E+02  0.77058099737E+02  0.47000000000E+01 0.  1.
         11    1    6    6    0    0  0.11878463701E+02  0.15707285933E+02 -0.11399082220E+02  0.22754248104E+02  0.00000000000E+00 0. -1.
        -12    1    6    6    0    0 -0.33609914713E+02 -0.36046756886E+02 -0.19386843230E+03  0.20003490718E+03  0.00000000000E+00 0.  1.
</event>
<event>
12    1  0.8406581E-002  0.1916104E+03  0.7818608E-02  0.1157784E+00
         21   -1    0    0  503  502  0.00000000000E+00  0.00000000000E+00  0.76291047413E+02  0.76291047413E+02  0.00000000000E+00 0.  1.
         21   -1    0    0  501  503 -0.00000000000E+00 -0.00000000000E+00 -0.49321461394E+03  0.49321461394E+03  0.00000000000E+00 0.  1.
          6    2    1    2  501    0 -0.84846070035E+02  0.10694766387E+02 -0.15221518653E+03  0.24471210341E+03  0.17146812217E+03 0.  0.
         24    2    3    3    0    0 -0.46210270466E+02 -0.47994418242E+02 -0.37565761088E+02  0.11016201551E+03  0.79281965013E+02 0.  0.
         -6    2    1    2    0  502  0.84846070035E+02 -0.10694766387E+02 -0.26470838000E+03  0.32479355794E+03  0.16765170804E+03 0.  0.
        -24    2    5    5    0    0 -0.58474298607E+01  0.31908080170E+02 -0.93982221915E+02  0.12677885012E+03  0.78663211134E+02 0.  0.
          5    1    3    3  501    0 -0.38635799569E+02  0.58689184629E+02 -0.11464942544E+03  0.13455008790E+03  0.47000000000E+01 0. -1.
        -11    1    4    4    0    0 -0.57750439716E+02 -0.33174497737E+02 -0.53580675571E+02  0.85478356220E+02  0.00000000000E+00 0.  1.
         12    1    4    4    0    0  0.11540169250E+02 -0.14819920505E+02  0.16014914483E+02  0.24683659291E+02  0.00000000000E+00 0. -1.
         -5    1    5    5    0  502  0.90693499896E+02 -0.42602846557E+02 -0.17072615808E+03  0.19801470782E+03  0.47000000000E+01 0.  1.
         13    1    6    6    0    0  0.18336577294E+02  0.43489277542E+02 -0.87147994402E+02  0.99107619568E+02  0.00000000000E+00 0. -1.
        -14    1    6    6    0    0 -0.24184007155E+02 -0.11581197373E+02 -0.68342275131E+01  0.27671230554E+02  0.00000000000E+00 0.  1.
</event>
<event>
12    1  0.8406581E-002  0.1986245E+03  0.7818608E-02  0.1150921E+00
         21   -1    0    0  503  502  0.00000000000E+00  0.00000000000E+00  0.92055806691E+03  0.92055806691E+03  0.00000000000E+00 0.  1.
         21   -1    0    0  501  503 -0.00000000000E+00 -0.00000000000E+00 -0.42934171554E+02  0.42934171554E+02  0.00000000000E+00 0.  1.
          6    2    1    2  501    0 -0.87859918546E+02 -0.46207311848E+02  0.41616990503E+03  0.46110645167E+03  0.17195141455E+03 0.  0.
         24    2    3    3    0    0 -0.27104479711E+02 -0.81832756898E+02  0.18405470138E+03  0.21849574818E+03  0.80206021908E+02 0.  0.
         -6    2    1    2    0  502  0.87859918546E+02  0.46207311848E+02  0.46145399032E+03  0.50238578679E+03  0.17203840451E+03 0.  0.
        -24    2    5    5    0    0  0.10082508512E+03 -0.60959501869E+00  0.41449502316E+03  0.43465726318E+03  0.83395100679E+02 0.  0.
          5    1    3    3  501    0 -0.60755438835E+02  0.35625445050E+02  0.23211520365E+03  0.24261070349E+03  0.47000000000E+01 0. -1.
        -13    1    4    4    0    0 -0.91353798836E+01 -0.10054419305E+02  0.11959127617E+03  0.12036037491E+03  0.00000000000E+00 0.  1.
         14    1    4    4    0    0 -0.17969099828E+02 -0.71778337594E+02  0.64463425211E+02  0.98135373267E+02  0.00000000000E+00 0. -1.
         -5    1    5    5    0  502 -0.12965166574E+02  0.46816906867E+02  0.46958967159E+02  0.67728523604E+02  0.47000000000E+01 0.  1.
         13    1    6    6    0    0  0.31153313841E+02 -0.40416889839E+01  0.29206283640E+03  0.29374745041E+03  0.00000000000E+00 0. -1.
        -14    1    6    6    0    0  0.69671771280E+02  0.34320939652E+01  0.12243218676E+03  0.14090981278E+03  0.00000000000E+00 0.  1.
</event>
<event>
12    1  0.8406581E-002  0.2286740E+03  0.7818608E-02  0.1127785E+00
         21   -1    0    0  503  502  0.00000000000E+00  0.00000000000E+00  0.13649896242E+03  0.13649896242E+03  0.00000000000E+00 0. -1.
         21   -1    0    0  501  503 -0.00000000000E+00 -0.00000000000E+00 -0.41169385407E+03  0.41169385407E+03  0.00000000000E+00 0. -1.
          6    2    1    2  501    0 -0.75853050844E+02 -0.12936823691E+03 -0.63245206436E+02  0.23725881024E+03  0.17263244438E+03 0.  0.
         24    2    3    3    0    0 -0.61793795940E+02 -0.98825468171E+02 -0.11025126610E+03  0.17927447601E+03  0.79994060383E+02 0.  0.
         -6    2    1    2    0  502  0.75853050844E+02  0.12936823691E+03 -0.21194968522E+03  0.31093400625E+03  0.17107735424E+03 0.  0.
        -24    2    5    5    0    0 -0.21927806262E+01  0.59169570976E+02 -0.35883682219E+02  0.10589661473E+03  0.80128696144E+02 0.  0.
          5    1    3    3  501    0 -0.14059254904E+02 -0.30542768741E+02  0.47006059661E+02  0.57984334227E+02  0.47000000000E+01 0. -1.
        -11    1    4    4    0    0 -0.62581291215E+01  0.48197132053E+01 -0.43195862359E+02  0.43912143427E+02  0.00000000000E+00 0.  1.
         12    1    4    4    0    0 -0.55535666818E+02 -0.10364518138E+03 -0.67055403738E+02  0.13536233258E+03  0.00000000000E+00 0. -1.
         -5    1    5    5    0  502  0.78045831470E+02  0.70198665936E+02 -0.17606600300E+03  0.20503739152E+03  0.47000000000E+01 0.  1.
         13    1    6    6    0    0  0.31910192910E+02  0.35627966433E+02 -0.42437994031E+02  0.63942128061E+02  0.00000000000E+00 0. -1.
        -14    1    6    6    0    0 -0.34102973536E+02  0.23541604543E+02  0.65543118117E+01  0.41954486671E+02  0.00000000000E+00 0.  1.
</event>
<event>
12    1  0.8406581E-002  0.1952617E+03  0.7818608E-02  0.1154283E+00
         21   -1    0    0  501  502  0.00000000000E+00  0.00000000000E+00  0.45123465879E+02  0.45123465879E+02  0.00000000000E+00 0. -1.
         21   -1    0    0  502  503 -0.00000000000E+00 -0.00000000000E+00 -0.13925749132E+04  0.13925749132E+04  0.00000000000E+00 0. -1.
         -6    2    1    2    0  503  0.68100033711E+02 -0.57427800235E+02 -0.11261122320E+04  0.11425404752E+04  0.17127291574E+03 0.  0.
        -24    2    3    3    0    0  0.99394722435E+02 -0.73594330230E+02 -0.73324935103E+03  0.74807368642E+03  0.81634510115E+02 0.  0.
          6    2    1    2  501    0 -0.68100033711E+02  0.57427800235E+02 -0.22133921536E+03  0.29515790388E+03  0.17375722470E+03 0.  0.
         24    2    5    5    0    0 -0.79919528595E+01  0.70542649723E+02 -0.59073687109E+02  0.12155729236E+03  0.79033778078E+02 0.  0.
          5    1    5    5  501    0 -0.60108080852E+02 -0.13114849487E+02 -0.16226552826E+03  0.17360061152E+03  0.47000000000E+01 0. -1.
        -11    1    6    6    0    0  0.34730231564E+02  0.32860731772E+02 -0.17023815822E+02  0.50752605670E+02  0.00000000000E+00 0.  1.
         12    1    6    6    0    0 -0.42722184424E+02  0.37681917950E+02 -0.42049871286E+02  0.70804686692E+02  0.00000000000E+00 0. -1.
         -5    1    3    3    0  503 -0.31294688724E+02  0.16166529995E+02 -0.39286288095E+03  0.39446678879E+03  0.47000000000E+01 0.  1.
         11    1    4    4    0    0  0.19869632943E+02 -0.22389314255E+01 -0.33941409069E+03  0.34000255894E+03  0.00000000000E+00 0. -1.
        -12    1    4    4    0    0  0.79525089492E+02 -0.71355398805E+02 -0.39383526034E+03  0.40807112748E+03  0.00000000000E+00 0.  1.
</event>
<event>
12    1  0.8406581E-002  0.2215111E+03  0.7818608E-02  0.1132856E+00
         21   -1    0    0  503  502  0.00000000000E+00  0.00000000000E+00  0.72498869583E+03  0.72498869583E+03  0.00000000000E+00 0. -1.
         21   -1    0    0  501  503 -0.00000000000E+00 -0.00000000000E+00 -0.70090986108E+02  0.70090986108E+02  0.00000000000E+00 0. -1.
          6    2    1    2  501    0  0.15993249194E+01  0.13870525345E+03  0.25174124649E+03  0.33532197977E+03  0.17270052043E+03 0.  0.
         24    2    3    3    0    0  0.42737709427E+02  0.14436205241E+03  0.23430812967E+03  0.29004097253E+03  0.80972539373E+02 0.  0.
         -6    2    1    2    0  502 -0.15993249194E+01 -0.13870525345E+03  0.40315646323E+03  0.45975770217E+03  0.17204739371E+03 0.  0.
        -24    2    5    5    0    0 -0.86188922930E+00 -0.16354705915E+03  0.39181311266E+03  0.43203729950E+03  0.79939536517E+02 0.  0.
          5    1    3    3  501    0 -0.41138384508E+02 -0.56567989650E+01  0.17433116812E+02  0.45281007235E+02  0.47000000000E+01 0. -1.
        -13    1    4    4    0    0  0.75041977295E+01 -0.87081908728E+01  0.31418820097E+02  0.33455759267E+02  0.00000000000E+00 0.  1.
         14    1    4    4    0    0  0.35233511697E+02  0.15307024328E+03  0.20288930958E+03  0.25658521326E+03  0.00000000000E+00 0. -1.
         -5    1    5    5    0  502 -0.73743569014E+00  0.24841805703E+02  0.11343350579E+02  0.27720402672E+02  0.47000000000E+01 0.  1.
         13    1    6    6    0    0  0.22774807594E+02 -0.86047424944E+02  0.12685791093E+03  0.15497025768E+03  0.00000000000E+00 0. -1.
        -14    1    6    6    0    0 -0.23636696823E+02 -0.77499634205E+02  0.26495520173E+03  0.27706704182E+03  0.00000000000E+00 0.  1.
</event>
<event>
12    1  0.8406581E-002  0.3100791E+03  0.7818608E-02  0.1080616E+00
         21   -1    0    0  501  502  0.00000000000E+00  0.00000000000E+00  0.83651199705E+03  0.83651199705E+03  0.00000000000E+00 0.  1.
         21   -1    0    0  502  503 -0.00000000000E+00 -0.00000000000E+00 -0.11693075789E+03  0.11693075789E+03  0.00000000000E+00 0. -1.
         -6    2    1    2    0  503 -0.64030258304E+02 -0.24715120599E+03  0.28569587920E+03  0.42162921357E+03  0.17597007058E+03 0.  0.
        -24    2    3    3    0    0 -0.48626593305E+02 -0.24534554784E+03  0.30098717150E+03  0.39934812480E+03  0.79540329106E+02 0.  0.
          6    2    1    2  501    0  0.64030258304E+02  0.24715120599E+03  0.43388535995E+03  0.53181354137E+03  0.17142212401E+03 0.  0.
         24    2    5    5    0    0  0.95209055774E+02  0.14343749040E+03  0.20894066905E+03  0.28211200718E+03  0.79321519504E+02 0.  0.
          5    1    5    5  501    0 -0.31178797469E+02  0.10371371559E+03  0.22494469090E+03  0.24970153419E+03  0.47000000000E+01 0. -1.
        -13    1    6    6    0    0  0.46451879270E+02  0.60495194398E+02  0.15264688486E+03  0.17064148702E+03  0.00000000000E+00 0.  1.
         14    1    6    6    0    0  0.48757176504E+02  0.82942295998E+02  0.56293784188E+02  0.11147052016E+03  0.00000000000E+00 0. -1.
         -5    1    3    3    0  503 -0.15403664999E+02 -0.18056581493E+01 -0.15291292294E+02  0.22281088770E+02  0.47000000000E+01 0.  1.
         13    1    4    4    0    0 -0.68820008183E+02 -0.17822584209E+03  0.23723802691E+03  0.30460224183E+03  0.00000000000E+00 0. -1.
        -14    1    4    4    0    0  0.20193414877E+02 -0.67119705753E+02  0.63749144585E+02  0.94745882972E+02  0.00000000000E+00 0.  1.
</event>
<event>
12    1  0.8406581E-002  0.6845095E+03  0.7818608E-02  0.9744159E-01
         21   -1    0    0  503  502  0.00000000000E+00  0.00000000000E+00  0.69988736513E+03  0.69988736513E+03  0.00000000000E+00 0.  1.
         21   -1    0    0  501  503 -0.00000000000E+00 -0.00000000000E+00 -0.76119909370E+03  0.76119909370E+03  0.00000000000E+00 0. -1.
          6    2    1    2  501    0  0.30561780693E+03  0.58758118300E+03  0.22313676862E+03  0.71996055828E+03  0.17291413311E+03 0.  0.
         24    2    3    3    0    0  0.22252196536E+03  0.43186308039E+03  0.22915602461E+03  0.54329316511E+03  0.81444670555E+02 0.  0.
         -6    2    1    2    0  502 -0.30561780693E+03 -0.58758118300E+03 -0.28444849719E+03  0.74112590056E+03  0.17234489372E+03 0.  0.
        -24    2    5    5    0    0 -0.18850949786E+03 -0.43613427474E+03 -0.14034525979E+03  0.50146289735E+03  0.77584206430E+02 0.  0.
          5    1    3    3  501    0  0.83095841568E+02  0.15571810261E+03 -0.60192559884E+01  0.17666739317E+03  0.47000000000E+01 0. -1.
        -11    1    4    4    0    0  0.65365945619E+02  0.17362812687E+03  0.51010200612E+02  0.19240965115E+03  0.00000000000E+00 0.  1.
         12    1    4    4    0    0  0.15715601975E+03  0.25823495352E+03  0.17814582400E+03  0.35088351396E+03  0.00000000000E+00 0. -1.
         -5    1    5    5    0  502 -0.11710830907E+03 -0.15144690826E+03 -0.14410323740E+03  0.23966300321E+03  0.47000000000E+01 0.  1.
         11    1    6    6    0    0 -0.14787976485E+03 -0.34824908184E+03 -0.14335359028E+03  0.40459374649E+03  0.00000000000E+00 0. -1.
        -12    1    6    6    0    0 -0.40629733007E+02 -0.87885192906E+02  0.30083304924E+01  0.96869150862E+02  0.00000000000E+00 0.  1.
</event>
<event>
12    1  0.8406581E-002  0.1832836E+03  0.7818608E-02  0.1165342E+00
         21   -1    0    0  503  502  0.00000000000E+00  0.00000000000E+00  0.86143119688E+03  0.86143119688E+03  0.00000000000E+00 0.  1.
         21   -1    0    0  501  503 -0.00000000000E+00 -0.00000000000E+00 -0.53051570256E+02  0.53051570256E+02  0.00000000000E+00 0.  1.
          6    2    1    2  501    0 -0.63633856309E+02  0.42527179043E+01  0.64224586854E+03  0.66710995975E+03  0.16878563170E+03 0.  0.
         24    2    3    3    0    0  0.16733009769E+02  0.69046155553E+01  0.19858709879E+03  0.21619859407E+03  0.83530407285E+02 0.  0.
         -6    2    1    2    0  502  0.63633856309E+02 -0.42527179043E+01  0.16613375808E+03  0.24737280738E+03  0.17182993621E+03 0.  0.
        -24    2    5    5    0    0  0.97505991345E+02  0.41514371554E+01  0.67212204921E+02  0.14237035487E+03  0.78912512797E+02 0.  0.
          5    1    3    3  501    0 -0.80366866077E+02 -0.26518976510E+01  0.44365876975E+03  0.45091136568E+03  0.47000000000E+01 0. -1.
        -11    1    4    4    0    0 -0.96828904861E+01 -0.10270873038E+02 -0.98934887354E+00  0.14150194780E+02  0.00000000000E+00 0.  1.
         12    1    4    4    0    0  0.26415900255E+02  0.17175488593E+02  0.19957644766E+03  0.20204839929E+03  0.00000000000E+00 0. -1.
         -5    1    5    5    0  502 -0.33872135036E+02 -0.84041550597E+01  0.98921553161E+02  0.10500245251E+03  0.47000000000E+01 0.  1.
         13    1    6    6    0    0  0.19492957105E+01  0.26442625170E+02  0.21435297846E+02  0.34095222149E+02  0.00000000000E+00 0. -1.
        -14    1    6    6    0    0  0.95556695634E+02 -0.22291188014E+02  0.45776907075E+02  0.10827513272E+03  0.00000000000E+00 0.  1.
</event>
<event>
12    1  0.8406581E-002  0.1818003E+03  0.7818608E-02  0.1166148E+00
         21   -1    0    0  501  502  0.00000000000E+00  0.00000000000E+00  0.74547438541E+02  0.74547438541E+02  0.00000000000E+00 0.  1.
         21   -1    0    0  502  503 -0.00000000000E+00 -0.00000000000E+00 -0.46809637558E+03  0.46809637558E+03  0.00000000000E+00 0.  1.
         -6    2    1    2    0  503  0.17703331192E+02  0.55278174693E+02 -0.13359400035E+03  0.22560744818E+03  0.17228545851E+03 0.  0.
        -24    2    3    3    0    0  0.18612930175E+02  0.87192660421E+02 -0.14856676502E+03  0.19003167762E+03  0.78044561804E+02 0.  0.
          6    2    1    2  501    0 -0.17703331192E+02 -0.55278174693E+02 -0.25995493668E+03  0.31703636593E+03  0.17194884031E+03 0.  0.
         24    2    5    5    0    0 -0.46432638512E+02 -0.86308691194E+02 -0.21702650668E+03  0.25659460756E+03  0.95577758549E+02 0.  0.
          5    1    5    5  501    0  0.28729307320E+02  0.31030516501E+02 -0.42928429999E+02  0.60441758376E+02  0.47000000000E+01 0. -1.
        -13    1    6    6    0    0 -0.21103026798E+02  0.90942221187E+01 -0.10411285991E+03  0.10661862039E+03  0.00000000000E+00 0.  1.
         14    1    6    6    0    0 -0.25329611714E+02 -0.95402913313E+02 -0.11291364678E+03  0.14997598717E+03  0.00000000000E+00 0. -1.
         -5    1    3    3    0  503 -0.90959898290E+00 -0.31914485728E+02  0.14972764670E+02  0.35575770567E+02  0.47000000000E+01 0.  1.
         13    1    4    4    0    0  0.20450546324E+02 -0.74985751569E+01 -0.43034521924E+02  0.48233013089E+02  0.00000000000E+00 0. -1.
        -14    1    4    4    0    0 -0.18376161488E+01  0.94691235578E+02 -0.10553224310E+03  0.14179866453E+03  0.00000000000E+00 0.  1.
</event>
<event>
12    1  0.8406581E-002  0.1969440E+03  0.7818608E-02  0.1152482E+00
         21   -1    0    0  501  502  0.00000000000E+00  0.00000000000E+00  0.20646740670E+03  0.20646740670E+03  0.00000000000E+00 0. -1.
         21   -1    0    0  502  503 -0.00000000000E+00 -0.00000000000E+00 -0.25066115392E+03  0.25066115392E+03  0.00000000000E+00 0.  1.
         -6    2    1    2    0  503 -0.93015203796E+02 -0.26335687085E+02  0.92840546550E+02  0.21772991603E+03  0.17158540934E+03 0.  0.
        -24    2    3    3    0    0 -0.56332806402E+01  0.27052665000E+02  0.81694548371E+02  0.11461716266E+03  0.75495127048E+02 0.  0.
          6    2    1    2  501    0  0.93015203796E+02  0.26335687085E+02 -0.13703429377E+03  0.23939864460E+03  0.17084471550E+03 0.  0.
         24    2    5    5    0    0  0.35211334967E+01 -0.71449180143E+01 -0.11024349935E+02  0.81187597313E+02  0.80040248822E+02 0.  0.
          5    1    5    5  501    0  0.89494070299E+02  0.33480605099E+02 -0.12600994384E+03  0.15821104728E+03  0.47000000000E+01 0. -1.
        -11    1    6    6    0    0 -0.24608377840E+02 -0.29230138803E+02 -0.21601193536E+02  0.43892879109E+02  0.00000000000E+00 0.  1.
         12    1    6    6    0    0  0.28129511336E+02  0.22085220789E+02  0.10576843601E+02  0.37294718203E+02  0.00000000000E+00 0. -1.
         -5    1    3    3    0  503 -0.87381923156E+02 -0.53388352085E+02  0.11145998180E+02  0.10311275337E+03  0.47000000000E+01 0.  1.
         13    1    4    4    0    0  0.24886041650E+02 -0.40175950176E+01  0.39653409068E+01  0.25518230097E+02  0.00000000000E+00 0. -1.
        -14    1    4    4    0    0 -0.30519322291E+02  0.31070260018E+02  0.77729207464E+02  0.89098932562E+02  0.00000000000E+00 0.  1.
</event>
<event>
12    1  0.8406581E-002  0.2442993E+03  0.7818608E-02  0.1116993E+00
         21   -1    0    0  503  502  0.00000000000E+00  0.00000000000E+00  0.67370232309E+02  0.67370232309E+02  0.00000000000E+00 0. -1.
         21   -1    0    0  501  503 -0.00000000000E+00 -0.00000000000E+00 -0.11581113300E+04  0.11581113300E+04  0.00000000000E+00 0.  1.
          6    2    1    2  501    0 -0.81517068835E+02  0.15440027140E+03 -0.84299748430E+03  0.87768269365E+03  0.17087327429E+03 0.  0.
         24    2    3    3    0    0 -0.85971710840E+01  0.86764811920E+01 -0.29855122676E+03  0.30935483768E+03  0.80114842052E+02 0.  0.
         -6    2    1    2    0  502  0.81517068835E+02 -0.15440027140E+03 -0.24774361338E+03  0.34779886865E+03  0.17059507245E+03 0.  0.
        -24    2    5    5    0    0  0.10116874672E+03 -0.13891121841E+03 -0.25818848454E+03  0.32028006526E+03  0.79916110656E+02 0.  0.
          5    1    3    3  501    0 -0.72919897751E+02  0.14572379021E+03 -0.54444625754E+03  0.56832785597E+03  0.47000000000E+01 0. -1.
        -11    1    4    4    0    0  0.20623961147E+02 -0.54471677957E+01 -0.25027949656E+03  0.25118687428E+03  0.00000000000E+00 0.  1.
         12    1    4    4    0    0 -0.29221132231E+02  0.14123648988E+02 -0.48271730202E+02  0.58167963402E+02  0.00000000000E+00 0. -1.
         -5    1    5    5    0  502 -0.19651677882E+02 -0.15489052998E+02  0.10444871164E+02  0.27518803389E+02  0.47000000000E+01 0.  1.
         13    1    6    6    0    0  0.34034807794E+02 -0.98536788064E+02 -0.10358524320E+03  0.14696179555E+03  0.00000000000E+00 0. -1.
        -14    1    6    6    0    0  0.67133938922E+02 -0.40374430343E+02 -0.15460324135E+03  0.17331826971E+03  0.00000000000E+00 0.  1.
</event>
<event>
12    1  0.8406581E-002  0.1854207E+03  0.7818608E-02  0.1163026E+00
         21   -1    0    0  503  502  0.00000000000E+00  0.00000000000E+00  0.21547479134E+03  0.21547479134E+03  0.00000000000E+00 0.  1.
         21   -1    0    0  501  503 -0.00000000000E+00 -0.00000000000E+00 -0.40454874233E+03  0.40454874233E+03  0.00000000000E+00 0.  1.
          6    2    1    2  501    0  0.47938102151E+02 -0.48425548946E+02 -0.33660795203E+03  0.38429902793E+03  0.17244632229E+03 0.  0.
         24    2    3    3    0    0  0.26594348543E+02 -0.26000001970E+02 -0.34132674989E+03  0.35263172573E+03  0.80386095366E+02 0.  0.
         -6    2    1    2    0  502 -0.47938102151E+02  0.48425548946E+02  0.14753400103E+03  0.23572450574E+03  0.17075323047E+03 0.  0.
        -24    2    5    5    0    0 -0.85825621124E+02  0.11649961140E+02  0.54977988882E+02  0.12906329753E+03  0.78313451406E+02 0.  0.
          5    1    3    3  501    0  0.21343753608E+02 -0.22425546976E+02  0.47187978591E+01  0.31667302198E+02  0.47000000000E+01 0. -1.
        -11    1    4    4    0    0 -0.80857470816E+01 -0.40751384504E+02 -0.98581082170E+02  0.10697796225E+03  0.00000000000E+00 0.  1.
         12    1    4    4    0    0  0.34680095624E+02  0.14751382534E+02 -0.24274566772E+03  0.24565376349E+03  0.00000000000E+00 0. -1.
         -5    1    5    5    0  502  0.37887518973E+02  0.36775587806E+02  0.92556012152E+02  0.10666120821E+03  0.47000000000E+01 0.  1.
         11    1    6    6    0    0 -0.32701143104E+01  0.15423480691E+02 -0.14254058728E+02  0.21254542913E+02  0.00000000000E+00 0. -1.
        -12    1    6    6    0    0 -0.82555506813E+02 -0.37735195515E+01  0.69232047610E+02  0.10780875461E+03  0.00000000000E+00 0.  1.
</event>
<event>
12    1  0.8406581E-002  0.2029280E+03  0.7818608E-02  0.1147547E+00
         21   -1    0    0  503  502  0.00000000000E+00  0.00000000000E+00  0.27540082010E+03  0.27540082010E+03  0.00000000000E+00 0.  1.
         21   -1    0    0  501  503 -0.00000000000E+00 -0.00000000000E+00 -0.43656604321E+03  0.43656604321E+03  0.00000000000E+00 0. -1.
          6    2    1    2  501    0 -0.95285799552E+02 -0.45900473165E+02 -0.36977287809E+03  0.42179585785E+03  0.17318639467E+03 0.  0.
         24    2    3    3    0    0 -0.99999794314E+02  0.23460123807E+02 -0.24442092220E+03  0.27837927233E+03  0.84871053841E+02 0.  0.
         -6    2    1    2    0  502  0.95285799552E+02  0.45900473165E+02  0.20860765497E+03  0.29017100546E+03  0.17174347633E+03 0.  0.
        -24    2    5    5    0    0  0.59219374713E+02  0.59165043092E+02  0.47527358498E+02  0.12450360453E+03  0.78961136456E+02 0.  0.
          5    1    3    3  501    0  0.47139947619E+01 -0.69360596972E+02 -0.12535195589E+03  0.14341658553E+03  0.47000000000E+01 0. -1.
        -13    1    4    4    0    0 -0.97104293685E+01  0.11437605806E+00 -0.13180311422E+03  0.13216038150E+03  0.00000000000E+00 0.  1.
         14    1    4    4    0    0 -0.90289364946E+02  0.23345747749E+02 -0.11261780798E+03  0.14621889083E+03  0.00000000000E+00 0. -1.
         -5    1    5    5    0  502  0.36066424839E+02 -0.13264569927E+02  0.16108029647E+03  0.16566740092E+03  0.47000000000E+01 0.  1.
         11    1    6    6    0    0  0.34313465184E+02 -0.13467302905E+02  0.24796648405E+02  0.44425847348E+02  0.00000000000E+00 0. -1.
        -12    1    6    6    0    0  0.24905909530E+02  0.72632345997E+02  0.22730710092E+02  0.80077757185E+02  0.00000000000E+00 0.  1.
</event>
<event>
12    1  0.8406581E-002  0.1996246E+03  0.7818608E-02  0.1150168E+00
         21   -1    0    0  501  502  0.00000000000E+00  0.00000000000E+00  0.84198475266E+03  0.84198475266E+03  0.00000000000E+00 0.  1.
         21   -1    0    0  502  503 -0.00000000000E+00 -0.00000000000E+00 -0.20870307815E+03  0.20870307815E+03  0.00000000000E+00 0.  1.
         -6    2    1    2    0  503 -0.88776084621E+02 -0.50076217766E+02 -0.14539539210E+03  0.24696112437E+03  0.17164252422E+03 0.  0.
        -24    2    3    3    0    0  0.71192693070E+01 -0.62008869298E+02 -0.65715789800E+02  0.12162463288E+03  0.81106118305E+02 0.  0.
          6    2    1    2  501    0  0.88776084621E+02  0.50076217766E+02  0.77867706662E+03  0.80372670644E+03  0.17102579857E+03 0.  0.
         24    2    5    5    0    0  0.93047577554E+02 -0.11686496322E+01  0.33001452862E+03  0.35210247648E+03  0.80045908131E+02 0.  0.
          5    1    5    5  501    0 -0.42714929324E+01  0.51244867399E+02  0.44866253799E+03  0.45162422996E+03  0.47000000000E+01 0. -1.
        -13    1    6    6    0    0  0.62502027500E+02 -0.37402264804E+02  0.23321058317E+03  0.24432070923E+03  0.00000000000E+00 0.  1.
         14    1    6    6    0    0  0.30545550054E+02  0.36233615172E+02  0.96803945450E+02  0.10778176725E+03  0.00000000000E+00 0. -1.
         -5    1    3    3    0  503 -0.95895353928E+02  0.11932651531E+02 -0.79679602304E+02  0.12533649150E+03  0.47000000000E+01 0.  1.
         13    1    4    4    0    0  0.28636314670E+01 -0.64505135004E+02 -0.95835776580E+01  0.65276012346E+02  0.00000000000E+00 0. -1.
        -14    1    4    4    0    0  0.42556378400E+01  0.24962657060E+01 -0.56132212142E+02  0.56348620532E+02  0.00000000000E+00 0.  1.
</event>
<event>
12    1  0.8406581E-002  0.1844303E+03  0.7818608E-02  0.1164092E+00
         21   -1    0    0  501  502  0.00000000000E+00  0.00000000000E+00  0.11933354059E+04  0.11933354059E+04  0.00000000000E+00 0.  1.
         21   -1    0    0  502  503 -0.00000000000E+00 -0.00000000000E+00 -0.29880479455E+02  0.29880479455E+02  0.00000000000E+00 0.  1.
         -6    2    1    2    0  503 -0.44801774345E+02 -0.31960458947E+02  0.73122344056E+03  0.75412350901E+03  0.17602805713E+03 0.  0.
        -24    2    3    3    0    0  0.22308019020E+02  0.30412922766E+02  0.42401840173E+03  0.43351285886E+03  0.81970727710E+02 0.  0.
          6    2    1    2  501    0  0.44801774345E+02  0.31960458947E+02  0.43223148585E+03  0.46909237631E+03  0.17376688474E+03 0.  0.
         24    2    5    5    0    0  0.32469287106E+02 -0.22581750044E+02  0.38639678256E+03  0.39663650816E+03  0.80335894818E+02 0.  0.
          5    1    5    5  501    0  0.12332487240E+02  0.54542208991E+02  0.45834703295E+02  0.72455868149E+02  0.47000000000E+01 0. -1.
        -11    1    6    6    0    0  0.93600898645E+01 -0.19461013881E+02  0.19797951052E+02  0.29296778140E+02  0.00000000000E+00 0.  1.
         12    1    6    6    0    0  0.23109197241E+02 -0.31207361629E+01  0.36659883150E+03  0.36733973002E+03  0.00000000000E+00 0. -1.
         -5    1    3    3    0  503 -0.67109793366E+02 -0.62373381713E+02  0.30720503882E+03  0.32061065015E+03  0.47000000000E+01 0.  1.
         11    1    4    4    0    0  0.10417399845E+02  0.26536114351E+02  0.41910854318E+03  0.42007696741E+03  0.00000000000E+00 0. -1.
        -12    1    4    4    0    0  0.11890619176E+02  0.38768084141E+01  0.49098585538E+01  0.13435891444E+02  0.00000000000E+00 0.  1.
</event>
<event>
12    1  0.8406581E-002  0.1828978E+03  0.7818608E-02  0.1165150E+00
         21   -1    0    0  501  502  0.00000000000E+00  0.00000000000E+00  0.13373065185E+03  0.13373065185E+03  0.00000000000E+00 0.  1.
         21   -1    0    0  502  503 -0.00000000000E+00 -0.00000000000E+00 -0.63333966663E+03  0.63333966663E+03  0.00000000000E+00 0. -1.
         -6    2    1    2    0  503  0.58031878735E+02 -0.22655374548E+02 -0.54827037592E+03  0.57780986309E+03  0.17141431627E+03 0.  0.
        -24    2    3    3    0    0 -0.99288546319E+01  0.21288145678E+02 -0.39962718709E+03  0.40849777895E+03  0.81343588819E+02 0.  0.
          6    2    1    2  501    0 -0.58031878735E+02  0.22655374548E+02  0.48661361141E+02  0.18926045540E+03  0.17196112050E+03 0.  0.
         24    2    5    5    0    0 -0.93862549531E+02  0.10132360659E+02 -0.61359923109E+01  0.12243603777E+03  0.77718015963E+02 0.  0.
          5    1    5    5  501    0  0.35830670796E+02  0.12523013889E+02  0.54797353452E+02  0.66824417633E+02  0.47000000000E+01 0. -1.
        -13    1    6    6    0    0 -0.48983771079E+02  0.43860227533E+02 -0.81904952124E+01  0.66258686979E+02  0.00000000000E+00 0.  1.
         14    1    6    6    0    0 -0.44878778451E+02 -0.33727866874E+02  0.20545029015E+01  0.56177350786E+02  0.00000000000E+00 0. -1.
         -5    1    3    3    0  503  0.67960733367E+02 -0.43943520226E+02 -0.14864318883E+03  0.16931208414E+03  0.47000000000E+01 0.  1.
         13    1    4    4    0    0 -0.11267884475E+02  0.39983727895E+02 -0.10000265269E+03  0.10828755358E+03  0.00000000000E+00 0. -1.
        -14    1    4    4    0    0  0.13390298434E+01 -0.18695582217E+02 -0.29962453441E+03  0.30021022537E+03  0.00000000000E+00 0.  1.
</event>
<event>
12    1  0.8406581E-002  0.2772214E+03  0.7818608E-02  0.1097254E+00
         21   -1    0    0  501  502  0.00000000000E+00  0.00000000000E+00  0.62839951265E+02  0.62839951265E+02  0.00000000000E+00 0.  1.
         21   -1    0    0  502  503 -0.00000000000E+00 -0.00000000000E+00 -0.12549574046E+04  0.12549574046E+04  0.00000000000E+00 0. -1.
         -6    2    1    2    0  503 -0.21021597752E+03  0.53042141882E+02 -0.70348134139E+03  0.75613339555E+03  0.17276425602E+03 0.  0.
        -24    2    3    3    0    0 -0.68330356041E+02  0.35586195905E+02 -0.16067770656E+03  0.19480094894E+03  0.78706222284E+02 0.  0.
          6    2    1    2  501    0  0.21021597752E+03 -0.53042141882E+02 -0.48863611193E+03  0.56166396030E+03  0.17232796755E+03 0.  0.
         24    2    5    5    0    0  0.10380929606E+03  0.37616451534E+02 -0.27865203573E+03  0.30936103785E+03  0.76589342271E+02 0.  0.
          5    1    5    5  501    0  0.10640668146E+03 -0.90658593416E+02 -0.20998407620E+03  0.25230292245E+03  0.47000000000E+01 0. -1.
        -13    1    6    6    0    0  0.90035686384E+02  0.49892305549E+02 -0.16685414301E+03  0.19605094240E+03  0.00000000000E+00 0.  1.
         14    1    6    6    0    0  0.13773609680E+02 -0.12275854015E+02 -0.11179789272E+03  0.11331009545E+03  0.00000000000E+00 0. -1.
         -5    1    3    3    0  503 -0.14188562148E+03  0.17455945976E+02 -0.54280363483E+03  0.56133244661E+03  0.47000000000E+01 0.  1.
         11    1    4    4    0    0 -0.83144572015E+02  0.39847186902E+02 -0.14992402565E+03  0.17600577157E+03  0.00000000000E+00 0. -1.
        -12    1    4    4    0    0  0.14814215973E+02 -0.42609909966E+01 -0.10753680915E+02  0.18795177371E+02  0.00000000000E+00 0.  1.
</event>
<event>
12    1  0.8406581E-002  0.1791066E+03  0.7818608E-02  0.1169960E+00
         21   -1    0    0  503  502  0.00000000000E+00  0.00000000000E+00  0.12452997860E+03  0.12452997860E+03  0.00000000000E+00 0. -1.
         21   -1    0    0  501  503 -0.00000000000E+00 -0.00000000000E+00 -0.25105028719E+03  0.25105028719E+03  0.00000000000E+00 0. -1.
          6    2    1    2  501    0 -0.50735411545E+02  0.20633305227E+02 -0.53012766961E+02  0.18678737718E+03  0.17052670039E+03 0.  0.
         24    2    3    3    0    0 -0.33125385742E+02  0.77894280431E+02 -0.55086421708E+02  0.12665982664E+03  0.76442054679E+02 0.  0.
         -6    2    1    2    0  502  0.50735411545E+02 -0.20633305227E+02 -0.73507541630E+02  0.18879288861E+03  0.16504417847E+03 0.  0.
        -24    2    5    5    0    0  0.10959356140E+02 -0.65659943325E+02 -0.77329222352E+02  0.12840888440E+03  0.77959587722E+02 0.  0.
          5    1    3    3  501    0 -0.17610025803E+02 -0.57260975204E+02  0.20736547468E+01  0.60127550541E+02  0.47000000000E+01 0. -1.
        -11    1    4    4    0    0  0.56258496985E+01  0.17570806417E+02 -0.51687446085E+02  0.54881467781E+02  0.00000000000E+00 0.  1.
         12    1    4    4    0    0 -0.38751235441E+02  0.60323474014E+02 -0.33989756229E+01  0.71778358860E+02  0.00000000000E+00 0. -1.
         -5    1    5    5    0  502  0.39776055405E+02  0.45026638098E+02  0.38216807218E+01  0.60384004219E+02  0.47000000000E+01 0.  1.
         13    1    6    6    0    0 -0.31793662553E+02 -0.24019312115E+02 -0.46495288253E+02  0.61233782855E+02  0.00000000000E+00 0. -1.
        -14    1    6    6    0    0  0.42753018693E+02 -0.41640631211E+02 -0.30833934099E+02  0.67175101541E+02  0.00000000000E+00 0.  1.
</event>
<event>
12    1  0.8406581E-002  0.2038445E+03  0.7818608E-02  0.1147969E+00
         21   -1    0    0  501  502  0.00000000000E+00  0.00000000000E+00  0.24297693415E+03  0.24297693415E+03  0.00000000000E+00 0.  1.
         21   -1    0    0  502  503 -0.00000000000E+00 -0.00000000000E+00 -0.18141348638E+03  0.18141348638E+03  0.00000000000E+00 0.  1.
         -6    2    1    2    0  503 -0.87337064905E+02  0.39877620238E+02 -0.32881194690E+02  0.19972983689E+03  0.17202571690E+03 0.  0.
        -24    2    3    3    0    0 -0.10597193518E+03  0.47686121130E+00 -0.62550046014E+02  0.14679583136E+03  0.80038924314E+02 0.  0.
          6    2    1    2  501    0  0.87337064905E+02 -0.39877620238E+02  0.94444642456E+02  0.22466058365E+03  0.17981824116E+03 0.  0.
         24    2    5    5    0    0  0.10063095906E+03 -0.57421244029E+02  0.12369263607E+03  0.18775473739E+03  0.80797178222E+02 0.  0.
          5    1    5    5  501    0 -0.13293894152E+02  0.17543623792E+02 -0.29247993613E+02  0.36905846255E+02  0.47000000000E+01 0. -1.
        -11    1    6    6    0    0  0.27370581064E+02 -0.49520044196E+02  0.18909317249E+02  0.59656900387E+02  0.00000000000E+00 0.  1.
         12    1    6    6    0    0  0.73260377993E+02 -0.79011998338E+01  0.10478331882E+03  0.12809783700E+03  0.00000000000E+00 0. -1.
         -5    1    3    3    0  503  0.18634870277E+02  0.39400759027E+02  0.29668851324E+02  0.52934005526E+02  0.47000000000E+01 0.  1.
         11    1    4    4    0    0 -0.66603981533E+02  0.26404692431E+02 -0.41809757261E+01  0.71768925702E+02  0.00000000000E+00 0. -1.
        -12    1    4    4    0    0 -0.39367953649E+02 -0.25927831220E+02 -0.58369070288E+02  0.75026905657E+02  0.00000000000E+00 0.  1.
</event>
<event>
12    1  0.8406581E-002  0.2176730E+03  0.7818608E-02  0.1135661E+00
         21   -1    0    0  503  502  0.00000000000E+00  0.00000000000E+00  0.46905121595E+03  0.46905121595E+03  0.00000000000E+00 0.  1.
         21   -1    0    0  501  503 -0.00000000000E+00 -0.00000000000E+00 -0.10488739333E+03  0.10488739333E+03  0.00000000000E+00 0.  1.
          6    2    1    2  501    0  0.74392505403E+02  0.11058046401E+03  0.23769869899E+03  0.32219474466E+03  0.17189094828E+03 0.  0.
         24    2    3    3    0    0  0.10322875613E+03  0.11077551094E+03  0.14206120997E+03  0.22219381113E+03  0.79128455130E+02 0.  0.
         -6    2    1    2    0  502 -0.74392505403E+02 -0.11058046401E+03  0.12646512362E+03  0.25174386462E+03  0.17210247529E+03 0.  0.
        -24    2    5    5    0    0 -0.81874751518E+02 -0.12912317739E+03  0.63769004696E+02  0.18576879694E+03  0.84067176015E+02 0.  0.
          5    1    3    3  501    0 -0.28836250722E+02 -0.19504692894E+00  0.95637489028E+02  0.10000093353E+03  0.47000000000E+01 0. -1.
        -13    1    4    4    0    0 -0.34706429434E+01  0.22647958677E+02 -0.12830320350E+01  0.22948236661E+02  0.00000000000E+00 0.  1.
         14    1    4    4    0    0  0.10669939907E+03  0.88127552262E+02  0.14334424200E+03  0.19924557447E+03  0.00000000000E+00 0. -1.
         -5    1    5    5    0  502  0.74822461150E+01  0.18542713378E+02  0.62696118927E+02  0.65975067676E+02  0.47000000000E+01 0.  1.
         11    1    6    6    0    0 -0.15636156651E+02 -0.74805870277E+01 -0.17948127836E+02  0.24951630607E+02  0.00000000000E+00 0. -1.
        -12    1    6    6    0    0 -0.66238594867E+02 -0.12164259036E+03  0.81717132532E+02  0.16081716634E+03  0.00000000000E+00 0.  1.
</event>
<event>
12    1  0.8406581E-002  0.3411506E+03  0.7818608E-02  0.1066707E+00
         21   -1    0    0  501  502  0.00000000000E+00  0.00000000000E+00  0.12848058658E+03  0.12848058658E+03  0.00000000000E+00 0.  1.
         21   -1    0    0  502  503 -0.00000000000E+00 -0.00000000000E+00 -0.89629554320E+03  0.89629554320E+03  0.00000000000E+00 0. -1.
         -6    2    1    2    0  503  0.28732414871E+03  0.43935048409E+02 -0.39246350068E+03  0.51755580925E+03  0.17132122287E+03 0.  0.
        -24    2    3    3    0    0  0.12452396259E+03  0.54533889787E+02 -0.12292814212E+03  0.20245640341E+03  0.86006422812E+02 0.  0.
          6    2    1    2  501    0 -0.28732414871E+03 -0.43935048409E+02 -0.37535145594E+03  0.50722032053E+03  0.17860090474E+03 0.  0.
         24    2    5    5    0    0 -0.25618671352E+03 -0.84769379848E+01 -0.22640142591E+03  0.35090327440E+03  0.78562151634E+02 0.  0.
          5    1    5    5  501    0 -0.31137435186E+02 -0.35458110424E+02 -0.14895003003E+03  0.15631704613E+03  0.47000000000E+01 0. -1.
        -11    1    6    6    0    0 -0.54336987314E+02  0.11207920049E+02 -0.13983255431E+02  0.57215881489E+02  0.00000000000E+00 0.  1.
         12    1    6    6    0    0 -0.20184972621E+03 -0.19684858034E+02 -0.21241817048E+03  0.29368739291E+03  0.00000000000E+00 0. -1.
         -5    1    3    3    0  503  0.16280018612E+03 -0.10598841378E+02 -0.26953535856E+03  0.31509940583E+03  0.47000000000E+01 0.  1.
         11    1    4    4    0    0  0.74270167926E+02  0.63160849315E+02 -0.11514562741E+03  0.15087699043E+03  0.00000000000E+00 0. -1.
        -12    1    4    4    0    0  0.50253794661E+02 -0.86269595281E+01 -0.77825147095E+01  0.51579412984E+02  0.00000000000E+00 0.  1.
</event>
<event>
12    1  0.8406581E-002  0.1739302E+03  0.7818608E-02  0.1174709E+00
         21   -1    0    0  503  502  0.00000000000E+00  0.00000000000E+00  0.49827945025E+03  0.49827945025E+03  0.00000000000E+00 0.  1.
         21   -1    0    0  501  503 -0.00000000000E+00 -0.00000000000E+00 -0.69719628992E+02  0.69719628992E+02  0.00000000000E+00 0.  1.
          6    2    1    2  501    0 -0.22923729067E+02 -0.11825981311E+02  0.32491356961E+03  0.36853840601E+03  0.17200691205E+03 0.  0.
         24    2    3    3    0    0  0.31647917032E+02 -0.17656648844E+02  0.82752857777E+02  0.12019195123E+03  0.79276237105E+02 0.  0.
         -6    2    1    2    0  502  0.22923729067E+02  0.11825981311E+02  0.10364625164E+03  0.19946067323E+03  0.16845374290E+03 0.  0.
        -24    2    5    5    0    0 -0.50175552696E+00  0.49828125519E+02  0.11941075036E+03  0.15188414842E+03  0.79541017016E+02 0.  0.
          5    1    3    3  501    0 -0.54571646100E+02  0.58306675331E+01  0.24216071184E+03  0.24834645478E+03  0.47000000000E+01 0. -1.
        -11    1    4    4    0    0 -0.10112469977E+02  0.24289960834E+02  0.36897453040E+02  0.45317615639E+02  0.00000000000E+00 0.  1.
         12    1    4    4    0    0  0.41760387010E+02 -0.41946609678E+02  0.45855404737E+02  0.74874335592E+02  0.00000000000E+00 0. -1.
         -5    1    5    5    0  502  0.23425484594E+02 -0.38002144208E+02 -0.15764498725E+02  0.47576524809E+02  0.47000000000E+01 0.  1.
         11    1    6    6    0    0  0.29847546266E+02  0.51565050180E+02  0.56958262256E+02  0.82426173375E+02  0.00000000000E+00 0. -1.
        -12    1    6    6    0    0 -0.30349301793E+02 -0.17369246606E+01  0.62452488109E+02  0.69457975046E+02  0.00000000000E+00 0.  1.
</event>
<event>
12    1  0.8406581E-002  0.2389758E+03  0.7818608E-02  0.1121256E+00
         21   -1    0    0  501  502  0.00000000000E+00  0.00000000000E+00  0.13065932127E+03  0.13065932127E+03  0.00000000000E+00 0. -1.
         21   -1    0    0  502  503 -0.00000000000E+00 -0.00000000000E+00 -0.42893967324E+03  0.42893967324E+03  0.00000000000E+00 0. -1.
         -6    2    1    2    0  503  0.13370381750E+03  0.86645366960E+02 -0.14405849677E+03  0.27903810971E+03  0.17811593345E+03 0.  0.
        -24    2    3    3    0    0  0.57047409654E+02 -0.26226874652E+02 -0.92270881181E+02  0.13302305940E+03  0.72380680536E+02 0.  0.
          6    2    1    2  501    0 -0.13370381750E+03 -0.86645366960E+02 -0.15422185521E+03  0.28056088480E+03  0.17188920567E+03 0.  0.
         24    2    5    5    0    0 -0.16531895944E+03 -0.63536535670E+02 -0.13853840642E+03  0.23811567483E+03  0.78351354997E+02 0.  0.
          5    1    5    5  501    0  0.31615141941E+02 -0.23108831290E+02 -0.15683448785E+02  0.42445209969E+02  0.47000000000E+01 0. -1.
        -11    1    6    6    0    0  0.34309926150E+01 -0.11369314738E+02  0.24385230680E+01  0.12123507029E+02  0.00000000000E+00 0.  1.
         12    1    6    6    0    0 -0.16874995206E+03 -0.52167220933E+02 -0.14097692949E+03  0.22599216780E+03  0.00000000000E+00 0. -1.
         -5    1    3    3    0  503  0.76656407846E+02  0.11287224161E+03 -0.51787615593E+02  0.14601505032E+03  0.47000000000E+01 0.  1.
         11    1    4    4    0    0  0.62956838285E+02 -0.12374696137E+02 -0.97810191235E+02  0.11697662203E+03  0.00000000000E+00 0. -1.
        -12    1    4    4    0    0 -0.59094286317E+01 -0.13852178515E+02  0.55393100537E+01  0.16046437369E+02  0.00000000000E+00 0.  1.
</event>
<event>
12    1  0.8406581E-002  0.2467053E+03  0.7818608E-02  0.1115519E+00
         21   -1    0    0  503  502  0.00000000000E+00  0.00000000000E+00  0.69185601485E+02  0.69185601485E+02  0.00000000000E+00 0. -1.
         21   -1    0    0  501  503 -0.00000000000E+00 -0.00000000000E+00 -0.10269946650E+04  0.10269946650E+04  0.00000000000E+00 0.  1.
          6    2    1    2  501    0  0.77085382384E+02  0.15786887244E+03 -0.68764719710E+03  0.73032382757E+03  0.17219026792E+03 0.  0.
         24    2    3    3    0    0 -0.11420137108E+02  0.32342139707E+02 -0.33061265081E+03  0.34162607241E+03  0.78912704603E+02 0.  0.
         -6    2    1    2    0  502 -0.77085382384E+02 -0.15786887244E+03 -0.27016186640E+03  0.36585643891E+03  0.17320150914E+03 0.  0.
        -24    2    5    5    0    0  0.71845454628E+01 -0.52449289225E+02 -0.43366664109E+02  0.10190026253E+03  0.75501326572E+02 0.  0.
          5    1    3    3  501    0  0.88505519491E+02  0.12552673273E+03 -0.35703454630E+03  0.38869775515E+03  0.47000000000E+01 0. -1.
        -11    1    4    4    0    0 -0.40659206514E+02  0.38127908126E+02 -0.23235212319E+03  0.23894438182E+03  0.00000000000E+00 0.  1.
         12    1    4    4    0    0  0.29239069406E+02 -0.57857684185E+01 -0.98260527611E+02  0.10268169059E+03  0.00000000000E+00 0. -1.
         -5    1    5    5    0  502 -0.84269927846E+02 -0.10541958322E+03 -0.22679520229E+03  0.26395617638E+03  0.47000000000E+01 0.  1.
         13    1    6    6    0    0  0.24350364195E+02  0.53516362732E+01  0.39663178789E+01  0.25245037626E+02  0.00000000000E+00 0. -1.
        -14    1    6    6    0    0 -0.17165818732E+02 -0.57800925498E+02 -0.47332981988E+02  0.76655224904E+02  0.00000000000E+00 0.  1.
</event>
<event>
12    1  0.8406581E-002  0.2110240E+03  0.7818608E-02  0.1140863E+00
         21   -1    0    0  503  502  0.00000000000E+00  0.00000000000E+00  0.75643915400E+03  0.75643915400E+03  0.00000000000E+00 0.  1.
         21   -1    0    0  501  503 -0.00000000000E+00 -0.00000000000E+00 -0.72110729565E+02  0.72110729565E+02  0.00000000000E+00 0.  1.
          6    2    1    2  501    0 -0.21120879305E+02 -0.12018627681E+03  0.16400019120E+03  0.26725864275E+03  0.17216354647E+03 0.  0.
         24    2    3    3    0    0 -0.59351870080E+02 -0.16088818230E+02  0.64136890108E+02  0.11795138089E+03  0.77572501740E+02 0.  0.
         -6    2    1    2    0  502  0.21120879305E+02  0.12018627681E+03  0.52032823323E+03  0.56129124082E+03  0.17150963251E+03 0.  0.
        -24    2    5    5    0    0  0.64248692323E+02  0.50042391505E+02  0.39431695617E+03  0.41068876790E+03  0.80915182422E+02 0.  0.
          5    1    3    3  501    0  0.38230990775E+02 -0.10409745858E+03  0.99863301097E+02  0.14930726186E+03  0.47000000000E+01 0. -1.
        -11    1    4    4    0    0 -0.10501794205E+02 -0.33637135813E+02 -0.26035610118E+00  0.35239358288E+02  0.00000000000E+00 0.  1.
         12    1    4    4    0    0 -0.48850075875E+02  0.17548317583E+02  0.64397246209E+02  0.82712022598E+02  0.00000000000E+00 0. -1.
         -5    1    5    5    0  502 -0.43127813018E+02  0.70143885305E+02  0.12601127706E+03  0.15060247292E+03  0.47000000000E+01 0.  1.
         11    1    6    6    0    0  0.23033166077E+01 -0.51143552737E+01  0.19129949782E+03  0.19138171220E+03  0.00000000000E+00 0. -1.
        -12    1    6    6    0    0  0.61945375715E+02  0.55156746779E+02  0.20301745835E+03  0.21930705570E+03  0.00000000000E+00 0.  1.
</event>
<event>
12    1  0.8406581E-002  0.2120009E+03  0.7818608E-02  0.1140174E+00
         21   -1    0    0  503  502  0.00000000000E+00  0.00000000000E+00  0.17324872994E+03  0.17324872994E+03  0.00000000000E+00 0.  1.
         21   -1    0    0  501  503 -0.00000000000E+00 -0.00000000000E+00 -0.28266395611E+03  0.28266395611E+03  0.00000000000E+00 0.  1.
          6    2    1    2  501    0 -0.88557397653E+02  0.84288767003E+02 -0.12177205208E+03  0.24448483299E+03  0.17319755186E+03 0.  0.
         24    2    3    3    0    0 -0.53428445265E+02 -0.75517534602E+01 -0.10805680789E+03  0.14509206455E+03  0.80397796736E+02 0.  0.
         -6    2    1    2    0  502  0.88557397653E+02 -0.84288767003E+02  0.12356825913E+02  0.21142785306E+03  0.17205242509E+03 0.  0.
        -24    2    5    5    0    0  0.46333608962E+02 -0.10017825565E+02 -0.29860351634E+02  0.11601610769E+03  0.10159201000E+03 0.  0.
          5    1    3    3  501    0 -0.35128952389E+02  0.91840520463E+02 -0.13715244195E+02  0.99392768440E+02  0.47000000000E+01 0. -1.
        -13    1    4    4    0    0 -0.54908091116E+02  0.23157224485E+02 -0.44117658348E+02  0.74145285042E+02  0.00000000000E+00 0.  1.
         14    1    4    4    0    0  0.14796458514E+01 -0.30708977946E+02 -0.63939149539E+02  0.70946779505E+02  0.00000000000E+00 0. -1.
         -5    1    5    5    0  502  0.42223788691E+02 -0.74270941438E+02  0.42217177547E+02  0.95411745365E+02  0.47000000000E+01 0.  1.
         13    1    6    6    0    0  0.39781556467E+02 -0.37766627870E+02 -0.55237468411E+02  0.77846440715E+02  0.00000000000E+00 0. -1.
        -14    1    6    6    0    0  0.65520524953E+01  0.27748802305E+02  0.25377116777E+02  0.38169666977E+02  0.00000000000E+00 0.  1.
</event>
<event>
12    1  0.8406581E-002  0.3890782E+03  0.7818608E-02  0.1047781E+00
         21   -1    0    0  503  502  0.00000000000E+00  0.00000000000E+00  0.13534940810E+04  0.13534940810E+04  0.00000000000E+00 0.  1.
         21   -1    0    0  501  503 -0.00000000000E+00 -0.00000000000E+00 -0.17163879860E+03  0.17163879860E+03  0.00000000000E+00 0. -1.
          6    2    1    2  501    0 -0.31507879254E+03 -0.14616194407E+03  0.13984856202E+03  0.41344825608E+03  0.17533933030E+03 0.  0.
         24    2    3    3    0    0 -0.16900873935E+03 -0.14673696927E+03  0.53269412701E+02  0.24358116041E+03  0.79990369736E+02 0.  0.
         -6    2    1    2    0  502  0.31507879254E+03  0.14616194407E+03  0.10420067204E+04  0.11116846235E+04  0.17154223225E+03 0.  0.
        -24    2    5    5    0    0  0.68255379402E+02  0.45311838263E+02  0.40224040399E+03  0.41856445305E+03  0.81773463025E+02 0.  0.
          5    1    3    3  501    0 -0.14607005320E+03  0.57502520049E+00  0.86579149318E+02  0.16986709567E+03  0.47000000000E+01 0. -1.
        -11    1    4    4    0    0 -0.85199872456E+01 -0.49038846120E+02  0.12579927537E+02  0.51338613034E+02  0.00000000000E+00 0.  1.
         12    1    4    4    0    0 -0.16048875210E+03 -0.97698123148E+02  0.40689485164E+02  0.19224254737E+03  0.00000000000E+00 0. -1.
         -5    1    5    5    0  502  0.24682341314E+03  0.10085010581E+03  0.63976631642E+03  0.69312017049E+03  0.47000000000E+01 0.  1.
         11    1    6    6    0    0  0.30938376136E+02  0.53161289600E+02  0.13176750821E+03  0.14541658107E+03  0.00000000000E+00 0. -1.
        -12    1    6    6    0    0  0.37317003266E+02 -0.78494513375E+01  0.27047289578E+03  0.27314787198E+03  0.00000000000E+00 0.  1.
</event>
<event>
12    1  0.8406581E-002  0.1896382E+03  0.7818608E-02  0.1158831E+00
         21   -1    0    0  503  502  0.00000000000E+00  0.00000000000E+00  0.34033456100E+03  0.34033456100E+03  0.00000000000E+00 0. -1.
         21   -1    0    0  501  503 -0.00000000000E+00 -0.00000000000E+00 -0.81449987386E+03  0.81449987386E+03  0.00000000000E+00 0. -1.
          6    2    1    2  501    0 -0.30705146933E+02  0.71519745704E+02 -0.77579883405E+03  0.79864040311E+03  0.17292999302E+03 0.  0.
         24    2    3    3    0    0 -0.55478138586E+02  0.81778995831E+02 -0.35639961538E+03  0.37835865481E+03  0.79805750467E+02 0.  0.
         -6    2    1    2    0  502  0.30705146933E+02 -0.71519745704E+02  0.30163352119E+03  0.35619403175E+03  0.17272384629E+03 0.  0.
        -24    2    5    5    0    0  0.22279691032E+02 -0.47978751433E+02  0.31463744915E+03  0.32762203741E+03  0.74438765203E+02 0.  0.
          5    1    3    3  501    0  0.24772991653E+02 -0.10259250127E+02 -0.41939921867E+03  0.42028174830E+03  0.47000000000E+01 0. -1.
        -11    1    4    4    0    0  0.14001036382E+02  0.47550267678E+02 -0.13949275993E+03  0.14803812701E+03  0.00000000000E+00 0.  1.
         12    1    4    4    0    0 -0.69479174967E+02  0.34228728154E+02 -0.21690685546E+03  0.23032052781E+03  0.00000000000E+00 0. -1.
         -5    1    5    5    0  502  0.84254559007E+01 -0.23540994271E+02 -0.13003927963E+02  0.28571994345E+02  0.47000000000E+01 0.  1.
         11    1    6    6    0    0 -0.18204358486E+02 -0.27898265673E+02  0.56747905042E+02  0.65803013777E+02  0.00000000000E+00 0. -1.
        -12    1    6    6    0    0  0.40484049518E+02 -0.20080485760E+02  0.25788954411E+03  0.26181902363E+03  0.00000000000E+00 0.  1.
</event>
<event>
12    1  0.8406581E-002  0.2521875E+03  0.7818608E-02  0.1111970E+00
         21   -1    0    0  503  502  0.00000000000E+00  0.00000000000E+00  0.63964063093E+03  0.63964063093E+03  0.00000000000E+00 0.  1.
         21   -1    0    0  501  503 -0.00000000000E+00 -0.00000000000E+00 -0.47123545871E+03  0.47123545871E+03  0.00000000000E+00 0.  1.
          6    2    1    2  501    0 -0.95621059911E+01 -0.18356471004E+03 -0.40922768181E+03  0.48069306749E+03  0.17265889183E+03 0.  0.
         24    2    3    3    0    0 -0.15231196305E+02 -0.20233092227E+03 -0.30213582820E+03  0.37172029834E+03  0.75631541492E+02 0.  0.
         -6    2    1    2    0  502  0.95621059911E+01  0.18356471004E+03  0.57763285403E+03  0.63018302215E+03  0.17228897441E+03 0.  0.
        -24    2    5    5    0    0 -0.42416225733E+02  0.48705875046E+02  0.30914282062E+03  0.32522787727E+03  0.77669106751E+02 0.  0.
          5    1    3    3  501    0  0.56690903140E+01  0.18766212226E+02 -0.10709185362E+03  0.10897276915E+03  0.47000000000E+01 0. -1.
        -11    1    4    4    0    0 -0.44844515126E+02 -0.14336524470E+03 -0.21935026266E+03  0.26585552778E+03  0.00000000000E+00 0.  1.
         12    1    4    4    0    0  0.29613318821E+02 -0.58965677569E+02 -0.82785565538E+02  0.10586477055E+03  0.00000000000E+00 0. -1.
         -5    1    5    5    0  502  0.51978331724E+02  0.13485883500E+03  0.26849003341E+03  0.30495514488E+03  0.47000000000E+01 0.  1.
         13    1    6    6    0    0 -0.43911526643E+02  0.13286782962E+02  0.71483592736E+02  0.84939182973E+02  0.00000000000E+00 0. -1.
        -14    1    6    6    0    0  0.14953009102E+01  0.35419092083E+02  0.23765922789E+03  0.24028869430E+03  0.00000000000E+00 0.  1.
</event>
<event>
12    1  0.8406581E-002  0.1831551E+03  0.7818608E-02  0.1165008E+00
         21   -1    0    0  503  502  0.00000000000E+00  0.00000000000E+00  0.35431153862E+03  0.35431153862E+03  0.00000000000E+00 0.  1.
         21   -1    0    0  501  503 -0.00000000000E+00 -0.00000000000E+00 -0.99625609273E+02  0.99625609273E+02  0.00000000000E+00 0.  1.
          6    2    1    2  501    0  0.46148848412E+02  0.43571132597E+02  0.74641230541E+02  0.19778046062E+03  0.17180697746E+03 0.  0.
         24    2    3    3    0    0  0.75255383867E+02  0.78360918498E+02  0.47918062559E+02  0.14492464433E+03  0.83085531026E+02 0.  0.
         -6    2    1    2    0  502 -0.46148848412E+02 -0.43571132597E+02  0.18004469881E+03  0.25615668727E+03  0.17079811199E+03 0.  0.
        -24    2    5    5    0    0 -0.31979093123E+02  0.39676256178E+02  0.11747190272E+03  0.15095043977E+03  0.79934470894E+02 0.  0.
          5    1    3    3  501    0 -0.29106535455E+02 -0.34789785901E+02  0.26723167982E+02  0.52855816295E+02  0.47000000000E+01 0. -1.
        -13    1    4    4    0    0 -0.18258667551E+02  0.91806651522E+01  0.64027778530E+01  0.21416328294E+02  0.00000000000E+00 0.  1.
         14    1    4    4    0    0  0.93514051418E+02  0.69180253346E+02  0.41515284706E+02  0.12350831604E+03  0.00000000000E+00 0. -1.
         -5    1    5    5    0  502 -0.14169755288E+02 -0.83247388776E+02  0.62572796093E+02  0.10520624750E+03  0.47000000000E+01 0.  1.
         11    1    6    6    0    0 -0.40743702948E+02  0.35918945841E+02  0.12659372635E+03  0.13775409813E+03  0.00000000000E+00 0. -1.
        -12    1    6    6    0    0  0.87646098249E+01  0.37573103378E+01 -0.91218236312E+01  0.13196341641E+02  0.00000000000E+00 0.  1.
</event>
<event>
12    1  0.8406581E-002  0.2433846E+03  0.7818608E-02  0.1117598E+00
         21   -1    0    0  501  502  0.00000000000E+00  0.00000000000E+00  0.23166800042E+03  0.23166800042E+03  0.00000000000E+00 0. -1.
         21   -1    0    0  502  503 -0.00000000000E+00 -0.00000000000E+00 -0.54016936071E+03  0.54016936071E+03  0.00000000000E+00 0. -1.
         -6    2    1    2    0  503  0.16848324660E+03  0.33989201020E+02 -0.43439991912E+03  0.49781817442E+03  0.17198190275E+03 0.  0.
        -24    2    3    3    0    0  0.45097791203E+02  0.68260301350E+02 -0.17996970375E+03  0.21294047537E+03  0.79128201479E+02 0.  0.
          6    2    1    2  501    0 -0.16848324660E+03 -0.33989201020E+02  0.12589855883E+03  0.27401918671E+03  0.17232004351E+03 0.  0.
         24    2    5    5    0    0 -0.35319618331E+02 -0.60689324295E+02  0.42198120325E+02  0.11441560942E+03  0.79872278024E+02 0.  0.
          5    1    5    5  501    0 -0.13316362827E+03  0.26700123275E+02  0.83700438508E+02  0.15960357729E+03  0.47000000000E+01 0. -1.
        -11    1    6    6    0    0 -0.14424089610E+02 -0.70189763051E+02  0.64681854451E+01  0.71947860435E+02  0.00000000000E+00 0.  1.
         12    1    6    6    0    0 -0.20895528721E+02  0.95004387554E+01  0.35729934880E+02  0.42467748982E+02  0.00000000000E+00 0. -1.
         -5    1    3    3    0  503  0.12338545540E+03 -0.34271100330E+02 -0.25443021537E+03  0.28487769905E+03  0.47000000000E+01 0.  1.
         11    1    4    4    0    0  0.61343818785E+02  0.55860451934E+02 -0.17207336468E+03  0.19103061803E+03  0.00000000000E+00 0. -1.
        -12    1    4    4    0    0 -0.16246027582E+02  0.12399849416E+02 -0.78963390729E+01  0.21909857336E+02  0.00000000000E+00 0.  1.
</event>
<event>
12    1  0.8406581E-002  0.1817091E+03  0.7818608E-02  0.1167307E+00
         21   -1    0    0  503  502  0.00000000000E+00  0.00000000000E+00  0.39604261103E+02  0.39604261103E+02  0.00000000000E+00 0. -1.
         21   -1    0    0  501  503 -0.00000000000E+00 -0.00000000000E+00 -0.10827857623E+04  0.10827857623E+04  0.00000000000E+00 0. -1.
          6    2    1    2  501    0  0.40466710087E+02 -0.19102894229E+02 -0.80731296329E+03  0.82750976211E+03  0.17611277777E+03 0.  0.
         24    2    3    3    0    0  0.37371830173E+02 -0.10654236814E+02 -0.18554552479E+03  0.20565946206E+03  0.79740241479E+02 0.  0.
         -6    2    1    2    0  502 -0.40466710087E+02  0.19102894229E+02 -0.23586853786E+03  0.29488026125E+03  0.17122478246E+03 0.  0.
        -24    2    5    5    0    0 -0.80778004308E+02 -0.16454639729E+02 -0.11483428502E+03  0.16236339808E+03  0.79869386325E+02 0.  0.
          5    1    3    3  501    0  0.30948799145E+01 -0.84486574149E+01 -0.62176743850E+03  0.62185030005E+03  0.47000000000E+01 0. -1.
        -13    1    4    4    0    0 -0.16649606931E+02 -0.10869762317E+02 -0.10537520657E+02  0.22503343871E+02  0.00000000000E+00 0.  1.
         14    1    4    4    0    0  0.54021437104E+02  0.21552550283E+00 -0.17500800413E+03  0.18315611819E+03  0.00000000000E+00 0. -1.
         -5    1    5    5    0  502  0.40311294221E+02  0.35557533959E+02 -0.12103425284E+03  0.13251686317E+03  0.47000000000E+01 0.  1.
         11    1    6    6    0    0 -0.33306423725E+02  0.12871302987E+02 -0.11523693154E+01  0.35725568673E+02  0.00000000000E+00 0. -1.
        -12    1    6    6    0    0 -0.47471580583E+02 -0.29325942717E+02 -0.11368191570E+03  0.12663782941E+03  0.00000000000E+00 0.  1.
</event>
<event>
12    1  0.8406581E-002  0.2142869E+03  0.7818608E-02  0.1139749E+00
         21   -1    0    0  501  502  0.00000000000E+00  0.00000000000E+00  0.20908638028E+03  0.20908638028E+03  0.00000000000E+00 0.  1.
         21   -1    0    0  502  503 -0.00000000000E+00 -0.00000000000E+00 -0.26124500393E+03  0.26124500393E+03  0.00000000000E+00 0. -1.
         -6    2    1    2    0  503 -0.58271764086E+02 -0.10495843338E+03 -0.12808695274E+03  0.24299025948E+03  0.16800633176E+03 0.  0.
        -24    2    3    3    0    0  0.47243513754E+01 -0.11201001384E+03 -0.10952007226E+03  0.17677051619E+03  0.81759442682E+02 0.  0.
          6    2    1    2  501    0  0.58271764086E+02  0.10495843338E+03  0.75928329092E+02  0.22734112473E+03  0.17750212564E+03 0.  0.
         24    2    5    5    0    0  0.26725776982E+02  0.14094913227E+03  0.43688718930E+02  0.16944499210E+03  0.78879503949E+02 0.  0.
          5    1    5    5  501    0  0.31545987104E+02 -0.35990698898E+02  0.32239610163E+02  0.57896132625E+02  0.47000000000E+01 0. -1.
        -13    1    6    6    0    0  0.28496633626E+02  0.64739200823E+01  0.72311745306E+01  0.30104146797E+02  0.00000000000E+00 0.  1.
         14    1    6    6    0    0 -0.17708566442E+01  0.13447521219E+03  0.36457544399E+02  0.13934084531E+03  0.00000000000E+00 0. -1.
         -5    1    3    3    0  503 -0.62996115461E+02  0.70515804693E+01 -0.18566880477E+02  0.66219743287E+02  0.47000000000E+01 0.  1.
         13    1    4    4    0    0  0.25555587528E+02 -0.10980109572E+01 -0.15696112359E+02  0.30011025060E+02  0.00000000000E+00 0. -1.
        -14    1    4    4    0    0 -0.20831236153E+02 -0.11091200289E+03 -0.93823959906E+02  0.14675949113E+03  0.00000000000E+00 0.  1.
</event>
<event>
12    1  0.8406581E-002  0.2015973E+03  0.7818608E-02  0.1149853E+00
         21   -1    0    0  503  502  0.00000000000E+00  0.00000000000E+00  0.27739859283E+03  0.27739859283E+03  0.00000000000E+00 0.  1.
         21   -1    0    0  501  503 -0.00000000000E+00 -0.00000000000E+00 -0.40358375626E+03  0.40358375626E+03  0.00000000000E+00 0.  1.
          6    2    1    2  501    0  0.18727787737E+02  0.96392199247E+02 -0.33780298202E+03  0.39338574056E+03  0.17606618103E+03 0.  0.
         24    2    3    3    0    0 -0.30225155304E+02 -0.81796507458E+01 -0.15123617591E+03  0.17392976414E+03  0.79991969915E+02 0.  0.
         -6    2    1    2    0  502 -0.18727787737E+02 -0.96392199247E+02  0.21161781859E+03  0.28759660852E+03  0.16818894725E+03 0.  0.
        -24    2    5    5    0    0  0.16660254113E+02 -0.96240562187E+01  0.41860211371E+02  0.93635892495E+02  0.81518197614E+02 0.  0.
          5    1    3    3  501    0  0.48952943041E+02  0.10457184999E+03 -0.18656680612E+03  0.21945597643E+03  0.47000000000E+01 0. -1.
        -11    1    4    4    0    0  0.21022082126E+02  0.13829791410E+02 -0.23004579539E+02  0.34094013362E+02  0.00000000000E+00 0.  1.
         12    1    4    4    0    0 -0.51247237430E+02 -0.22009442156E+02 -0.12823159637E+03  0.13983575078E+03  0.00000000000E+00 0. -1.
         -5    1    5    5    0  502 -0.35388041850E+02 -0.86768143028E+02  0.16975760722E+03  0.19396071602E+03  0.47000000000E+01 0.  1.
         13    1    6    6    0    0  0.37916172855E+02  0.14380858144E+02  0.45981839682E+02  0.61308847857E+02  0.00000000000E+00 0. -1.
        -14    1    6    6    0    0 -0.21255918743E+02 -0.24004914362E+02 -0.41216283116E+01  0.32327044639E+02  0.00000000000E+00 0.  1.
</event>
<event>
12    1  0.8406581E-002  0.2206651E+03  0.7818608E-02  0.1134274E+00
         21   -1    0    0  503  502  0.00000000000E+00  0.00000000000E+00  0.36144143218E+02  0.36144143218E+02  0.00000000000E+00 0. -1.
         21   -1    0    0  501  503 -0.00000000000E+00 -0.00000000000E+00 -0.36134371566E+04  0.36134371566E+04  0.00000000000E+00 0.  1.
          6    2    1    2  501    0 -0.52187062658E+01  0.13422009357E+03 -0.32498938012E+04  0.32573766787E+04  0.17507381012E+03 0.  0.
         24    2    3    3    0    0  0.24777845592E+01  0.35312048675E+00 -0.79095614453E+03  0.79478128112E+03  0.77842135996E+02 0.  0.
         -6    2    1    2    0  502  0.52187062658E+01 -0.13422009357E+03 -0.32739921216E+03  0.39220462116E+03  0.16909155014E+03 0.  0.
        -24    2    5    5    0    0 -0.18210159934E+02 -0.17300116971E+02 -0.70889860982E+02  0.10929415840E+03  0.79302816461E+02 0.  0.
          5    1    3    3  501    0 -0.76964908250E+01  0.13386697309E+03 -0.24589376567E+04  0.24625953975E+04  0.47000000000E+01 0. -1.
        -11    1    4    4    0    0  0.23109208941E+02  0.31943532541E+02 -0.45810613637E+03  0.45979958350E+03  0.00000000000E+00 0.  1.
         12    1    4    4    0    0 -0.20631424382E+02 -0.31590412054E+02 -0.33285000816E+03  0.33498169762E+03  0.00000000000E+00 0. -1.
         -5    1    5    5    0  502  0.23428866199E+02 -0.11691997660E+03 -0.25650935118E+03  0.28291046276E+03  0.47000000000E+01 0.  1.
         13    1    6    6    0    0 -0.24608781647E-01 -0.39443394977E+02 -0.70329257630E+02  0.80634896240E+02  0.00000000000E+00 0. -1.
        -14    1    6    6    0    0 -0.18185551152E+02  0.22143278005E+02 -0.56060335221E+00  0.28659262161E+02  0.00000000000E+00 0.  1.
</event>
<event>
12    1  0.8406581E-002  0.1885600E+03  0.7818608E-02  0.1159770E+00
         21   -1    0    0  501  502  0.00000000000E+00  0.00000000000E+00  0.51604407119E+03  0.51604407119E+03  0.00000000000E+00 0.  1.
         21   -1    0    0  502  503 -0.00000000000E+00 -0.00000000000E+00 -0.10072064705E+03  0.10072064705E+03  0.00000000000E+00 0.  1.
         -6    2    1    2    0  503 -0.59158267051E+02 -0.49972932366E+02  0.34305720804E+02  0.19164193872E+03  0.17190914946E+03 0.  0.
        -24    2    3    3    0    0 -0.60282116077E+02 -0.60673193724E+01  0.80178633233E+02  0.12796007330E+03  0.79211244458E+02 0.  0.
          6    2    1    2  501    0  0.59158267051E+02  0.49972932366E+02  0.38101770334E+03  0.42512277951E+03  0.17192409045E+03 0.  0.
         24    2    5    5    0    0  0.86610799188E+02  0.47611454189E+02  0.37532724248E+03  0.39659753728E+03  0.81552354490E+02 0.  0.
          5    1    5    5  501    0 -0.27452532137E+02  0.23614781765E+01  0.56904608592E+01  0.28525242238E+02  0.47000000000E+01 0. -1.
        -13    1    6    6    0    0  0.86128668929E+02  0.61803269357E+01  0.23949179975E+03  0.25458331878E+03  0.00000000000E+00 0.  1.
         14    1    6    6    0    0  0.48213025919E+00  0.41431127254E+02  0.13583544272E+03  0.14201421850E+03  0.00000000000E+00 0. -1.
         -5    1    3    3    0  503  0.11238490260E+01 -0.43905612994E+02 -0.45872912429E+02  0.63681865422E+02  0.47000000000E+01 0.  1.
         11    1    4    4    0    0 -0.18069021514E+02 -0.23284957447E+02  0.76781822347E+02  0.82244313023E+02  0.00000000000E+00 0. -1.
        -12    1    4    4    0    0 -0.42213094563E+02  0.17217638074E+02  0.33968108863E+01  0.45715760276E+02  0.00000000000E+00 0.  1.
</event>
<event>
12    1  0.8406581E-002  0.3532653E+03  0.7818608E-02  0.1061334E+00
         21   -1    0    0  501  502  0.00000000000E+00  0.00000000000E+00  0.24732627022E+04  0.24732627022E+04  0.00000000000E+00 0. -1.
         21   -1    0    0  502  503 -0.00000000000E+00 -0.00000000000E+00 -0.12774078317E+03  0.12774078317E+03  0.00000000000E+00 0. -1.
         -6    2    1    2    0  503 -0.83233315573E+02 -0.29605570146E+03  0.16041268125E+03  0.38752235157E+03  0.17281371899E+03 0.  0.
        -24    2    3    3    0    0  0.24921029794E+02 -0.14354731722E+03  0.73549119228E+02  0.18130998993E+03  0.78974359777E+02 0.  0.
          6    2    1    2  501    0  0.83233315573E+02  0.29605570146E+03  0.21851092378E+04  0.22134811338E+04  0.17383781355E+03 0.  0.
         24    2    5    5    0    0  0.66159744878E+02  0.29664142464E+03  0.17442233171E+04  0.17722393237E+04  0.78383633590E+02 0.  0.
          5    1    5    5  501    0  0.17073570695E+02 -0.58572317615E+00  0.44088592072E+03  0.44124181010E+03  0.47000000000E+01 0. -1.
        -13    1    6    6    0    0  0.40134485624E+01  0.45737569024E+02  0.14031681882E+03  0.14763753803E+03  0.00000000000E+00 0.  1.
         14    1    6    6    0    0  0.62146296316E+02  0.25090385561E+03  0.16039064983E+04  0.16246017857E+04  0.00000000000E+00 0. -1.
         -5    1    3    3    0  503 -0.10815434537E+03 -0.15250838425E+03  0.86863562018E+02  0.20621236164E+03  0.47000000000E+01 0.  1.
         13    1    4    4    0    0 -0.13041937399E+02 -0.29777006247E+02  0.49132069098E+02  0.58912837701E+02  0.00000000000E+00 0. -1.
        -14    1    4    4    0    0  0.37962967193E+02 -0.11377031097E+03  0.24417050131E+02  0.12239715223E+03  0.00000000000E+00 0.  1.
</event>
<event>
12    1  0.8406581E-002  0.2088733E+03  0.7818608E-02  0.1142716E+00
         21   -1    0    0  501  502  0.00000000000E+00  0.00000000000E+00  0.80826019431E+03  0.80826019431E+03  0.00000000000E+00 0.  1.
         21   -1    0    0  502  503 -0.00000000000E+00 -0.00000000000E+00 -0.14079133446E+03  0.14079133446E+03  0.00000000000E+00 0. -1.
         -6    2    1    2    0  503  0.76075437695E+01  0.11626080549E+03 -0.39979185401E+02  0.21141285795E+03  0.17182145275E+03 0.  0.
        -24    2    3    3    0    0  0.61862601026E+02  0.11247638648E+03 -0.42225101873E+02  0.15677708939E+03  0.79486965024E+02 0.  0.
          6    2    1    2  501    0 -0.76075437695E+01 -0.11626080549E+03  0.70744804526E+03  0.73763867082E+03  0.17335980598E+03 0.  0.
         24    2    5    5    0    0 -0.35245081013E+02 -0.44158539146E+02  0.58220249445E+03  0.59042756976E+03  0.80329186932E+02 0.  0.
          5    1    5    5  501    0  0.27637537243E+02 -0.72102266348E+02  0.12524555081E+03  0.14721110106E+03  0.47000000000E+01 0. -1.
        -13    1    6    6    0    0 -0.18877979143E+01 -0.52341423119E+02  0.47448258922E+03  0.47736455234E+03  0.00000000000E+00 0.  1.
         14    1    6    6    0    0 -0.33357283099E+02  0.81828839737E+01  0.10771990523E+03  0.11306301742E+03  0.00000000000E+00 0. -1.
         -5    1    3    3    0  503 -0.54255057257E+02  0.37844190122E+01  0.22459164715E+01  0.54635768558E+02  0.47000000000E+01 0.  1.
         13    1    4    4    0    0 -0.90199933584E+01  0.54611367694E+02 -0.33875126033E+02  0.64894421373E+02  0.00000000000E+00 0. -1.
        -14    1    4    4    0    0  0.70882594384E+02  0.57865018787E+02 -0.83499758400E+01  0.91882668020E+02  0.00000000000E+00 0.  1.
</event>
<event>
12    1  0.8406581E-002  0.1797099E+03  0.7818608E-02  0.1168395E+00
         21   -1    0    0  503  502  0.00000000000E+00  0.00000000000E+00  0.17154594311E+04  0.17154594311E+04  0.00000000000E+00 0.  1.
         21   -1    0    0  501  503 -0.00000000000E+00 -0.00000000000E+00 -0.20474570516E+02  0.20474570516E+02  0.00000000000E+00 0.  1.
          6    2    1    2  501    0  0.36856666737E+02 -0.35301680374E+02  0.58868608145E+03  0.61513400498E+03  0.17097929427E+03 0.  0.
         24    2    3    3    0    0  0.42421869048E+02  0.37038446051E+02  0.42421788311E+03  0.43531202736E+03  0.79776483754E+02 0.  0.
         -6    2    1    2    0  502 -0.36856666737E+02  0.35301680374E+02  0.11062987791E+04  0.11207999966E+04  0.17231082736E+03 0.  0.
        -24    2    5    5    0    0 -0.41404498275E+02  0.65093457021E+02  0.43355977975E+03  0.44736990819E+03  0.78830587440E+02 0.  0.
          5    1    3    3  501    0 -0.55652023105E+01 -0.72340126424E+02  0.16446819834E+03  0.17982197762E+03  0.47000000000E+01 0. -1.
        -13    1    4    4    0    0  0.53406194852E+02  0.29622334704E+02  0.16807482540E+03  0.17882631601E+03  0.00000000000E+00 0.  1.
         14    1    4    4    0    0 -0.10984325804E+02  0.74161113463E+01  0.25614305770E+03  0.25648571136E+03  0.00000000000E+00 0. -1.
         -5    1    5    5    0  502  0.45478315372E+01 -0.29791776648E+02  0.67273899940E+03  0.67343008845E+03  0.47000000000E+01 0.  1.
         13    1    6    6    0    0 -0.28656187269E+02  0.83197486696E+02  0.35573704307E+03  0.36645851426E+03  0.00000000000E+00 0. -1.
        -14    1    6    6    0    0 -0.12748311005E+02 -0.18104029675E+02  0.77822736675E+02  0.80911393929E+02  0.00000000000E+00 0.  1.
</event>
<event>
12    1  0.8406581E-002  0.2105401E+03  0.7818608E-02  0.1141585E+00
         21   -1    0    0  501  502  0.00000000000E+00  0.00000000000E+00  0.75305266496E+02  0.75305266496E+02  0.00000000000E+00 0. -1.
         21   -1    0    0  502  503 -0.00000000000E+00 -0.00000000000E+00 -0.10228306512E+04  0.10228306512E+04  0.00000000000E+00 0. -1.
         -6    2    1    2    0  503 -0.11547524041E+03 -0.23578911405E+02 -0.83262548921E+03  0.85828364902E+03  0.17174143554E+03 0.  0.
        -24    2    3    3    0    0 -0.15064428797E+03 -0.20145999276E+02 -0.67206011661E+03  0.69380880088E+03  0.81279081326E+02 0.  0.
          6    2    1    2  501    0  0.11547524041E+03  0.23578911405E+02 -0.11489989547E+03  0.23985226865E+03  0.17446096579E+03 0.  0.
         24    2    5    5    0    0  0.62364001938E+02  0.50845368320E+02 -0.13580575018E+03  0.17642192822E+03  0.78784356049E+02 0.  0.
          5    1    5    5  501    0  0.53111238473E+02 -0.27266456914E+02  0.20905854717E+02  0.63430340424E+02  0.47000000000E+01 0. -1.
        -11    1    6    6    0    0  0.56984497339E+02  0.15382467826E+02 -0.12615134102E+03  0.13927675361E+03  0.00000000000E+00 0.  1.
         12    1    6    6    0    0  0.53795045995E+01  0.35462900494E+02 -0.96544091613E+01  0.37145174618E+02  0.00000000000E+00 0. -1.
         -5    1    3    3    0  503  0.35169047555E+02 -0.34329121288E+01 -0.16056537260E+03  0.16447484814E+03  0.47000000000E+01 0.  1.
         11    1    4    4    0    0 -0.79894052816E+02  0.25548548042E+02 -0.25880686062E+03  0.27206024900E+03  0.00000000000E+00 0. -1.
        -12    1    4    4    0    0 -0.70750235150E+02 -0.45694547318E+02 -0.41325325599E+03  0.42174855188E+03  0.00000000000E+00 0.  1.
</event>
<event>
12    1  0.8406581E-002  0.1888177E+03  0.7818608E-02  0.1159711E+00
         21   -1    0    0  503  502  0.00000000000E+00  0.00000000000E+00  0.23814259877E+03  0.23814259877E+03  0.00000000000E+00 0. -1.
         21   -1    0    0  501  503 -0.00000000000E+00 -0.00000000000E+00 -0.26728317053E+03  0.26728317053E+03  0.00000000000E+00 0. -1.
          6    2    1    2  501    0  0.31520071676E+02  0.69682723846E+02 -0.18260557261E+03  0.26210784061E+03  0.17177464318E+03 0.  0.
         24    2    3    3    0    0  0.78079297875E+02  0.10865235973E+02 -0.95465868358E+02  0.14703101201E+03  0.79309245115E+02 0.  0.
         -6    2    1    2    0  502 -0.31520071676E+02 -0.69682723846E+02  0.15346500086E+03  0.24331792869E+03  0.17263519633E+03 0.  0.
        -24    2    5    5    0    0  0.22778410187E+02 -0.92771920755E+02  0.12736560350E+03  0.17862863522E+03  0.80998192047E+02 0.  0.
          5    1    3    3  501    0 -0.46559226200E+02  0.58817487872E+02 -0.87139704256E+02  0.11507682861E+03  0.47000000000E+01 0. -1.
        -13    1    4    4    0    0  0.19885202109E+02 -0.28267639371E+02 -0.58015045530E+02  0.67529446957E+02  0.00000000000E+00 0.  1.
         14    1    4    4    0    0  0.58194095766E+02  0.39132875344E+02 -0.37450822829E+02  0.79501565049E+02  0.00000000000E+00 0. -1.
         -5    1    5    5    0  502 -0.54298481863E+02  0.23089196909E+02  0.26099397358E+02  0.64689293464E+02  0.47000000000E+01 0.  1.
         11    1    6    6    0    0  0.10014345873E+02 -0.59978002866E+02  0.17517104076E+02  0.63281094224E+02  0.00000000000E+00 0. -1.
        -12    1    6    6    0    0  0.12764064313E+02 -0.32793917889E+02  0.10984849942E+03  0.11534754100E+03  0.00000000000E+00 0.  1.
</event>
<event>
12    1  0.8406581E-002  0.2152990E+03  0.7818608E-02  0.1137873E+00
         21   -1    0    0  503  502  0.00000000000E+00  0.00000000000E+00  0.25516600390E+02  0.25516600390E+02  0.00000000000E+00 0.  1.
         21   -1    0    0  501  503 -0.00000000000E+00 -0.00000000000E+00 -0.20771374875E+04  0.20771374875E+04  0.00000000000E+00 0.  1.
          6    2    1    2  501    0 -0.85999589396E+02 -0.91811173479E+02 -0.14068076253E+04  0.14228468972E+04  0.17193131576E+03 0.  0.
         24    2    3    3    0    0 -0.36559914744E+02 -0.12129921703E+03 -0.11402266741E+04  0.11500808441E+04  0.80740029720E+02 0.  0.
         -6    2    1    2    0  502  0.85999589396E+02  0.91811173479E+02 -0.64481326178E+03  0.67980719065E+03  0.17472393352E+03 0.  0.
        -24    2    5    5    0    0  0.11422080124E+03  0.37912041283E+02 -0.54167057548E+03  0.55996539082E+03  0.75302803840E+02 0.  0.
          5    1    3    3  501    0 -0.49439674652E+02  0.29488043556E+02 -0.26658095124E+03  0.27276605307E+03  0.47000000000E+01 0. -1.
        -11    1    4    4    0    0 -0.52718371223E+02 -0.81890452701E+02 -0.95822724873E+03  0.96316391809E+03  0.00000000000E+00 0.  1.
         12    1    4    4    0    0  0.16158456479E+02 -0.39408764333E+02 -0.18199942532E+03  0.18691692604E+03  0.00000000000E+00 0. -1.
         -5    1    5    5    0  502 -0.28221211847E+02  0.53899132196E+02 -0.10314268629E+03  0.11984179983E+03  0.47000000000E+01 0.  1.
         13    1    6    6    0    0  0.50319320441E+02 -0.21241337039E+02 -0.22579967758E+03  0.23231169321E+03  0.00000000000E+00 0. -1.
        -14    1    6    6    0    0  0.63901480801E+02  0.59153378322E+02 -0.31587089790E+03  0.32765369761E+03  0.00000000000E+00 0.  1.
</event>
<event>
12    1  0.8406581E-002  0.1792067E+03  0.7818608E-02  0.1168903E+00
         21   -1    0    0  503  502  0.00000000000E+00  0.00000000000E+00  0.71060670146E+02  0.71060670146E+02  0.00000000000E+00 0.  1.
         21   -1    0    0  501  503 -0.00000000000E+00 -0.00000000000E+00 -0.53875792717E+03  0.53875792717E+03  0.00000000000E+00 0.  1.
          6    2    1    2  501    0 -0.34145365301E+02  0.35364855397E+02 -0.35788471622E+03  0.39964288844E+03  0.17092802348E+03 0.  0.
         24    2    3    3    0    0 -0.72648490358E+02  0.41858146984E+02 -0.33510843535E+03  0.35419508932E+03  0.78272538188E+02 0.  0.
         -6    2    1    2    0  502  0.34145365301E+02 -0.35364855397E+02 -0.10981254080E+03  0.21017570887E+03  0.17233239833E+03 0.  0.
        -24    2    5    5    0    0  0.88414970367E+02 -0.21532859278E+02 -0.89778457929E+02  0.15051023622E+03  0.79449913051E+02 0.  0.
          5    1    3    3  501    0  0.38503125058E+02 -0.64932915879E+01 -0.22776280865E+02  0.45447799120E+02  0.47000000000E+01 0. -1.
        -11    1    4    4    0    0 -0.14538250630E+02 -0.14477649374E+02 -0.19256906271E+02  0.28138789987E+02  0.00000000000E+00 0.  1.
         12    1    4    4    0    0 -0.58110239728E+02  0.56335796358E+02 -0.31585152908E+03  0.32605629933E+03  0.00000000000E+00 0. -1.
         -5    1    5    5    0  502 -0.54269605067E+02 -0.13831996118E+02 -0.20034082875E+02  0.59665472657E+02  0.47000000000E+01 0.  1.
         13    1    6    6    0    0  0.44604329869E+01  0.18231551053E+02 -0.42098491221E+02  0.46093035042E+02  0.00000000000E+00 0. -1.
        -14    1    6    6    0    0  0.83954537381E+02 -0.39764410332E+02 -0.47679966708E+02  0.10441720117E+03  0.00000000000E+00 0.  1.
</event>
<event>
12    1  0.8406581E-002  0.3492737E+03  0.7818608E-02  0.1062984E+00
         21   -1    0    0  503  502  0.00000000000E+00  0.00000000000E+00  0.11530428505E+03  0.11530428505E+03  0.00000000000E+00 0. -1.
         21   -1    0    0  501  503 -0.00000000000E+00 -0.00000000000E+00 -0.14525164840E+04  0.14525164840E+04  0.00000000000E+00 0. -1.
          6    2    1    2  501    0  0.25303955958E+03  0.16828149471E+03 -0.10777430759E+04  0.11327157754E+04  0.17078410352E+03 0.  0.
         24    2    3    3    0    0  0.62017759065E+02  0.10119996793E+03 -0.36323210524E+03  0.39006021816E+03  0.78241776339E+02 0.  0.
         -6    2    1    2    0  502 -0.25303955958E+03 -0.16828149471E+03 -0.25946912310E+03  0.43510499370E+03  0.17217563570E+03 0.  0.
        -24    2    5    5    0    0 -0.20415719170E+03 -0.66665426667E+02 -0.12991132504E+03  0.26328350433E+03  0.79478382213E+02 0.  0.
          5    1    3    3  501    0  0.19102180052E+03  0.67081526776E+02 -0.71451097061E+03  0.74265555719E+03  0.47000000000E+01 0. -1.
        -13    1    4    4    0    0  0.42172757692E+02  0.10423680854E+03 -0.34528038442E+03  0.36312862406E+03  0.00000000000E+00 0.  1.
         14    1    4    4    0    0  0.19845001373E+02 -0.30368406102E+01 -0.17951720824E+02  0.26931594103E+02  0.00000000000E+00 0. -1.
         -5    1    5    5    0  502 -0.48882367879E+02 -0.10161606804E+03 -0.12955779806E+03  0.17182148938E+03  0.47000000000E+01 0.  1.
         11    1    6    6    0    0 -0.49327253753E+02 -0.33653089026E+02 -0.19848818549E+01  0.59746532282E+02  0.00000000000E+00 0. -1.
        -12    1    6    6    0    0 -0.15482993795E+03 -0.33012337640E+02 -0.12792644319E+03  0.20353697204E+03  0.00000000000E+00 0.  1.
</event>
<event>
12    1  0.8406581E-002  0.1872153E+03  0.7818608E-02  0.1161241E+00
         21   -1    0    0  501  502  0.00000000000E+00  0.00000000000E+00  0.89968586730E+02  0.89968586730E+02  0.00000000000E+00 0.  1.
         21   -1    0    0  502  503 -0.00000000000E+00 -0.00000000000E+00 -0.54912431797E+03  0.54912431797E+03  0.00000000000E+00 0. -1.
         -6    2    1    2    0  503 -0.69676354361E+02  0.22719493823E+02 -0.40346468827E+03  0.44478456575E+03  0.17227473839E+03 0.  0.
        -24    2    3    3    0    0 -0.57882459861E+02 -0.31534163767E+02 -0.35860924538E+03  0.37325376073E+03  0.79831048995E+02 0.  0.
          6    2    1    2  501    0  0.69676354361E+02 -0.22719493823E+02 -0.55691042963E+02  0.19430833895E+03  0.17112354765E+03 0.  0.
         24    2    5    5    0    0  0.43070289288E+02  0.31487902644E+02  0.17493761945E+02  0.99311337944E+02  0.81915641394E+02 0.  0.
          5    1    5    5  501    0  0.26606065073E+02 -0.54207396467E+02 -0.73184804907E+02  0.94997001004E+02  0.47000000000E+01 0. -1.
        -13    1    6    6    0    0  0.43653225225E+02 -0.17445360052E+02  0.18091121749E+02  0.50370957366E+02  0.00000000000E+00 0.  1.
         14    1    6    6    0    0 -0.58293593675E+00  0.48933262696E+02 -0.59735980463E+00  0.48940380578E+02  0.00000000000E+00 0. -1.
         -5    1    3    3    0  503 -0.11793894500E+02  0.54253657590E+02 -0.44855442899E+02  0.71530805021E+02  0.47000000000E+01 0.  1.
         11    1    4    4    0    0 -0.17133480510E+02 -0.54152209577E+02 -0.18787380866E+03  0.19627171456E+03  0.00000000000E+00 0. -1.
        -12    1    4    4    0    0 -0.40748979351E+02  0.22618045810E+02 -0.17073543672E+03  0.17698204617E+03  0.00000000000E+00 0.  1.
</event>
<event>
12    1  0.8406581E-002  0.1936468E+03  0.7818608E-02  0.1155323E+00
         21   -1    0    0  501  502  0.00000000000E+00  0.00000000000E+00  0.65167654279E+03  0.65167654279E+03  0.00000000000E+00 0. -1.
         21   -1    0    0  502  503 -0.00000000000E+00 -0.00000000000E+00 -0.57859443069E+02  0.57859443069E+02  0.00000000000E+00 0. -1.
         -6    2    1    2    0  503  0.88377252364E+02  0.22646896762E+01  0.26546340246E+03  0.32858773361E+03  0.17228874914E+03 0.  0.
        -24    2    3    3    0    0  0.89352279906E+02  0.34233430419E+02  0.10129744143E+03  0.16126916374E+03  0.81183827513E+02 0.  0.
          6    2    1    2  501    0 -0.88377252364E+02 -0.22646896762E+01  0.32835369726E+03  0.38094825225E+03  0.17172580712E+03 0.  0.
         24    2    5    5    0    0 -0.55202925003E+02 -0.62044240152E+02  0.14497172218E+03  0.18518009999E+03  0.79862497695E+02 0.  0.
          5    1    5    5  501    0 -0.33174327361E+02  0.59779550476E+02  0.18338197508E+03  0.19576815225E+03  0.47000000000E+01 0. -1.
        -11    1    6    6    0    0 -0.57821054346E+02 -0.17431199725E+02  0.43876423382E+02  0.74647582535E+02  0.00000000000E+00 0.  1.
         12    1    6    6    0    0  0.26181293434E+01 -0.44613040428E+02  0.10109529879E+03  0.11053251746E+03  0.00000000000E+00 0. -1.
         -5    1    3    3    0  503 -0.97502754140E+00 -0.31968740743E+02  0.16416596103E+03  0.16731856987E+03  0.47000000000E+01 0.  1.
         13    1    4    4    0    0  0.37393036139E+02 -0.15712867132E+02  0.73642263894E+02  0.84073279801E+02  0.00000000000E+00 0. -1.
        -14    1    4    4    0    0  0.51959243767E+02  0.49946297551E+02  0.27655177533E+02  0.77195883934E+02  0.00000000000E+00 0.  1.
</event>
<event>
12    1  0.8406581E-002  0.2021885E+03  0.7818608E-02  0.1149334E+00
         21   -1    0    0  503  502  0.00000000000E+00  0.00000000000E+00  0.10234206355E+03  0.10234206355E+03  0.00000000000E+00 0. -1.
         21   -1    0    0  501  503 -0.00000000000E+00 -0.00000000000E+00 -0.59236429230E+03  0.59236429230E+03  0.00000000000E+00 0. -1.
          6    2    1    2  501    0  0.92059937535E+02  0.52461978666E+02 -0.45260218108E+03  0.49571051735E+03  0.17220014922E+03 0.  0.
         24    2    3    3    0    0 -0.13094128371E+02  0.32295859018E+02 -0.13623311273E+03  0.16168128605E+03  0.79792847715E+02 0.  0.
         -6    2    1    2    0  502 -0.92059937535E+02 -0.52461978666E+02 -0.37420047669E+02  0.19899583850E+03  0.16423091203E+03 0.  0.
        -24    2    5    5    0    0 -0.68603944224E+02  0.88923885161E+01  0.22915775111E+02  0.10968154230E+03  0.81971533081E+02 0.  0.
          5    1    3    3  501    0  0.10515406591E+03  0.20166119648E+02 -0.31636906835E+03  0.33402923131E+03  0.47000000000E+01 0. -1.
        -11    1    4    4    0    0 -0.69145612872E+01 -0.26042209067E+02 -0.57457317137E+02  0.63461414288E+02  0.00000000000E+00 0.  1.
         12    1    4    4    0    0 -0.61795670834E+01  0.58338068084E+02 -0.78775795593E+02  0.98219871760E+02  0.00000000000E+00 0. -1.
         -5    1    5    5    0  502 -0.23455993310E+02 -0.61354367182E+02 -0.60335822780E+02  0.89314296197E+02  0.47000000000E+01 0.  1.
         11    1    6    6    0    0 -0.56490332756E+02  0.19129121566E+02 -0.20810672886E+02  0.63167753583E+02  0.00000000000E+00 0. -1.
        -12    1    6    6    0    0 -0.12113611469E+02 -0.10236733050E+02  0.43726447997E+02  0.46513788717E+02  0.00000000000E+00 0.  1.
</event>
<event>
12    1  0.8406581E-002  0.1871169E+03  0.7818608E-02  0.1161239E+00
         21   -1    0    0  503  502  0.00000000000E+00  0.00000000000E+00  0.18276908332E+04  0.18276908332E+04  0.00000000000E+00 0.  1.
         21   -1    0    0  501  503 -0.00000000000E+00 -0.00000000000E+00 -0.21329852931E+02  0.21329852931E+02  0.00000000000E+00 0.  1.
          6    2    1    2  501    0 -0.66412159149E+02  0.30057795299E+02  0.12042125067E+04  0.12186633982E+04  0.17233302284E+03 0.  0.
         24    2    3    3    0    0  0.32063607213E+02  0.11921465031E+02  0.56023883700E+03  0.56693448188E+03  0.79855845288E+02 0.  0.
         -6    2    1    2    0  502  0.66412159149E+02 -0.30057795299E+02  0.60214847357E+03  0.63035728799E+03  0.17162016300E+03 0.  0.
        -24    2    5    5    0    0  0.64690674273E+02 -0.71069167168E+02  0.54525449602E+03  0.56004433886E+03  0.84329628244E+02 0.  0.
          5    1    3    3  501    0 -0.98475766362E+02  0.18136330268E+02  0.64397366974E+03  0.65172891631E+03  0.47000000000E+01 0. -1.
        -13    1    4    4    0    0  0.12692688150E+02 -0.32964778541E+02  0.16893533650E+03  0.17258890137E+03  0.00000000000E+00 0.  1.
         14    1    4    4    0    0  0.19370919063E+02  0.44886243572E+02  0.39130350050E+03  0.39434558051E+03  0.00000000000E+00 0. -1.
         -5    1    5    5    0  502  0.17214848753E+01  0.41011371868E+02  0.56893977555E+02  0.70312949126E+02  0.47000000000E+01 0.  1.
         11    1    6    6    0    0  0.96072596619E+01 -0.69990893939E+02  0.25489715970E+03  0.26450630747E+03  0.00000000000E+00 0. -1.
        -12    1    6    6    0    0  0.55083414611E+02 -0.10782732285E+01  0.29035733632E+03  0.29553803138E+03  0.00000000000E+00 0.  1.
</event>
<event>
12    1  0.8406581E-002  0.2127468E+03  0.7818608E-02  0.1142945E+00
         21   -1    0    0  503  502  0.00000000000E+00  0.00000000000E+00  0.65040105704E+03  0.65040105704E+03  0.00000000000E+00 0. -1.
         21   -1    0    0  501  503 -0.00000000000E+00 -0.00000000000E+00 -0.82257336047E+02  0.82257336047E+02  0.00000000000E+00 0. -1.
          6    2    1    2  501    0 -0.87619156556E+02  0.28795497891E+02  0.46580870537E+03  0.51209273150E+03  0.19171572277E+03 0.  0.
         24    2    3    3    0    0 -0.69358465529E+02 -0.14337020257E+02  0.10004336281E+03  0.14331062405E+03  0.74250344318E+02 0.  0.
         -6    2    1    2    0  502  0.87619156556E+02 -0.28795497891E+02  0.10233501562E+03  0.22056566159E+03  0.17225114907E+03 0.  0.
        -24    2    5    5    0    0  0.90317417754E+02  0.37761963229E+02  0.82973360696E+02  0.15103768215E+03  0.79653003873E+02 0.  0.
          5    1    3    3  501    0 -0.18260691027E+02  0.43132518149E+02  0.36576534256E+03  0.36878210745E+03  0.47000000000E+01 0. -1.
        -13    1    4    4    0    0 -0.31092859988E+02  0.18520093404E+02  0.61236846911E+01  0.36705031210E+02  0.00000000000E+00 0.  1.
         14    1    4    4    0    0 -0.38265605541E+02 -0.32857113661E+02  0.93919678122E+02  0.10660559284E+03  0.00000000000E+00 0. -1.
         -5    1    5    5    0  502 -0.26982611983E+01 -0.66557461120E+02  0.19361654927E+02  0.69527979445E+02  0.47000000000E+01 0.  1.
         13    1    6    6    0    0  0.13239978964E+02  0.18470957752E+02 -0.13205457586E+02  0.26284166969E+02  0.00000000000E+00 0. -1.
        -14    1    6    6    0    0  0.77077438791E+02  0.19291005477E+02  0.96178818281E+02  0.12475351518E+03  0.00000000000E+00 0.  1.
</event>
<event>
12    1  0.8406581E-002  0.2231338E+03  0.7818608E-02  0.1132004E+00
         21   -1    0    0  503  502  0.00000000000E+00  0.00000000000E+00  0.10407183509E+03  0.10407183509E+03  0.00000000000E+00 0.  1.
         21   -1    0    0  501  503 -0.00000000000E+00 -0.00000000000E+00 -0.90809384756E+03  0.90809384756E+03  0.00000000000E+00 0. -1.
          6    2    1    2  501    0  0.12447274742E+03  0.69321340340E+02 -0.75105790284E+03  0.78283212077E+03  0.16863938688E+03 0.  0.
         24    2    3    3    0    0  0.73833757585E+02 -0.28370816702E+02 -0.41229744964E+03  0.42661757938E+03  0.75875193981E+02 0.  0.
         -6    2    1    2    0  502 -0.12447274742E+03 -0.69321340340E+02 -0.52964109618E+02  0.22933356188E+03  0.17172586474E+03 0.  0.
        -24    2    5    5    0    0 -0.26601697515E+02 -0.86029070544E+02 -0.81290057609E+01  0.12029151863E+03  0.79343036430E+02 0.  0.
          5    1    3    3  501    0  0.50638989838E+02  0.97692157042E+02 -0.33876045321E+03  0.35621454139E+03  0.47000000000E+01 0. -1.
        -13    1    4    4    0    0 -0.67570415457E+01 -0.28193358224E+02 -0.11295474508E+03  0.11661602589E+03  0.00000000000E+00 0.  1.
         14    1    4    4    0    0  0.80590799130E+02 -0.17745847800E+00 -0.29934270456E+03  0.31000155349E+03  0.00000000000E+00 0. -1.
         -5    1    5    5    0  502 -0.97871049908E+02  0.16707730204E+02 -0.44835103857E+02  0.10904204325E+03  0.47000000000E+01 0.  1.
         11    1    6    6    0    0  0.19659994017E+02 -0.32123211367E+02  0.21452538462E+02  0.43343136478E+02  0.00000000000E+00 0. -1.
        -12    1    6    6    0    0 -0.46261691532E+02 -0.53905859177E+02 -0.29581544223E+02  0.76948382151E+02  0.00000000000E+00 0.  1.
</event>
<event>
12    1  0.8406581E-002  0.2524494E+03  0.7818608E-02  0.1111827E+00
         21   -1    0    0  501  502  0.00000000000E+00  0.00000000000E+00  0.40313922983E+03  0.40313922983E+03  0.00000000000E+00 0. -1.
         21   -1    0    0  502  503 -0.00000000000E+00 -0.00000000000E+00 -0.20339285109E+03  0.20339285109E+03  0.00000000000E+00 0. -1.
         -6    2    1    2    0  503 -0.16446152063E+03 -0.82896407543E+02 -0.43700571269E+02  0.25582263824E+03  0.17209321938E+03 0.  0.
        -24    2    3    3    0    0 -0.16258086696E+03 -0.55862892492E+02 -0.83135062489E+02  0.20774440104E+03  0.81811346957E+02 0.  0.
          6    2    1    2  501    0  0.16446152063E+03  0.82896407543E+02  0.24344695001E+03  0.35070944268E+03  0.17265946127E+03 0.  0.
         24    2    5    5    0    0  0.48368238277E+02  0.67835519843E+02  0.19231121908E+03  0.22287582612E+03  0.75821399729E+02 0.  0.
          5    1    5    5  501    0  0.11609328235E+03  0.15060887700E+02  0.51135730925E+02  0.12783361656E+03  0.47000000000E+01 0. -1.
        -11    1    6    6    0    0 -0.81862670190E+01  0.69443439728E+01  0.91948438398E+02  0.92572966922E+02  0.00000000000E+00 0.  1.
         12    1    6    6    0    0  0.56554505296E+02  0.60891175870E+02  0.10036278068E+03  0.13030285920E+03  0.00000000000E+00 0. -1.
         -5    1    3    3    0  503 -0.18806536699E+01 -0.27033515050E+02  0.39434491221E+02  0.48078237198E+02  0.47000000000E+01 0.  1.
         11    1    4    4    0    0 -0.11779671354E+03 -0.25987256007E+02 -0.15992710558E+02  0.12168471550E+03  0.00000000000E+00 0. -1.
        -12    1    4    4    0    0 -0.44784153420E+02 -0.29875636485E+02 -0.67142351931E+02  0.86059685543E+02  0.00000000000E+00 0.  1.
</event>
<event>
12    1  0.8406581E-002  0.2610077E+03  0.7818608E-02  0.1106853E+00
         21   -1    0    0  501  502  0.00000000000E+00  0.00000000000E+00  0.31658545412E+03  0.31658545412E+03  0.00000000000E+00 0. -1.
         21   -1    0    0  502  503 -0.00000000000E+00 -0.00000000000E+00 -0.33406165378E+03  0.33406165378E+03  0.00000000000E+00 0. -1.
         -6    2    1    2    0  503 -0.19436322365E+03 -0.26060924383E+02 -0.20422237431E+03  0.33140882154E+03  0.17224631879E+03 0.  0.
        -24    2    3    3    0    0 -0.14859245978E+03  0.92754901859E+01 -0.21415503870E+03  0.27254989833E+03  0.79090534566E+02 0.  0.
          6    2    1    2  501    0  0.19436322365E+03  0.26060924383E+02  0.18674617465E+03  0.31923828636E+03  0.16906423409E+03 0.  0.
         24    2    5    5    0    0  0.39076572550E+02 -0.27540993627E+02  0.48347222697E+02  0.10438142814E+03  0.79199392338E+02 0.  0.
          5    1    5    5  501    0  0.15528665110E+03  0.53601918009E+02  0.13839895195E+03  0.21485685822E+03  0.47000000000E+01 0. -1.
        -13    1    6    6    0    0 -0.79674571655E+01 -0.11947910310E+02  0.52707690937E+02  0.54629054708E+02  0.00000000000E+00 0.  1.
         14    1    6    6    0    0  0.47044029716E+02 -0.15593083317E+02 -0.43604682397E+01  0.49752373436E+02  0.00000000000E+00 0. -1.
         -5    1    3    3    0  503 -0.45770763863E+02 -0.35336414568E+02  0.99326643856E+01  0.58858923206E+02  0.47000000000E+01 0.  1.
         11    1    4    4    0    0 -0.65992695773E+02  0.13440571401E+02 -0.36535481514E+02  0.76619359593E+02  0.00000000000E+00 0. -1.
        -12    1    4    4    0    0 -0.82599764010E+02 -0.41650812155E+01 -0.17761955718E+03  0.19593053874E+03  0.00000000000E+00 0.  1.
</event>
<event>
12    1  0.8406581E-002  0.2030838E+03  0.7818608E-02  0.1147191E+00
         21   -1    0    0  501  502  0.00000000000E+00  0.00000000000E+00  0.99965232489E+03  0.99965232489E+03  0.00000000000E+00 0.  1.
         21   -1    0    0  502  503 -0.00000000000E+00 -0.00000000000E+00 -0.68998096148E+02  0.68998096148E+02  0.00000000000E+00 0.  1.
         -6    2    1    2    0  503  0.27270706605E+02  0.10541872706E+03  0.12626194394E+03  0.23901799055E+03  0.17126214369E+03 0.  0.
        -24    2    3    3    0    0  0.53289315272E+02  0.21077179819E+01  0.45845268071E+02  0.10545503029E+03  0.78579776100E+02 0.  0.
          6    2    1    2  501    0 -0.27270706605E+02 -0.10541872706E+03  0.80439228480E+03  0.82963243049E+03  0.17142410107E+03 0.  0.
         24    2    5    5    0    0 -0.78714267037E+02 -0.60202800577E+02  0.62092558631E+03  0.63374205459E+03  0.79120762039E+02 0.  0.
          5    1    5    5  501    0  0.51443560432E+02 -0.45215926483E+02  0.18346669849E+03  0.19589037591E+03  0.47000000000E+01 0. -1.
        -13    1    6    6    0    0 -0.26606688679E+02 -0.66465811439E+02  0.29156439574E+03  0.30022560989E+03  0.00000000000E+00 0.  1.
         14    1    6    6    0    0 -0.52107578358E+02  0.62630108624E+01  0.32936119057E+03  0.33351644469E+03  0.00000000000E+00 0. -1.
         -5    1    3    3    0  503 -0.26018608667E+02  0.10331100908E+03  0.80416675871E+02  0.13356296025E+03  0.47000000000E+01 0.  1.
         11    1    4    4    0    0 -0.18463513355E+02  0.11299068001E+01  0.24282872804E+02  0.30525987722E+02  0.00000000000E+00 0. -1.
        -12    1    4    4    0    0  0.71752828627E+02  0.97781118186E+00  0.21562395266E+02  0.74929042569E+02  0.00000000000E+00 0.  1.
</event>
<event>
12    1  0.8406581E-002  0.1977819E+03  0.7818608E-02  0.1151977E+00
         21   -1    0    0  501  502  0.00000000000E+00  0.00000000000E+00  0.73604180681E+03  0.73604180681E+03  0.00000000000E+00 0. -1.
         21   -1    0    0  502  503 -0.00000000000E+00 -0.00000000000E+00 -0.68072975004E+02  0.68072975004E+02  0.00000000000E+00 0. -1.
         -6    2    1    2    0  503  0.85992629039E+02 -0.43396035754E+02  0.14403598720E+03  0.24467133892E+03  0.17274186034E+03 0.  0.
        -24    2    3    3    0    0  0.78381948435E+02 -0.85910544495E+01  0.17143331838E+02  0.11278826508E+03  0.78802048547E+02 0.  0.
          6    2    1    2  501    0 -0.85992629039E+02  0.43396035754E+02  0.52393284461E+03  0.55944344289E+03  0.17086073852E+03 0.  0.
         24    2    5    5    0    0 -0.56717599941E+02  0.77563045736E+02  0.48066112925E+03  0.49684197925E+03  0.81141351775E+02 0.  0.
          5    1    5    5  501    0 -0.29275029098E+02 -0.34167009982E+02  0.43271715355E+02  0.62601463637E+02  0.47000000000E+01 0. -1.
        -11    1    6    6    0    0 -0.96580288148E+01  0.42997866395E+02  0.74912902593E+02  0.86913963263E+02  0.00000000000E+00 0.  1.
         12    1    6    6    0    0 -0.47059571126E+02  0.34565179341E+02  0.40574822666E+03  0.40992801599E+03  0.00000000000E+00 0. -1.
         -5    1    3    3    0  503  0.76106806043E+01 -0.34804981304E+02  0.12689265536E+03  0.13188307385E+03  0.47000000000E+01 0.  1.
         13    1    4    4    0    0  0.74494611976E+02  0.22577405688E+02  0.18735071355E+01  0.77863319284E+02  0.00000000000E+00 0. -1.
        -14    1    4    4    0    0  0.38873364590E+01 -0.31168460137E+02  0.15269824702E+02  0.34924945791E+02  0.00000000000E+00 0.  1.
</event>
<event>
12    1  0.8406581E-002  0.2681314E+03  0.7818608E-02  0.1102386E+00
         21   -1    0    0  503  502  0.00000000000E+00  0.00000000000E+00  0.26416226289E+04  0.26416226289E+04  0.00000000000E+00 0. -1.
         21   -1    0    0  501  503 -0.00000000000E+00 -0.00000000000E+00 -0.27281936111E+02  0.27281936111E+02  0.00000000000E+00 0.  1.
          6    2    1    2  501    0 -0.72051346460E+02  0.19263272903E+03  0.12316396749E+04  0.12604882881E+04  0.17203392359E+03 0.  0.
         24    2    3    3    0    0 -0.83406340315E+02  0.11786131710E+03  0.10433483273E+04  0.10575217355E+04  0.94491169711E+02 0.  0.
         -6    2    1    2    0  502  0.72051346460E+02 -0.19263272903E+03  0.13827010179E+04  0.14084162769E+04  0.17168441788E+03 0.  0.
        -24    2    5    5    0    0  0.15331954211E+02 -0.11022299351E+03  0.43218423348E+03  0.45263769301E+03  0.75587646819E+02 0.  0.
          5    1    3    3  501    0  0.11354993855E+02  0.74771411925E+02  0.18829134757E+03  0.20296655266E+03  0.47000000000E+01 0. -1.
        -11    1    4    4    0    0 -0.46260963347E+02  0.42744204293E+02  0.19217977830E+03  0.20223800562E+03  0.00000000000E+00 0.  1.
         12    1    4    4    0    0 -0.37145376967E+02  0.75117112807E+02  0.85116854905E+03  0.85528372985E+03  0.00000000000E+00 0. -1.
         -5    1    5    5    0  502  0.56719392248E+02 -0.82409735514E+02  0.95051678442E+03  0.95577858390E+03  0.47000000000E+01 0.  1.
         13    1    6    6    0    0 -0.25019464895E+02 -0.50762854865E+02  0.25948500685E+03  0.26558484490E+03  0.00000000000E+00 0. -1.
        -14    1    6    6    0    0  0.40351419106E+02 -0.59460138646E+02  0.17269922662E+03  0.18705284811E+03  0.00000000000E+00 0.  1.
</event>
<event>
12    1  0.8406581E-002  0.2262913E+03  0.7818608E-02  0.1130266E+00
         21   -1    0    0  501  502  0.00000000000E+00  0.00000000000E+00  0.49907859196E+03  0.49907859196E+03  0.00000000000E+00 0. -1.
         21   -1    0    0  502  503 -0.00000000000E+00 -0.00000000000E+00 -0.60523245521E+03  0.60523245521E+03  0.00000000000E+00 0. -1.
         -6    2    1    2    0  503  0.13760540321E+03  0.52606835575E+02 -0.55736737546E+03  0.59953250786E+03  0.16455427862E+03 0.  0.
        -24    2    3    3    0    0  0.55519990019E+02  0.88557047284E+02 -0.32140330893E+03  0.34708139680E+03  0.78997399331E+02 0.  0.
          6    2    1    2  501    0 -0.13760540321E+03 -0.52606835575E+02  0.45121351221E+03  0.50477853930E+03  0.17177023607E+03 0.  0.
         24    2    5    5    0    0 -0.13369808316E+03 -0.66038237191E+02  0.24354561838E+03  0.29658700771E+03  0.80082199639E+02 0.  0.
          5    1    5    5  501    0 -0.39073200476E+01  0.13431401616E+02  0.20766789383E+03  0.20819153159E+03  0.47000000000E+01 0. -1.
        -13    1    6    6    0    0 -0.51325758515E+02  0.11789018719E+02  0.51872236822E+02  0.73919168031E+02  0.00000000000E+00 0.  1.
         14    1    6    6    0    0 -0.82372324643E+02 -0.77827255910E+02  0.19167338156E+03  0.22266783968E+03  0.00000000000E+00 0. -1.
         -5    1    3    3    0  503  0.82085413187E+02 -0.35950211709E+02 -0.23596406653E+03  0.25245111106E+03  0.47000000000E+01 0.  1.
         11    1    4    4    0    0  0.57133741367E+02  0.18644804037E+02 -0.16993378092E+03  0.18024811516E+03  0.00000000000E+00 0. -1.
        -12    1    4    4    0    0 -0.16137513484E+01  0.69912243247E+02 -0.15146952801E+03  0.16683328164E+03  0.00000000000E+00 0.  1.
</event>
<event>
12    1  0.8406581E-002  0.2023855E+03  0.7818608E-02  0.1149857E+00
         21   -1    0    0  503  502  0.00000000000E+00  0.00000000000E+00  0.51097444812E+02  0.51097444812E+02  0.00000000000E+00 0.  1.
         21   -1    0    0  501  503 -0.00000000000E+00 -0.00000000000E+00 -0.81054895373E+03  0.81054895373E+03  0.00000000000E+00 0. -1.
          6    2    1    2  501    0  0.61897276338E+02  0.65871656702E+02 -0.49320612135E+03  0.53311553503E+03  0.18107884353E+03 0.  0.
         24    2    3    3    0    0  0.30733977492E+02  0.11518564806E+03 -0.36408129551E+03  0.39134695040E+03  0.79905788006E+02 0.  0.
         -6    2    1    2    0  502 -0.61897276338E+02 -0.65871656702E+02 -0.26624538757E+03  0.32853086352E+03  0.16992814336E+03 0.  0.
        -24    2    5    5    0    0 -0.82753417258E+02 -0.14782450802E+02 -0.24124898475E+03  0.26776906855E+03  0.80203195140E+02 0.  0.
          5    1    3    3  501    0  0.31163298847E+02 -0.49313991355E+02 -0.12912482584E+03  0.14176858463E+03  0.47000000000E+01 0. -1.
        -11    1    4    4    0    0  0.14106028048E+02 -0.58160231146E+01 -0.14522930809E+02  0.21064702026E+02  0.00000000000E+00 0.  1.
         12    1    4    4    0    0  0.16627949444E+02  0.12100167117E+03 -0.34955836470E+03  0.37028224837E+03  0.00000000000E+00 0. -1.
         -5    1    5    5    0  502  0.20856140920E+02 -0.51089205899E+02 -0.24996402819E+02  0.60761794965E+02  0.47000000000E+01 0.  1.
         11    1    6    6    0    0  0.15712222719E+02 -0.57053320748E+00 -0.22382897665E+02  0.27353127038E+02  0.00000000000E+00 0. -1.
        -12    1    6    6    0    0 -0.98465639977E+02 -0.14211917595E+02 -0.21886608709E+03  0.24041594151E+03  0.00000000000E+00 0.  1.
</event>
<event>
12    1  0.8406581E-002  0.1744016E+03  0.7818608E-02  0.1173664E+00
         21   -1    0    0  503  502  0.00000000000E+00  0.00000000000E+00  0.72243501243E+02  0.72243501243E+02  0.00000000000E+00 0.  1.
         21   -1    0    0  501  503 -0.00000000000E+00 -0.00000000000E+00 -0.49183291397E+03  0.49183291397E+03  0.00000000000E+00 0.  1.
          6    2    1    2  501    0 -0.28854957570E+02  0.13408067129E+02 -0.31982987171E+03  0.36428981681E+03  0.17147460148E+03 0.  0.
         24    2    3    3    0    0  0.22144336654E+01 -0.59215652257E+01 -0.31716313718E+03  0.32730139657E+03  0.80583993177E+02 0.  0.
         -6    2    1    2    0  502  0.28854957570E+02 -0.13408067129E+02 -0.99759541017E+02  0.19978659841E+03  0.17014797688E+03 0.  0.
        -24    2    5    5    0    0 -0.40066224545E+02 -0.22339502563E+02 -0.88315781837E+02  0.12919658844E+03  0.82387653313E+02 0.  0.
          5    1    3    3  501    0 -0.31069391236E+02  0.19329632355E+02 -0.26667345260E+01  0.36988420239E+02  0.47000000000E+01 0. -1.
        -13    1    4    4    0    0  0.35394123542E+02  0.52758357663E+01 -0.23884545376E+03  0.24151134385E+03  0.00000000000E+00 0.  1.
         14    1    4    4    0    0 -0.33179689876E+02 -0.11197400992E+02 -0.78317683417E+02  0.85790052716E+02  0.00000000000E+00 0. -1.
         -5    1    5    5    0  502  0.68921182116E+02  0.89314354335E+01 -0.11443759180E+02  0.70590009968E+02  0.47000000000E+01 0.  1.
         11    1    6    6    0    0  0.24493984730E+02  0.21987630980E+01 -0.16852136229E+02  0.29812486354E+02  0.00000000000E+00 0. -1.
        -12    1    6    6    0    0 -0.64560209276E+02 -0.24538265661E+02 -0.71463645607E+02  0.99384102083E+02  0.00000000000E+00 0.  1.
</event>
<event>
12    1  0.8406581E-002  0.1919644E+03  0.7818608E-02  0.1156836E+00
         21   -1    0    0  501  502  0.00000000000E+00  0.00000000000E+00  0.15803820028E+04  0.15803820028E+04  0.00000000000E+00 0. -1.
         21   -1    0    0  502  503 -0.00000000000E+00 -0.00000000000E+00 -0.39020979606E+02  0.39020979606E+02  0.00000000000E+00 0. -1.
         -6    2    1    2    0  503 -0.64763778089E+02 -0.56662124691E+02  0.25654842446E+03  0.32041760088E+03  0.17159662449E+03 0.  0.
        -24    2    3    3    0    0 -0.13073859429E+02 -0.37973805349E+02  0.12206838682E+02  0.69926081043E+02  0.55925970769E+02 0.  0.
          6    2    1    2  501    0  0.64763778089E+02  0.56662124691E+02  0.12848125988E+04  0.12989853815E+04  0.17092297746E+03 0.  0.
         24    2    5    5    0    0  0.93567293789E+02  0.38590182292E+02  0.61651603949E+03  0.62980781263E+03  0.79509831222E+02 0.  0.
          5    1    5    5  501    0 -0.28803515701E+02  0.18071942399E+02  0.66829655927E+03  0.66917756892E+03  0.47000000000E+01 0. -1.
        -11    1    6    6    0    0  0.10386613583E+01 -0.29300784529E+01 -0.15518359580E+01  0.34745319107E+01  0.00000000000E+00 0.  1.
         12    1    6    6    0    0  0.92528632431E+02  0.41520260745E+02  0.61806787545E+03  0.62633328071E+03  0.00000000000E+00 0. -1.
         -5    1    3    3    0  503 -0.51689918660E+02 -0.18688319342E+02  0.24434158578E+03  0.25049151984E+03  0.47000000000E+01 0.  1.
         13    1    4    4    0    0 -0.10931322689E+02 -0.52212967563E+02  0.14651764586E+02  0.55320538708E+02  0.00000000000E+00 0. -1.
        -14    1    4    4    0    0 -0.21425367393E+01  0.14239162214E+02 -0.24449259034E+01  0.14605542335E+02  0.00000000000E+00 0.  1.
</event>
<event>
12    1  0.8406581E-002  0.1816308E+03  0.7818608E-02  0.1166314E+00
         21   -1    0    0  503  502  0.00000000000E+00  0.00000000000E+00  0.47972828474E+03  0.47972828474E+03  0.00000000000E+00 0.  1.
         21   -1    0    0  501  503 -0.00000000000E+00 -0.00000000000E+00 -0.11598136262E+03  0.11598136262E+03  0.00000000000E+00 0.  1.
          6    2    1    2  501    0 -0.58710101129E+02 -0.80433021064E+01 -0.85199423255E+01  0.18149670341E+03  0.17133853405E+03 0.  0.
         24    2    3    3    0    0  0.21441857826E+02 -0.27061099529E+02  0.31051409002E+02  0.89987168450E+02  0.77080763552E+02 0.  0.
         -6    2    1    2    0  502  0.58710101129E+02  0.80433021064E+01  0.37226686444E+03  0.41421294395E+03  0.17169209037E+03 0.  0.
        -24    2    5    5    0    0  0.10502114783E+03 -0.84752567544E+01  0.26485896256E+03  0.29599228916E+03  0.79748941850E+02 0.  0.
          5    1    3    3  501    0 -0.80151958955E+02  0.19017797422E+02 -0.39571351328E+02  0.91509534962E+02  0.47000000000E+01 0. -1.
        -11    1    4    4    0    0 -0.10400546903E+02 -0.35455354553E+02 -0.91054708323E+01  0.38054738751E+02  0.00000000000E+00 0.  1.
         12    1    4    4    0    0  0.31842404729E+02  0.83942550241E+01  0.40156879834E+02  0.51932429698E+02  0.00000000000E+00 0. -1.
         -5    1    5    5    0  502 -0.46311046698E+02  0.16518558861E+02  0.10740790189E+03  0.11822065480E+03  0.47000000000E+01 0.  1.
         13    1    6    6    0    0  0.43488631021E+02 -0.81454782020E+01  0.30622806404E+02  0.53808606331E+02  0.00000000000E+00 0. -1.
        -14    1    6    6    0    0  0.61532516806E+02 -0.32977855242E+00  0.23423615615E+03  0.24218368283E+03  0.00000000000E+00 0.  1.
</event>
<event>
12    1  0.8406581E-002  0.1740739E+03  0.7818608E-02  0.1174701E+00
         21   -1    0    0  501  502  0.00000000000E+00  0.00000000000E+00  0.10998748579E+03  0.10998748579E+03  0.00000000000E+00 0.  1.
         21   -1    0    0  502  503 -0.00000000000E+00 -0.00000000000E+00 -0.69168438150E+03  0.69168438150E+03  0.00000000000E+00 0. -1.
         -6    2    1    2    0  503 -0.40408200903E+02 -0.52193785943E+00 -0.60280349358E+03  0.62632304124E+03  0.16515267178E+03 0.  0.
        -24    2    3    3    0    0  0.24737208443E+02 -0.23232376690E+02 -0.45329644227E+03  0.46159861445E+03  0.80274176891E+02 0.  0.
          6    2    1    2  501    0  0.40408200903E+02  0.52193785943E+00  0.21106597864E+02  0.17534882605E+03  0.16931812427E+03 0.  0.
         24    2    5    5    0    0  0.77161273375E+02  0.44580357718E+00 -0.27079431709E+02  0.11456414395E+03  0.80234572394E+02 0.  0.
          5    1    5    5  501    0 -0.36753072473E+02  0.76134282249E-01  0.48186029572E+02  0.60784682104E+02  0.47000000000E+01 0. -1.
        -13    1    6    6    0    0  0.22070150919E+02 -0.28071288099E+02 -0.37363815891E+02  0.51683106670E+02  0.00000000000E+00 0.  1.
         14    1    6    6    0    0  0.55091122457E+02  0.28517091676E+02  0.10284384182E+02  0.62881037279E+02  0.00000000000E+00 0. -1.
         -5    1    3    3    0  503 -0.65145409345E+02  0.22710438831E+02 -0.14950705131E+03  0.16472442679E+03  0.47000000000E+01 0.  1.
         11    1    4    4    0    0 -0.19536821461E+02  0.16897998311E+02 -0.99876157477E+02  0.10316237964E+03  0.00000000000E+00 0. -1.
        -12    1    4    4    0    0  0.44274029904E+02 -0.40130375001E+02 -0.35342028480E+03  0.35843623481E+03  0.00000000000E+00 0.  1.
</event>
<event>
12    1  0.8406581E-002  0.1754305E+03  0.7818608E-02  0.1172494E+00
         21   -1    0    0  503  502  0.00000000000E+00  0.00000000000E+00  0.18187095712E+03  0.18187095712E+03  0.00000000000E+00 0.  1.
         21   -1    0    0  501  503 -0.00000000000E+00 -0.00000000000E+00 -0.20541410223E+03  0.20541410223E+03  0.00000000000E+00 0.  1.
          6    2    1    2  501    0 -0.26738464416E+02  0.20534940052E+02 -0.93910387630E+02  0.19898494956E+03  0.17216044843E+03 0.  0.
         24    2    3    3    0    0 -0.81210954217E+02  0.87148753791E+01 -0.34027678364E+02  0.11703987684E+03  0.76611237670E+02 0.  0.
         -6    2    1    2    0  502  0.26738464416E+02 -0.20534940052E+02  0.70367242520E+02  0.18830010979E+03  0.17137314050E+03 0.  0.
        -24    2    5    5    0    0  0.27214977543E+02 -0.21354258766E+02 -0.27646537977E+02  0.90169128365E+02  0.78546045590E+02 0.  0.
          5    1    3    3  501    0  0.54472489801E+02  0.11820064673E+02 -0.59882709266E+02  0.81945072720E+02  0.47000000000E+01 0. -1.
        -13    1    4    4    0    0 -0.49665813458E+02 -0.74944061350E+00 -0.57957115327E+02  0.76330085187E+02  0.00000000000E+00 0.  1.
         14    1    4    4    0    0 -0.31545140760E+02  0.94643159926E+01  0.23929436963E+02  0.40709791649E+02  0.00000000000E+00 0. -1.
         -5    1    5    5    0  502 -0.47651312738E+00  0.81931871469E+00  0.98013780496E+02  0.98130981423E+02  0.47000000000E+01 0.  1.
         11    1    6    6    0    0  0.36812471674E+02  0.99755006588E+01 -0.39890085259E+02  0.55189560482E+02  0.00000000000E+00 0. -1.
        -12    1    6    6    0    0 -0.95974941308E+01 -0.31329759425E+02  0.12243547283E+02  0.34979567883E+02  0.00000000000E+00 0.  1.
</event>
<event>
12    1  0.8406581E-002  0.2397196E+03  0.7818608E-02  0.1121768E+00
         21   -1    0    0  503  502  0.00000000000E+00  0.00000000000E+00  0.63347624498E+03  0.63347624498E+03  0.00000000000E+00 0. -1.
         21   -1    0    0  501  503 -0.00000000000E+00 -0.00000000000E+00 -0.10944551970E+03  0.10944551970E+03  0.00000000000E+00 0.  1.
          6    2    1    2  501    0 -0.38441422883E+02 -0.16269253481E+03  0.97706416648E+02  0.25886681654E+03  0.17181059623E+03 0.  0.
         24    2    3    3    0    0 -0.85989991954E+02 -0.84131929752E+02  0.36421673085E+02  0.14836548225E+03  0.78824601059E+02 0.  0.
         -6    2    1    2    0  502  0.38441422883E+02  0.16269253481E+03  0.42632430863E+03  0.48405494813E+03  0.15687629778E+03 0.  0.
        -24    2    5    5    0    0 -0.24151526565E+02  0.80686433892E+02  0.29848404813E+03  0.31971353487E+03  0.77655782398E+02 0.  0.
          5    1    3    3  501    0  0.47548569071E+02 -0.78560605058E+02  0.61284743563E+02  0.11050133430E+03  0.47000000000E+01 0. -1.
        -11    1    4    4    0    0 -0.35844818923E+02 -0.85803715833E+02  0.30396987347E+02  0.97832027139E+02  0.00000000000E+00 0.  1.
         12    1    4    4    0    0 -0.50145173030E+02  0.16717860806E+01  0.60246857384E+01  0.50533455108E+02  0.00000000000E+00 0. -1.
         -5    1    5    5    0  502  0.62592949447E+02  0.82006100919E+02  0.12784026050E+03  0.16434141326E+03  0.47000000000E+01 0.  1.
         13    1    6    6    0    0 -0.11694699330E+02 -0.42010510205E+01  0.41054100230E+01  0.13086986419E+02  0.00000000000E+00 0. -1.
        -14    1    6    6    0    0 -0.12456827235E+02  0.84887484912E+02  0.29437863811E+03  0.30662654845E+03  0.00000000000E+00 0.  1.
</event>
<event>
12    1  0.8406581E-002  0.2059194E+03  0.7818608E-02  0.1145557E+00
         21   -1    0    0  503  502  0.00000000000E+00  0.00000000000E+00  0.86484112679E+02  0.86484112679E+02  0.00000000000E+00 0.  1.
         21   -1    0    0  501  503 -0.00000000000E+00 -0.00000000000E+00 -0.11603195146E+04  0.11603195146E+04  0.00000000000E+00 0.  1.
          6    2    1    2  501    0  0.13162708298E+01  0.10579068715E+03 -0.10154721938E+04  0.10361402218E+04  0.17666176914E+03 0.  0.
         24    2    3    3    0    0 -0.43897555608E+02  0.55911295667E+02 -0.86383887420E+03  0.87016734020E+03  0.76944986838E+02 0.  0.
         -6    2    1    2    0  502 -0.13162708298E+01 -0.10579068715E+03 -0.58363208116E+02  0.21066340553E+03  0.17256710090E+03 0.  0.
        -24    2    5    5    0    0 -0.36141445130E+02  0.19488687827E+01 -0.12500943438E+01  0.83759495264E+02  0.75525414037E+02 0.  0.
          5    1    3    3  501    0  0.45213826438E+02  0.49879391479E+02 -0.15163331965E+03  0.16597288159E+03  0.47000000000E+01 0. -1.
        -13    1    4    4    0    0 -0.10127837068E+02  0.15024448318E+02 -0.63523641096E+03  0.63549477177E+03  0.00000000000E+00 0.  1.
         14    1    4    4    0    0 -0.33769718540E+02  0.40886847350E+02 -0.22860246324E+03  0.23467256843E+03  0.00000000000E+00 0. -1.
         -5    1    5    5    0  502  0.34825174300E+02 -0.10773955593E+03 -0.57113113772E+02  0.12690391027E+03  0.47000000000E+01 0.  1.
         11    1    6    6    0    0  0.18957618381E+02 -0.13006926945E+02 -0.11575898719E+02  0.25740490951E+02  0.00000000000E+00 0. -1.
        -12    1    6    6    0    0 -0.55099063510E+02  0.14955795728E+02  0.10325804375E+02  0.58019004314E+02  0.00000000000E+00 0.  1.
</event>
<event>
12    1  0.8406581E-002  0.1794051E+03  0.7818608E-02  0.1172181E+00
         21   -1    0    0  503  502  0.00000000000E+00  0.00000000000E+00  0.39702793733E+02  0.39702793733E+02  0.00000000000E+00 0. -1.
         21   -1    0    0  501  503 -0.00000000000E+00 -0.00000000000E+00 -0.93947298633E+03  0.93947298633E+03  0.00000000000E+00 0. -1.
          6    2    1    2  501    0 -0.22151645370E+02 -0.18657271273E+02 -0.68817461614E+03  0.71117542531E+03  0.17705195314E+03 0.  0.
         24    2    3    3    0    0 -0.79186446143E+02 -0.17612391321E+02 -0.55036056180E+03  0.56194786805E+03  0.79422722456E+02 0.  0.
         -6    2    1    2    0  502  0.22151645370E+02  0.18657271273E+02 -0.21159557647E+03  0.26800035476E+03  0.16190340640E+03 0.  0.
        -24    2    5    5    0    0  0.68505519208E+02  0.22994230598E+02 -0.18507956053E+03  0.21421671471E+03  0.80078813242E+02 0.  0.
          5    1    3    3  501    0  0.57034800773E+02 -0.10448799521E+01 -0.13781405434E+03  0.14922755726E+03  0.47000000000E+01 0. -1.
        -13    1    4    4    0    0  0.49078124098E+01  0.19780668916E+02 -0.13367376335E+03  0.13521847689E+03  0.00000000000E+00 0.  1.
         14    1    4    4    0    0 -0.84094258553E+02 -0.37393060236E+02 -0.41668679845E+03  0.42672939116E+03  0.00000000000E+00 0. -1.
         -5    1    5    5    0  502 -0.46353873838E+02 -0.43369593249E+01 -0.26516015935E+02  0.53783640051E+02  0.47000000000E+01 0.  1.
         11    1    6    6    0    0  0.78078520114E+02  0.25103476503E+02 -0.10352539393E+03  0.13207553530E+03  0.00000000000E+00 0. -1.
        -12    1    6    6    0    0 -0.95730009060E+01 -0.21092459053E+01 -0.81554166600E+02  0.82141179407E+02  0.00000000000E+00 0.  1.
</event>
<event>
12    1  0.8406581E-002  0.2088886E+03  0.7818608E-02  0.1142469E+00
         21   -1    0    0  503  502  0.00000000000E+00  0.00000000000E+00  0.48872277756E+03  0.48872277756E+03  0.00000000000E+00 0. -1.
         21   -1    0    0  501  503 -0.00000000000E+00 -0.00000000000E+00 -0.13126263579E+03  0.13126263579E+03  0.00000000000E+00 0. -1.
          6    2    1    2  501    0 -0.11074911776E+03 -0.42172335406E+02  0.33608202391E+01  0.20891560034E+03  0.17201906870E+03 0.  0.
         24    2    3    3    0    0 -0.78915450030E+02 -0.12048689806E+02  0.67600662559E+02  0.13100755348E+03  0.78868943892E+02 0.  0.
         -6    2    1    2    0  502  0.11074911776E+03  0.42172335406E+02  0.35409932153E+03  0.41106981301E+03  0.17189586587E+03 0.  0.
        -24    2    5    5    0    0  0.13083829787E+03  0.11354134042E+02  0.33552727145E+03  0.36959273817E+03  0.82296206915E+02 0.  0.
          5    1    3    3  501    0 -0.31833667728E+02 -0.30123645601E+02 -0.64239842319E+02  0.77908046866E+02  0.47000000000E+01 0. -1.
        -11    1    4    4    0    0 -0.50545522435E+02  0.20206691418E+02  0.69172003677E+02  0.88022305747E+02  0.00000000000E+00 0.  1.
         12    1    4    4    0    0 -0.28369927595E+02 -0.32255381224E+02 -0.15713411185E+01  0.42985247732E+02  0.00000000000E+00 0. -1.
         -5    1    5    5    0  502 -0.20089180110E+02  0.30818201365E+02  0.18572050075E+02  0.41477074835E+02  0.47000000000E+01 0.  1.
         11    1    6    6    0    0  0.73205269289E+02  0.45676331627E+02  0.16189895605E+03  0.18345738114E+03  0.00000000000E+00 0. -1.
        -12    1    6    6    0    0  0.57633028580E+02 -0.34322197585E+02  0.17362831540E+03  0.18613535704E+03  0.00000000000E+00 0.  1.
</event>
<event>
12    1  0.8406581E-002  0.2172672E+03  0.7818608E-02  0.1136304E+00
         21   -1    0    0  501  502  0.00000000000E+00  0.00000000000E+00  0.91847055536E+03  0.91847055536E+03  0.00000000000E+00 0.  1.
         21   -1    0    0  502  503 -0.00000000000E+00 -0.00000000000E+00 -0.52035249367E+02  0.52035249367E+02  0.00000000000E+00 0.  1.
         -6    2    1    2    0  503 -0.13116537329E+03  0.12439378297E+02  0.36091783941E+03  0.42027591661E+03  0.17032635144E+03 0.  0.
        -24    2    3    3    0    0 -0.97699154364E+02  0.13492445042E+02  0.12214568996E+03  0.17912176236E+03  0.86243059654E+02 0.  0.
          6    2    1    2  501    0  0.13116537329E+03 -0.12439378297E+02  0.50551746658E+03  0.55022988811E+03  0.17275973915E+03 0.  0.
         24    2    5    5    0    0  0.11892554024E+03 -0.37322237844E+02  0.23229431099E+03  0.27556290254E+03  0.80237352774E+02 0.  0.
          5    1    5    5  501    0  0.12239833056E+02  0.24882859547E+02  0.27322315559E+03  0.27466698557E+03  0.47000000000E+01 0. -1.
        -11    1    6    6    0    0  0.57531884146E+02 -0.56615284399E+02  0.10054068921E+03  0.12893268906E+03  0.00000000000E+00 0.  1.
         12    1    6    6    0    0  0.61393656092E+02  0.19293046556E+02  0.13175362179E+03  0.14663021349E+03  0.00000000000E+00 0. -1.
         -5    1    3    3    0  503 -0.33466218930E+02 -0.10530667449E+01  0.23877214945E+03  0.24115415425E+03  0.47000000000E+01 0.  1.
         13    1    4    4    0    0 -0.10396860696E+03  0.34137136123E+02  0.10285341512E+03  0.15017869455E+03  0.00000000000E+00 0. -1.
        -14    1    4    4    0    0  0.62694525935E+01 -0.20644691081E+02  0.19292274836E+02  0.28943067806E+02  0.00000000000E+00 0.  1.
</event>
<event>
12    1  0.8406581E-002  0.1728324E+03  0.7818608E-02  0.1176388E+00
         21   -1    0    0  501  502  0.00000000000E+00  0.00000000000E+00  0.66553744818E+02  0.66553744818E+02  0.00000000000E+00 0.  1.
         21   -1    0    0  502  503 -0.00000000000E+00 -0.00000000000E+00 -0.45090253981E+03  0.45090253981E+03  0.00000000000E+00 0.  1.
         -6    2    1    2    0  503 -0.66684608796E+01 -0.11089578734E+02 -0.23871510701E+03  0.29144695759E+03  0.16670026890E+03 0.  0.
        -24    2    3    3    0    0 -0.49031132800E+02  0.37753718212E+01 -0.22310447732E+03  0.24368353554E+03  0.84780612620E+02 0.  0.
          6    2    1    2  501    0  0.66684608796E+01  0.11089578734E+02 -0.14563368799E+03  0.22600932704E+03  0.17234731708E+03 0.  0.
         24    2    5    5    0    0  0.31451334353E+02 -0.20330350402E+02 -0.16054332917E+03  0.18304666691E+03  0.79557602698E+02 0.  0.
          5    1    5    5  501    0 -0.24782873473E+02  0.31419929137E+02  0.14909641184E+02  0.42962660122E+02  0.47000000000E+01 0. -1.
        -11    1    6    6    0    0 -0.61997591277E+01 -0.39175614131E+02 -0.44548695922E+02  0.59646894840E+02  0.00000000000E+00 0.  1.
         12    1    6    6    0    0  0.37651093481E+02  0.18845263729E+02 -0.11599463325E+03  0.12339977207E+03  0.00000000000E+00 0. -1.
         -5    1    3    3    0  503  0.42362671921E+02 -0.14864950556E+02 -0.15610629689E+02  0.47763422057E+02  0.47000000000E+01 0.  1.
         13    1    4    4    0    0 -0.22164506605E+02 -0.28310356907E+02 -0.18019024329E+03  0.18374238879E+03  0.00000000000E+00 0. -1.
        -14    1    4    4    0    0 -0.26866626195E+02  0.32085728728E+02 -0.42914234028E+02  0.59941146747E+02  0.00000000000E+00 0.  1.
</event>
<event>
12    1  0.8406581E-002  0.2413955E+03  0.7818608E-02  0.1119442E+00
         21   -1    0    0  503  502  0.00000000000E+00  0.00000000000E+00  0.13500932160E+03  0.13500932160E+03  0.00000000000E+00 0. -1.
         21   -1    0    0  501  503 -0.00000000000E+00 -0.00000000000E+00 -0.14445577101E+04  0.14445577101E+04  0.00000000000E+00 0.  1.
          6    2    1    2  501    0 -0.83080317068E+02 -0.14329635925E+03 -0.13195177540E+04  0.13414167528E+04  0.17560072877E+03 0.  0.
         24    2    3    3    0    0  0.15182984769E+02 -0.69763550416E+02 -0.80921722770E+03  0.81654394193E+03  0.82547025987E+02 0.  0.
         -6    2    1    2    0  502  0.83080317068E+02  0.14329635925E+03  0.99693654855E+01  0.23815027890E+03  0.17082148995E+03 0.  0.
        -24    2    5    5    0    0  0.10139598476E+03  0.68401810666E+02 -0.33023373352E+02  0.14974709635E+03  0.79835432302E+02 0.  0.
          5    1    3    3  501    0 -0.98263301837E+02 -0.73532808838E+02 -0.51030052633E+03  0.52487281091E+03  0.47000000000E+01 0. -1.
        -13    1    4    4    0    0 -0.95658059818E+01 -0.76800656402E+02 -0.70333340519E+03  0.70757877605E+03  0.00000000000E+00 0.  1.
         14    1    4    4    0    0  0.24748790751E+02  0.70371059859E+01 -0.10588382251E+03  0.10896516588E+03  0.00000000000E+00 0. -1.
         -5    1    5    5    0  502 -0.18315667690E+02  0.74894548589E+02  0.42992738838E+02  0.88403182544E+02  0.47000000000E+01 0.  1.
         13    1    6    6    0    0  0.41030849191E+02  0.65803880001E+02  0.60647906261E+01  0.77784721468E+02  0.00000000000E+00 0. -1.
        -14    1    6    6    0    0  0.60365135566E+02  0.25979306645E+01 -0.39088163978E+02  0.71962374883E+02  0.00000000000E+00 0.  1.
</event>
<event>
12    1  0.8406581E-002  0.1802643E+03  0.7818608E-02  0.1167775E+00
         21   -1    0    0  503  502  0.00000000000E+00  0.00000000000E+00  0.38322797890E+02  0.38322797890E+02  0.00000000000E+00 0. -1.
         21   -1    0    0  501  503 -0.00000000000E+00 -0.00000000000E+00 -0.23576538048E+04  0.23576538048E+04  0.00000000000E+00 0. -1.
          6    2    1    2  501    0  0.44159386262E+02 -0.25957861134E+02 -0.21208002359E+04  0.21284475192E+04  0.17283327001E+03 0.  0.
         24    2    3    3    0    0  0.36900106566E+02  0.51782108345E+02 -0.11940348705E+04  0.11983871273E+04  0.79808710528E+02 0.  0.
         -6    2    1    2    0  502 -0.44159386262E+02  0.25957861134E+02 -0.19853077098E+03  0.26752908352E+03  0.17185308129E+03 0.  0.
        -24    2    5    5    0    0 -0.57845512668E+02  0.44485459754E+02 -0.52499660182E+02  0.11961776790E+03  0.78912208257E+02 0.  0.
          5    1    3    3  501    0  0.72592796951E+01 -0.77739969479E+02 -0.92676536541E+03  0.93006039187E+03  0.47000000000E+01 0. -1.
        -13    1    4    4    0    0 -0.91874808715E+01  0.37175370461E-03 -0.17094190717E+02  0.19406729791E+02  0.00000000000E+00 0.  1.
         14    1    4    4    0    0  0.46087587438E+02  0.51781736592E+02 -0.11769406798E+04  0.11789803975E+04  0.00000000000E+00 0. -1.
         -5    1    5    5    0  502  0.13686126406E+02 -0.18527598620E+02 -0.14603111080E+03  0.14791131562E+03  0.47000000000E+01 0.  1.
         13    1    6    6    0    0 -0.21938860366E+02  0.28998294116E+02 -0.68352206499E+02  0.77422469536E+02  0.00000000000E+00 0. -1.
        -14    1    6    6    0    0 -0.35906652302E+02  0.15487165638E+02  0.15852546317E+02  0.42195298360E+02  0.00000000000E+00 0.  1.
</event>
<event>
12    1  0.8406581E-002  0.1915079E+03  0.7818608E-02  0.1157148E+00
         21   -1    0    0  501  502  0.00000000000E+00  0.00000000000E+00  0.90535960664E+02  0.90535960664E+02  0.00000000000E+00 0.  1.
         21   -1    0    0  502  503 -0.00000000000E+00 -0.00000000000E+00 -0.47037029016E+03  0.47037029016E+03  0.00000000000E+00 0. -1.
         -6    2    1    2    0  503 -0.90435066516E+02 -0.57170814703E+01 -0.29461848966E+03  0.35129467408E+03  0.16851322593E+03 0.  0.
        -24    2    3    3    0    0 -0.47368232275E+02  0.54258853637E+02 -0.16490954831E+03  0.20196830511E+03  0.91696589461E+02 0.  0.
          6    2    1    2  501    0  0.90435066516E+02  0.57170814703E+01 -0.85215839835E+02  0.20961157674E+03  0.16871303290E+03 0.  0.
         24    2    5    5    0    0  0.11147593752E+03 -0.36717235982E+02 -0.55522918257E+02  0.15351211915E+03  0.81903212448E+02 0.  0.
          5    1    5    5  501    0 -0.21040871007E+02  0.42434317452E+02 -0.29692921578E+02  0.56099457593E+02  0.47000000000E+01 0. -1.
        -11    1    6    6    0    0  0.55809574614E+02 -0.21410902862E+02  0.15725431303E+02  0.61809583154E+02  0.00000000000E+00 0.  1.
         12    1    6    6    0    0  0.55666362909E+02 -0.15306333119E+02 -0.71248349560E+02  0.91702535996E+02  0.00000000000E+00 0. -1.
         -5    1    3    3    0  503 -0.43066834241E+02 -0.59975935107E+02 -0.12970894135E+03  0.14932636897E+03  0.47000000000E+01 0.  1.
         11    1    4    4    0    0 -0.68385358155E+02  0.15426716260E+02 -0.12007437564E+03  0.13904098845E+03  0.00000000000E+00 0. -1.
        -12    1    4    4    0    0  0.21017125880E+02  0.38832137377E+02 -0.44835172673E+02  0.62927316661E+02  0.00000000000E+00 0.  1.
</event>
<event>
12    1  0.8406581E-002  0.1823617E+03  0.7818608E-02  0.1170211E+00
         21   -1    0    0  501  502  0.00000000000E+00  0.00000000000E+00  0.24501839806E+03  0.24501839806E+03  0.00000000000E+00 0. -1.
         21   -1    0    0  502  503 -0.00000000000E+00 -0.00000000000E+00 -0.14316741410E+03  0.14316741410E+03  0.00000000000E+00 0. -1.
         -6    2    1    2    0  503 -0.39413253582E+02  0.23222963948E+02 -0.20809368465E+02  0.18354515950E+03  0.17653069180E+03 0.  0.
        -24    2    3    3    0    0 -0.72009598494E+02  0.12195106914E+02 -0.65309263700E+02  0.12709636848E+03  0.80957297676E+02 0.  0.
          6    2    1    2  501    0  0.39413253582E+02 -0.23222963948E+02  0.12266035243E+03  0.20464065266E+03  0.15728802895E+03 0.  0.
         24    2    5    5    0    0 -0.15949662012E+02  0.18154495045E+02  0.10248263000E+03  0.13248542403E+03  0.80409705392E+02 0.  0.
          5    1    5    5  501    0  0.55362915594E+02 -0.41377458993E+02  0.20177722431E+02  0.72155228627E+02  0.47000000000E+01 0. -1.
        -11    1    6    6    0    0 -0.29585416083E+02  0.57544165031E+01  0.18691450079E+01  0.30197745895E+02  0.00000000000E+00 0.  1.
         12    1    6    6    0    0  0.13635754071E+02  0.12400078542E+02  0.10061348499E+03  0.10228767814E+03  0.00000000000E+00 0. -1.
         -5    1    3    3    0  503  0.32596344912E+02  0.11027857034E+02  0.44499895235E+02  0.56448791026E+02  0.47000000000E+01 0.  1.
         11    1    4    4    0    0  0.11100847937E+01  0.32550820757E+02 -0.13826039432E+02  0.35382871372E+02  0.00000000000E+00 0. -1.
        -12    1    4    4    0    0 -0.73119683288E+02 -0.20355713842E+02 -0.51483224268E+02  0.91713497104E+02  0.00000000000E+00 0.  1.
</event>
<event>
12    1  0.8406581E-002  0.1985650E+03  0.7818608E-02  0.1151702E+00
         21   -1    0    0  503  502  0.00000000000E+00  0.00000000000E+00  0.18095311726E+03  0.18095311726E+03  0.00000000000E+00 0. -1.
         21   -1    0    0  501  503 -0.00000000000E+00 -0.00000000000E+00 -0.46269415970E+03  0.46269415970E+03  0.00000000000E+00 0.  1.
          6    2    1    2  501    0 -0.47138041798E+02 -0.82894884205E+02 -0.37733816885E+03  0.42639435621E+03  0.17416801234E+03 0.  0.
         24    2    3    3    0    0 -0.87921291918E+02 -0.91207288676E+02 -0.33309673542E+03  0.36547010824E+03  0.81031116173E+02 0.  0.
         -6    2    1    2    0  502  0.47138041798E+02  0.82894884205E+02  0.95597126413E+02  0.21725292074E+03  0.17019537062E+03 0.  0.
        -24    2    5    5    0    0  0.59114253660E+02  0.73850807237E+01  0.99256037240E+02  0.14056760467E+03  0.79739928215E+02 0.  0.
          5    1    3    3  501    0  0.40783250120E+02  0.83124044713E+01 -0.44241433432E+02  0.60924247969E+02  0.47000000000E+01 0. -1.
        -13    1    4    4    0    0 -0.64268188721E+02 -0.12220316000E+02 -0.11496265261E+03  0.13227300442E+03  0.00000000000E+00 0.  1.
         14    1    4    4    0    0 -0.23653103197E+02 -0.78986972676E+02 -0.21813408281E+03  0.23319710382E+03  0.00000000000E+00 0. -1.
         -5    1    5    5    0  502 -0.11976211862E+02  0.75509803481E+02 -0.36589108263E+01  0.76685316070E+02  0.47000000000E+01 0.  1.
         13    1    6    6    0    0  0.44717516704E+02 -0.33576109616E+02  0.51440713629E+02  0.75981303331E+02  0.00000000000E+00 0. -1.
        -14    1    6    6    0    0  0.14396736956E+02  0.40961190340E+02  0.47815323610E+02  0.64586301342E+02  0.00000000000E+00 0.  1.
</event>
<event>
12    1  0.8406581E-002  0.2045776E+03  0.7818608E-02  0.1146963E+00
         21   -1    0    0  501  502  0.00000000000E+00  0.00000000000E+00  0.12512537751E+03  0.12512537751E+03  0.00000000000E+00 0. -1.
         21   -1    0    0  502  503 -0.00000000000E+00 -0.00000000000E+00 -0.46500758558E+03  0.46500758558E+03  0.00000000000E+00 0. -1.
         -6    2    1    2    0  503 -0.90472717563E+02 -0.63663278148E+02 -0.10329965093E+02  0.20483825677E+03  0.17208625061E+03 0.  0.
        -24    2    3    3    0    0 -0.11953372908E+03 -0.85598086486E+02 -0.48713260296E+01  0.16772269471E+03  0.80571879122E+02 0.  0.
          6    2    1    2  501    0  0.90472717563E+02  0.63663278148E+02 -0.32955224298E+03  0.38529470632E+03  0.16615957468E+03 0.  0.
         24    2    5    5    0    0  0.82622241477E+02  0.10575663157E+03 -0.26222620516E+03  0.30536745349E+03  0.80472349703E+02 0.  0.
          5    1    5    5  501    0  0.78504760861E+01 -0.42093353425E+02 -0.67326037820E+02  0.79927252836E+02  0.47000000000E+01 0. -1.
        -13    1    6    6    0    0  0.41633833329E+02  0.85477342619E+02 -0.23152485678E+03  0.25028685840E+03  0.00000000000E+00 0.  1.
         14    1    6    6    0    0  0.40988408148E+02  0.20279288955E+02 -0.30701348381E+02  0.55080595090E+02  0.00000000000E+00 0. -1.
         -5    1    3    3    0  503  0.29061011513E+02  0.21934808337E+02 -0.54586390630E+01  0.37115562065E+02  0.47000000000E+01 0.  1.
         11    1    4    4    0    0 -0.97492618202E+02 -0.82246368570E+02  0.25471923039E+02  0.13006957604E+03  0.00000000000E+00 0. -1.
        -12    1    4    4    0    0 -0.22041110874E+02 -0.33517179157E+01 -0.30343249068E+02  0.37653118670E+02  0.00000000000E+00 0.  1.
</event>
<event>
12    1  0.8406581E-002  0.2326649E+03  0.7818608E-02  0.1125004E+00
         21   -1    0    0  503  502  0.00000000000E+00  0.00000000000E+00  0.41808080468E+03  0.41808080468E+03  0.00000000000E+00 0.  1.
         21   -1    0    0  501  503 -0.00000000000E+00 -0.00000000000E+00 -0.51501214046E+03  0.51501214046E+03  0.00000000000E+00 0.  1.
          6    2    1    2  501    0 -0.84311551987E+01 -0.15645374618E+03 -0.45253743998E+03  0.50884487455E+03  0.17200032763E+03 0.  0.
         24    2    3    3    0    0  0.25693299711E+02 -0.31215408867E+02 -0.29540780792E+03  0.30497989270E+03  0.64128110601E+02 0.  0.
         -6    2    1    2    0  502  0.84311551987E+01  0.15645374618E+03  0.35560610420E+03  0.42424807059E+03  0.17024060910E+03 0.  0.
        -24    2    5    5    0    0  0.61901149449E+02  0.91343636423E+02  0.15810592624E+03  0.20947661772E+03  0.81899677893E+02 0.  0.
          5    1    3    3  501    0 -0.34124454909E+02 -0.12523833732E+03 -0.15712963205E+03  0.20386498185E+03  0.47000000000E+01 0. -1.
        -11    1    4    4    0    0  0.32143327393E+02 -0.40023550116E+02 -0.28599417319E+03  0.29056452839E+03  0.00000000000E+00 0.  1.
         12    1    4    4    0    0 -0.64500276829E+01  0.88081412491E+01 -0.94136347371E+01  0.14415364315E+02  0.00000000000E+00 0. -1.
         -5    1    5    5    0  502 -0.53469994250E+02  0.65110109762E+02  0.19750017795E+03  0.21477145288E+03  0.47000000000E+01 0.  1.
         13    1    6    6    0    0 -0.16835080247E+02  0.40049432529E+02  0.50292832706E+02  0.66458603615E+02  0.00000000000E+00 0. -1.
        -14    1    6    6    0    0  0.78736229695E+02  0.51294203893E+02  0.10781309354E+03  0.14301801410E+03  0.00000000000E+00 0.  1.
</event>
<event>
12    1  0.8406581E-002  0.2229622E+03  0.7818608E-02  0.1131864E+00
         21   -1    0    0  501  502  0.00000000000E+00  0.00000000000E+00  0.31273728012E+03  0.31273728012E+03  0.00000000000E+00 0. -1.
         21   -1    0    0  502  503 -0.00000000000E+00 -0.00000000000E+00 -0.15861844452E+03  0.15861844452E+03  0.00000000000E+00 0.  1.
         -6    2    1    2    0  503 -0.45991877257E+02  0.13405343496E+03  0.66308484903E+02  0.23172515255E+03  0.17092148769E+03 0.  0.
        -24    2    3    3    0    0 -0.71181366888E+02  0.25280816799E+02  0.22427074829E+02  0.11166824521E+03  0.79125954102E+02 0.  0.
          6    2    1    2  501    0  0.45991877257E+02 -0.13405343496E+03  0.87810350690E+02  0.23963057209E+03  0.17212372642E+03 0.  0.
         24    2    5    5    0    0  0.46198794892E+02 -0.11121892073E+03  0.12815289673E+03  0.19303584196E+03  0.79597075089E+02 0.  0.
          5    1    5    5  501    0 -0.20691763441E+00 -0.22834514233E+02 -0.40342546042E+02  0.46594730135E+02  0.47000000000E+01 0. -1.
        -13    1    6    6    0    0  0.23732231842E+02 -0.42963849715E+02  0.35665161437E+01  0.49212104689E+02  0.00000000000E+00 0.  1.
         14    1    6    6    0    0  0.22466563049E+02 -0.68255071013E+02  0.12458638059E+03  0.14382373727E+03  0.00000000000E+00 0. -1.
         -5    1    3    3    0  503  0.25189489630E+02  0.10877261816E+03  0.43881410073E+02  0.12005690734E+03  0.47000000000E+01 0.  1.
         11    1    4    4    0    0  0.15657858275E+01  0.18366467798E+02  0.33032594267E+02  0.37827650054E+02  0.00000000000E+00 0. -1.
        -12    1    4    4    0    0 -0.72747152715E+02  0.69143490012E+01 -0.10605519437E+02  0.73840595155E+02  0.00000000000E+00 0.  1.
</event>
<event>
12    1  0.8406581E-002  0.1991003E+03  0.7818608E-02  0.1150943E+00
         21   -1    0    0  503  502  0.00000000000E+00  0.00000000000E+00  0.16986005370E+04  0.16986005370E+04  0.00000000000E+00 0. -1.
         21   -1    0    0  501  503 -0.00000000000E+00 -0.00000000000E+00 -0.29396969259E+02  0.29396969259E+02  0.00000000000E+00 0. -1.
          6    2    1    2  501    0 -0.32184436450E+02  0.95104476899E+02  0.43113354473E+03  0.47402051425E+03  0.16952467390E+03 0.  0.
         24    2    3    3    0    0 -0.60329939399E+01  0.78506187678E+02  0.42805458130E+03  0.44254081974E+03  0.80075177484E+02 0.  0.
         -6    2    1    2    0  502  0.32184436450E+02 -0.95104476899E+02  0.12380700230E+04  0.12539769920E+04  0.17193084403E+03 0.  0.
        -24    2    5    5    0    0 -0.41577472411E+02 -0.86608285257E+02  0.76965521302E+03  0.77969065582E+03  0.79490191616E+02 0.  0.
          5    1    3    3  501    0 -0.26151442510E+02  0.16598289221E+02  0.30789634318E+01  0.31479694507E+02  0.47000000000E+01 0. -1.
        -13    1    4    4    0    0  0.25931108425E+02 -0.15762137725E+01  0.91554335565E+02  0.95168814192E+02  0.00000000000E+00 0.  1.
         14    1    4    4    0    0 -0.31964102365E+02  0.80082401450E+02  0.33650024573E+03  0.34737200555E+03  0.00000000000E+00 0. -1.
         -5    1    5    5    0  502  0.73761908861E+02 -0.84961916418E+01  0.46841480996E+03  0.47428633615E+03  0.47000000000E+01 0.  1.
         13    1    6    6    0    0 -0.35282423954E+02 -0.12317132791E+02  0.11780341979E+03  0.12358886243E+03  0.00000000000E+00 0. -1.
        -14    1    6    6    0    0 -0.62950484568E+01 -0.74291152466E+02  0.65185179323E+03  0.65610179340E+03  0.00000000000E+00 0.  1.
</event>
<event>
12    1  0.8406581E-002  0.2148627E+03  0.7818608E-02  0.1137851E+00
         21   -1    0    0  503  502  0.00000000000E+00  0.00000000000E+00  0.13484519705E+03  0.13484519705E+03  0.00000000000E+00 0. -1.
         21   -1    0    0  501  503 -0.00000000000E+00 -0.00000000000E+00 -0.63384389290E+03  0.63384389290E+03  0.00000000000E+00 0.  1.
          6    2    1    2  501    0 -0.10793173635E+03 -0.68345697837E+02 -0.51029803337E+03  0.55352945776E+03  0.17225093215E+03 0.  0.
         24    2    3    3    0    0 -0.84507511675E+02  0.19172544707E+02 -0.22896588613E+03  0.25793175116E+03  0.81205327686E+02 0.  0.
         -6    2    1    2    0  502  0.10793173635E+03  0.68345697837E+02  0.11299337523E+02  0.21515963219E+03  0.17275878609E+03 0.  0.
        -24    2    5    5    0    0  0.70230807834E+02  0.10877890264E+03  0.31063188986E+02  0.15626223083E+03  0.81778646641E+02 0.  0.
          5    1    3    3  501    0 -0.23424224677E+02 -0.87518242545E+02 -0.28133214724E+03  0.29559770660E+03  0.47000000000E+01 0. -1.
        -13    1    4    4    0    0 -0.12893583273E+02  0.95079280811E+01 -0.15015042031E+03  0.15100262880E+03  0.00000000000E+00 0.  1.
         14    1    4    4    0    0 -0.71613928402E+02  0.96646166263E+01 -0.78815465826E+02  0.10692912236E+03  0.00000000000E+00 0. -1.
         -5    1    5    5    0  502  0.37700928518E+02 -0.40433204804E+02 -0.19763851463E+02  0.58897401356E+02  0.47000000000E+01 0.  1.
         11    1    6    6    0    0 -0.95363642430E+01  0.19544339800E+02  0.29390067121E+02  0.36560901337E+02  0.00000000000E+00 0. -1.
        -12    1    6    6    0    0  0.79767172077E+02  0.89234562841E+02  0.16731218655E+01  0.11970132950E+03  0.00000000000E+00 0.  1.
</event>
<event>
12    1  0.8406581E-002  0.2236529E+03  0.7818608E-02  0.1131263E+00
         21   -1    0    0  501  502  0.00000000000E+00  0.00000000000E+00  0.65450583880E+02  0.65450583880E+02  0.00000000000E+00 0. -1.
         21   -1    0    0  502  503 -0.00000000000E+00 -0.00000000000E+00 -0.10438558256E+04  0.10438558256E+04  0.00000000000E+00 0. -1.
         -6    2    1    2    0  503 -0.14287756874E+03 -0.20810645128E+01 -0.77730474315E+03  0.80884070451E+03  0.17205316354E+03 0.  0.
        -24    2    3    3    0    0 -0.15129654356E+03 -0.67693513481E+01 -0.46985705972E+03  0.50120613686E+03  0.86634097497E+02 0.  0.
          6    2    1    2  501    0  0.14287756874E+03  0.20810645128E+01 -0.20110049860E+03  0.30046570500E+03  0.17152229844E+03 0.  0.
         24    2    5    5    0    0  0.66208961941E+02 -0.92336539562E+01 -0.23924150817E+02  0.10702412121E+03  0.80080650106E+02 0.  0.
          5    1    5    5  501    0  0.76668606803E+02  0.11314718469E+02 -0.17717634779E+03  0.19344158379E+03  0.47000000000E+01 0. -1.
        -13    1    6    6    0    0  0.15188132274E+02  0.23442876957E+02  0.18103786595E+02  0.33286557813E+02  0.00000000000E+00 0.  1.
         14    1    6    6    0    0  0.51020829667E+02 -0.32676530913E+02 -0.42027937411E+02  0.73737563395E+02  0.00000000000E+00 0. -1.
         -5    1    3    3    0  503  0.84189748160E+01  0.46882868353E+01 -0.30744768342E+03  0.30763456765E+03  0.47000000000E+01 0.  1.
         13    1    4    4    0    0 -0.11013624646E+03  0.28261982084E+00 -0.42851897247E+03  0.44244613506E+03  0.00000000000E+00 0. -1.
        -14    1    4    4    0    0 -0.41160297104E+02 -0.70519711689E+01 -0.41338087249E+02  0.58760001808E+02  0.00000000000E+00 0.  1.
</event>
<event>
12    1  0.8406581E-002  0.2501096E+03  0.7818608E-02  0.1113405E+00
         21   -1    0    0  503  502  0.00000000000E+00  0.00000000000E+00  0.66101273196E+02  0.66101273196E+02  0.00000000000E+00 0. -1.
         21   -1    0    0  501  503 -0.00000000000E+00 -0.00000000000E+00 -0.94781264656E+03  0.94781264656E+03  0.00000000000E+00 0. -1.
          6    2    1    2  501    0  0.17999886013E+03  0.14310945908E+02 -0.40315810950E+03  0.47443786737E+03  0.17306194243E+03 0.  0.
         24    2    3    3    0    0  0.75233662841E+02  0.68820193888E+02 -0.18377659743E+03  0.22524448360E+03  0.81024172425E+02 0.  0.
         -6    2    1    2    0  502 -0.17999886013E+03 -0.14310945908E+02 -0.47855326386E+03  0.53947605238E+03  0.17151324123E+03 0.  0.
        -24    2    5    5    0    0 -0.11815633428E+03 -0.38969499205E+02 -0.44398950418E+03  0.46431432184E+03  0.54603740194E+02 0.  0.
          5    1    3    3  501    0  0.10476519729E+03 -0.54509247980E+02 -0.21938151207E+03  0.24919338377E+03  0.47000000000E+01 0. -1.
        -13    1    4    4    0    0 -0.14396526624E+02  0.10529909235E+02 -0.80979457053E+01  0.19588662332E+02  0.00000000000E+00 0.  1.
         14    1    4    4    0    0  0.89630189465E+02  0.58290284653E+02 -0.17567865173E+03  0.20565582127E+03  0.00000000000E+00 0. -1.
         -5    1    5    5    0  502 -0.61842525857E+02  0.24658553297E+02 -0.34563759685E+02  0.75161730545E+02  0.47000000000E+01 0.  1.
         13    1    6    6    0    0 -0.94546457642E+02 -0.41650578472E+02 -0.27694218025E+03  0.29558547755E+03  0.00000000000E+00 0. -1.
        -14    1    6    6    0    0 -0.23609876636E+02  0.26810792673E+01 -0.16704732393E+03  0.16872884428E+03  0.00000000000E+00 0.  1.
</event>
<event>
12    1  0.8406581E-002  0.2402934E+03  0.7818608E-02  0.1119694E+00
         21   -1    0    0  503  502  0.00000000000E+00  0.00000000000E+00  0.12031738820E+04  0.12031738820E+04  0.00000000000E+00 0. -1.
         21   -1    0    0  501  503 -0.00000000000E+00 -0.00000000000E+00 -0.50671113317E+02  0.50671113317E+02  0.00000000000E+00 0.  1.
          6    2    1    2  501    0  0.15174912989E+03  0.71824396895E+02  0.72286552374E+03  0.76157567777E+03  0.17110349254E+03 0.  0.
         24    2    3    3    0    0  0.61144900771E+02  0.68418943369E+02  0.21813996128E+03  0.24874948222E+03  0.76625136191E+02 0.  0.
         -6    2    1    2    0  502 -0.15174912989E+03 -0.71824396895E+02  0.42963724495E+03  0.49226931755E+03  0.17191386313E+03 0.  0.
        -24    2    5    5    0    0 -0.60248390524E+02  0.50449021992E+01  0.29957681188E+03  0.31558009688E+03  0.78671543349E+02 0.  0.
          5    1    3    3  501    0  0.90604229122E+02  0.34054535252E+01  0.50472556246E+03  0.51282619555E+03  0.47000000000E+01 0. -1.
        -11    1    4    4    0    0  0.37982418209E+02  0.18588002586E+02  0.27728219209E+02  0.50567104659E+02  0.00000000000E+00 0.  1.
         12    1    4    4    0    0  0.23162482561E+02  0.49830940783E+02  0.19041174207E+03  0.19818237756E+03  0.00000000000E+00 0. -1.
         -5    1    5    5    0  502 -0.91500739369E+02 -0.76869299094E+02  0.13006043307E+03  0.17668922067E+03  0.47000000000E+01 0.  1.
         13    1    6    6    0    0 -0.24739181442E+02 -0.96633384509E+01  0.25641085454E+03  0.25778272544E+03  0.00000000000E+00 0. -1.
        -14    1    6    6    0    0 -0.35509209081E+02  0.14708240650E+02  0.43165957335E+02  0.57797371439E+02  0.00000000000E+00 0.  1.
</event>
<event>
12    1  0.8406581E-002  0.2262385E+03  0.7818608E-02  0.1129485E+00
         21   -1    0    0  501  502  0.00000000000E+00  0.00000000000E+00  0.13870465570E+03  0.13870465570E+03  0.00000000000E+00 0. -1.
         21   -1    0    0  502  503 -0.00000000000E+00 -0.00000000000E+00 -0.37156799643E+03  0.37156799643E+03  0.00000000000E+00 0.  1.
         -6    2    1    2    0  503  0.13623840030E+03  0.55432993344E+02 -0.14295624599E+03  0.26682422369E+03  0.17066036334E+03 0.  0.
        -24    2    3    3    0    0  0.13294796947E+02  0.46995174641E+02 -0.42469102283E+02  0.10774536765E+03  0.86140243418E+02 0.  0.
          6    2    1    2  501    0 -0.13623840030E+03 -0.55432993344E+02 -0.89907094743E+02  0.24344842844E+03  0.17190152169E+03 0.  0.
         24    2    5    5    0    0 -0.64338487519E+02  0.35636097478E+02 -0.31894702256E+02  0.11363816520E+03  0.80541840916E+02 0.  0.
          5    1    5    5  501    0 -0.71899912781E+02 -0.91069090822E+02 -0.58012392487E+02  0.12981026324E+03  0.47000000000E+01 0. -1.
        -11    1    6    6    0    0 -0.14943650794E+02 -0.22404895573E+01 -0.47182318167E+02  0.49542947431E+02  0.00000000000E+00 0.  1.
         12    1    6    6    0    0 -0.49394836726E+02  0.37876587035E+02  0.15287615911E+02  0.64095217769E+02  0.00000000000E+00 0. -1.
         -5    1    3    3    0  503  0.12294360335E+03  0.84378187031E+01 -0.10048714370E+03  0.15907885604E+03  0.47000000000E+01 0.  1.
         11    1    4    4    0    0 -0.23187648361E+02 -0.13376296949E+02 -0.20965029245E+02  0.34001835360E+02  0.00000000000E+00 0. -1.
        -12    1    4    4    0    0  0.36482445308E+02  0.60371471590E+02 -0.21504073038E+02  0.73743532291E+02  0.00000000000E+00 0.  1.
</event>
<event>
12    1  0.8406581E-002  0.1907462E+03  0.7818608E-02  0.1158231E+00
         21   -1    0    0  503  502  0.00000000000E+00  0.00000000000E+00  0.36828571075E+03  0.36828571075E+03  0.00000000000E+00 0. -1.
         21   -1    0    0  501  503 -0.00000000000E+00 -0.00000000000E+00 -0.15448415338E+03  0.15448415338E+03  0.00000000000E+00 0. -1.
          6    2    1    2  501    0  0.42194723661E+02  0.71797459899E+02 -0.51103903133E+02  0.19747334103E+03  0.17160664775E+03 0.  0.
         24    2    3    3    0    0 -0.79459819225E+00  0.55621238386E+02  0.32062763606E+02  0.10234954594E+03  0.79706054970E+02 0.  0.
         -6    2    1    2    0  502 -0.42194723661E+02 -0.71797459899E+02  0.26490546051E+03  0.32529652310E+03  0.16943333491E+03 0.  0.
        -24    2    5    5    0    0  0.28990325527E+02 -0.23225517445E+02  0.19647114507E+03  0.21515166234E+03  0.79432130325E+02 0.  0.
          5    1    3    3  501    0  0.42989321853E+02  0.16176221512E+02 -0.83166666739E+02  0.95123795090E+02  0.47000000000E+01 0. -1.
        -13    1    4    4    0    0 -0.36441965148E+00 -0.19057568569E+02  0.18276879511E+02  0.26407727015E+02  0.00000000000E+00 0.  1.
         14    1    4    4    0    0 -0.43017854077E+00  0.74678806956E+02  0.13785884095E+02  0.75941818928E+02  0.00000000000E+00 0. -1.
         -5    1    5    5    0  502 -0.71185049188E+02 -0.48571942454E+02  0.68434315431E+02  0.11014486075E+03  0.47000000000E+01 0.  1.
         13    1    6    6    0    0 -0.77601862292E+01 -0.19127679435E+02  0.65383636347E+01  0.21652685975E+02  0.00000000000E+00 0. -1.
        -14    1    6    6    0    0  0.36750511756E+02 -0.40978380096E+01  0.18993278144E+03  0.19349897637E+03  0.00000000000E+00 0.  1.
</event>
<event>
12    1  0.8406581E-002  0.2575908E+03  0.7818608E-02  0.1108768E+00
         21   -1    0    0  503  502  0.00000000000E+00  0.00000000000E+00  0.11204875303E+04  0.11204875303E+04  0.00000000000E+00 0. -1.
         21   -1    0    0  501  503 -0.00000000000E+00 -0.00000000000E+00 -0.84623040506E+02  0.84623040506E+02  0.00000000000E+00 0.  1.
          6    2    1    2  501    0  0.48690336618E+02 -0.18380197354E+03  0.18690940514E+03  0.31825798133E+03  0.17377888996E+03 0.  0.
         24    2    3    3    0    0  0.90814484841E+02 -0.82396462667E+02  0.89184408799E+02  0.17118729626E+03  0.79465614642E+02 0.  0.
         -6    2    1    2    0  502 -0.48690336618E+02  0.18380197354E+03  0.84895508465E+03  0.88685258947E+03  0.17213037310E+03 0.  0.
        -24    2    5    5    0    0 -0.27318956288E+02  0.92715417280E+02  0.69811848642E+03  0.70929339936E+03  0.79907642421E+02 0.  0.
          5    1    3    3  501    0 -0.42124148224E+02 -0.10140551087E+03  0.97724996339E+02  0.14707068507E+03  0.47000000000E+01 0. -1.
        -13    1    4    4    0    0  0.28497636577E+02 -0.81747086448E+01 -0.11165432407E+02  0.31679773243E+02  0.00000000000E+00 0.  1.
         14    1    4    4    0    0  0.62316848264E+02 -0.74221754023E+02  0.10034984121E+03  0.13950752302E+03  0.00000000000E+00 0. -1.
         -5    1    5    5    0  502 -0.21371380330E+02  0.91086556255E+02  0.15083659823E+03  0.17755919011E+03  0.47000000000E+01 0.  1.
         13    1    6    6    0    0 -0.15108544777E+02  0.10600169462E+03  0.57923574396E+03  0.58904895761E+03  0.00000000000E+00 0. -1.
        -14    1    6    6    0    0 -0.12210411511E+02 -0.13286277343E+02  0.11888274247E+03  0.12024444175E+03  0.00000000000E+00 0.  1.
</event>
<event>
12    1  0.8406581E-002  0.1742873E+03  0.7818608E-02  0.1173497E+00
         21   -1    0    0  503  502  0.00000000000E+00  0.00000000000E+00  0.17602994564E+03  0.17602994564E+03  0.00000000000E+00 0.  1.
         21   -1    0    0  501  503 -0.00000000000E+00 -0.00000000000E+00 -0.30507985730E+03  0.30507985730E+03  0.00000000000E+00 0.  1.
          6    2    1    2  501    0 -0.26501469516E+02  0.38415418786E+01 -0.22315892098E+03  0.28303769061E+03  0.17202716344E+03 0.  0.
         24    2    3    3    0    0  0.45089785004E+02 -0.19275572423E+02 -0.12784933968E+03  0.16152343225E+03  0.85672218982E+02 0.  0.
         -6    2    1    2    0  502  0.26501469516E+02 -0.38415418786E+01  0.94109009315E+02  0.19807211232E+03  0.17221780023E+03 0.  0.
        -24    2    5    5    0    0  0.59527328204E+02 -0.53394948222E+02  0.71877336761E+02  0.13433370407E+03  0.80527443834E+02 0.  0.
          5    1    3    3  501    0 -0.71591254520E+02  0.23117114301E+02 -0.95309581299E+02  0.12151425836E+03  0.47000000000E+01 0. -1.
        -11    1    4    4    0    0  0.29793820071E+02  0.32577741490E+02 -0.65646003830E+02  0.79109915775E+02  0.00000000000E+00 0.  1.
         12    1    4    4    0    0  0.15295964933E+02 -0.51853313913E+02 -0.62203335853E+02  0.82413516477E+02  0.00000000000E+00 0. -1.
         -5    1    5    5    0  502 -0.33025858688E+02  0.49553406344E+02  0.22231672554E+02  0.63738408255E+02  0.47000000000E+01 0.  1.
         13    1    6    6    0    0  0.34257651897E+02 -0.41629423661E+02 -0.34412810303E+01  0.54022569755E+02  0.00000000000E+00 0. -1.
        -14    1    6    6    0    0  0.25269676307E+02 -0.11765524562E+02  0.75318617791E+02  0.80311134314E+02  0.00000000000E+00 0.  1.
</event>
<event>
12    1  0.8406581E-002  0.2447951E+03  0.7818608E-02  0.1116755E+00
         21   -1    0    0  501  502  0.00000000000E+00  0.00000000000E+00  0.14191718397E+03  0.14191718397E+03  0.00000000000E+00 0.  1.
         21   -1    0    0  502  503 -0.00000000000E+00 -0.00000000000E+00 -0.46187315851E+03  0.46187315851E+03  0.00000000000E+00 0.  1.
         -6    2    1    2    0  503 -0.12868862157E+03  0.11579153258E+03 -0.70405468813E+02  0.25471858976E+03  0.17307856480E+03 0.  0.
        -24    2    3    3    0    0 -0.25143032007E+02  0.70659907048E+02 -0.77645530459E+02  0.14143548761E+03  0.91379287765E+02 0.  0.
          6    2    1    2  501    0  0.12868862157E+03 -0.11579153258E+03 -0.24955050573E+03  0.34907175271E+03  0.17206740916E+03 0.  0.
         24    2    5    5    0    0  0.11255003520E+03 -0.12166107081E+02 -0.15483016451E+03  0.20767615229E+03  0.79633408829E+02 0.  0.
          5    1    5    5  501    0  0.16138586368E+02 -0.10362542550E+03 -0.94720341213E+02  0.14139560042E+03  0.47000000000E+01 0. -1.
        -11    1    6    6    0    0  0.26686079013E+00  0.14048292901E+02 -0.49674752636E+02  0.51623703834E+02  0.00000000000E+00 0.  1.
         12    1    6    6    0    0  0.11228317441E+03 -0.26214399981E+02 -0.10515541188E+03  0.15605244846E+03  0.00000000000E+00 0. -1.
         -5    1    3    3    0  503 -0.10354558956E+03  0.45131625528E+02  0.72400616469E+01  0.11328310215E+03  0.47000000000E+01 0.  1.
         13    1    4    4    0    0  0.20048379697E+02  0.11810848380E+02 -0.61146682445E+02  0.65424387211E+02  0.00000000000E+00 0. -1.
        -14    1    4    4    0    0 -0.45191411704E+02  0.58849058668E+02 -0.16498848015E+02  0.76011100398E+02  0.00000000000E+00 0.  1.
</event>
<event>
12    1  0.8406581E-002  0.2242790E+03  0.7818608E-02  0.1131053E+00
         21   -1    0    0  503  502  0.00000000000E+00  0.00000000000E+00  0.45294829578E+03  0.45294829578E+03  0.00000000000E+00 0. -1.
         21   -1    0    0  501  503 -0.00000000000E+00 -0.00000000000E+00 -0.20512181339E+03  0.20512181339E+03  0.00000000000E+00 0. -1.
          6    2    1    2  501    0  0.41359322081E+02  0.13808320721E+03 -0.99671526240E+02  0.24542920764E+03  0.17182408791E+03 0.  0.
         24    2    3    3    0    0  0.69623559404E+02  0.17883799517E+02 -0.13888053272E+02  0.95004279675E+02  0.60544734070E+02 0.  0.
         -6    2    1    2    0  502 -0.41359322081E+02 -0.13808320721E+03  0.34749800863E+03  0.41264090152E+03  0.16952900038E+03 0.  0.
        -24    2    5    5    0    0 -0.41989086460E+02 -0.12572028428E+03  0.15184654308E+03  0.21654188459E+03  0.79147595527E+02 0.  0.
          5    1    3    3  501    0 -0.28264237323E+02  0.12019940769E+03 -0.85783472968E+02  0.15042492797E+03  0.47000000000E+01 0. -1.
        -13    1    4    4    0    0  0.41919895885E+02 -0.19992058904E+02 -0.14861204105E+01  0.46466855328E+02  0.00000000000E+00 0.  1.
         14    1    4    4    0    0  0.27703663519E+02  0.37875858421E+02 -0.12401932862E+02  0.48537424347E+02  0.00000000000E+00 0. -1.
         -5    1    5    5    0  502  0.62976437832E+00 -0.12362922924E+02  0.19565146556E+03  0.19609901693E+03  0.47000000000E+01 0.  1.
         13    1    6    6    0    0 -0.38108932588E+02 -0.58051828014E+02  0.12625394112E+03  0.14409150956E+03  0.00000000000E+00 0. -1.
        -14    1    6    6    0    0 -0.38801538722E+01 -0.67668456268E+02  0.25592601956E+02  0.72450375035E+02  0.00000000000E+00 0.  1.
</event>
<event>
12    1  0.8406581E-002  0.2003382E+03  0.7818608E-02  0.1149454E+00
         21   -1    0    0  501  502  0.00000000000E+00  0.00000000000E+00  0.64312964235E+02  0.64312964235E+02  0.00000000000E+00 0.  1.
         21   -1    0    0  502  503 -0.00000000000E+00 -0.00000000000E+00 -0.74382604393E+03  0.74382604393E+03  0.00000000000E+00 0. -1.
         -6    2    1    2    0  503  0.23263389207E+02  0.10062095116E+03 -0.50189494066E+03  0.54040105907E+03  0.17166540739E+03 0.  0.
        -24    2    3    3    0    0 -0.10036089846E+02  0.10490699226E+03 -0.48435492442E+03  0.50223081381E+03  0.80807780643E+02 0.  0.
          6    2    1    2  501    0 -0.23263389207E+02 -0.10062095116E+03 -0.17761813903E+03  0.26773794909E+03  0.17166725075E+03 0.  0.
         24    2    5    5    0    0 -0.76203286245E+02 -0.68788766557E+02 -0.15717586998E+03  0.20250071249E+03  0.75917384163E+02 0.  0.
          5    1    5    5  501    0  0.52939897038E+02 -0.31832184605E+02 -0.20442269056E+02  0.65237236601E+02  0.47000000000E+01 0. -1.
        -11    1    6    6    0    0 -0.52827666831E+02 -0.75720921445E+02 -0.82051209786E+02  0.12351850612E+03  0.00000000000E+00 0.  1.
         12    1    6    6    0    0 -0.23375619414E+02  0.69321548875E+01 -0.75124660192E+02  0.78982206372E+02  0.00000000000E+00 0. -1.
         -5    1    3    3    0  503  0.33299479053E+02 -0.42860410930E+01 -0.17540016249E+02  0.38170245263E+02  0.47000000000E+01 0.  1.
         11    1    4    4    0    0  0.30483637089E+02  0.73640616934E+02 -0.25188263402E+03  0.26419132066E+03  0.00000000000E+00 0. -1.
        -12    1    4    4    0    0 -0.40519726935E+02  0.31266375321E+02 -0.23247229040E+03  0.23803949315E+03  0.00000000000E+00 0.  1.
</event>
<event>
12    1  0.8406581E-002  0.2809951E+03  0.7818608E-02  0.1095158E+00
         21   -1    0    0  503  502  0.00000000000E+00  0.00000000000E+00  0.10168110499E+03  0.10168110499E+03  0.00000000000E+00 0.  1.
         21   -1    0    0  501  503 -0.00000000000E+00 -0.00000000000E+00 -0.12272799964E+04  0.12272799964E+04  0.00000000000E+00 0. -1.
          6    2    1    2  501    0 -0.17511888617E+03  0.14050154719E+03 -0.96565363971E+03  0.10057063047E+04  0.16897014664E+03 0.  0.
         24    2    3    3    0    0 -0.16427086630E+03  0.15793886042E+03 -0.73489587986E+03  0.77398886224E+03  0.84007163354E+02 0.  0.
         -6    2    1    2    0  502  0.17511888617E+03 -0.14050154719E+03 -0.15994525167E+03  0.32325479663E+03  0.16883089455E+03 0.  0.
        -24    2    5    5    0    0  0.12443771016E+03 -0.15677793754E+03 -0.85984161575E+02  0.23200878119E+03  0.79816872286E+02 0.  0.
          5    1    3    3  501    0 -0.10848019874E+02 -0.17437313226E+02 -0.23075775985E+03  0.23171744250E+03  0.47000000000E+01 0. -1.
        -11    1    4    4    0    0 -0.16765290444E+02  0.27233756807E+02 -0.37523699348E+02  0.49302946020E+02  0.00000000000E+00 0.  1.
         12    1    4    4    0    0 -0.14750557585E+03  0.13070510361E+03 -0.69737218052E+03  0.72468591622E+03  0.00000000000E+00 0. -1.
         -5    1    5    5    0  502  0.50681176014E+02  0.16276390347E+02 -0.73961090094E+02  0.91246015435E+02  0.47000000000E+01 0.  1.
         11    1    6    6    0    0  0.78834212495E+02 -0.10395440800E+03 -0.95353575539E+02  0.16159720409E+03  0.00000000000E+00 0. -1.
        -12    1    6    6    0    0  0.45603497661E+02 -0.52823529541E+02  0.93694139646E+01  0.70411577103E+02  0.00000000000E+00 0.  1.
</event>
<event>
12    1  0.8406581E-002  0.2991253E+03  0.7818608E-02  0.1086223E+00
         21   -1    0    0  503  502  0.00000000000E+00  0.00000000000E+00  0.14545878404E+03  0.14545878404E+03  0.00000000000E+00 0. -1.
         21   -1    0    0  501  503 -0.00000000000E+00 -0.00000000000E+00 -0.10124871811E+04  0.10124871811E+04  0.00000000000E+00 0.  1.
          6    2    1    2  501    0  0.36546832674E+02 -0.24132644545E+03 -0.80209546262E+03  0.85605668785E+03  0.17292136191E+03 0.  0.
         24    2    3    3    0    0  0.70857412797E+02 -0.19107147332E+03 -0.46713858925E+03  0.51558499277E+03  0.77976549927E+02 0.  0.
         -6    2    1    2    0  502 -0.36546832674E+02  0.24132644545E+03 -0.64932934487E+02  0.30188927734E+03  0.16536845389E+03 0.  0.
        -24    2    5    5    0    0  0.30702826975E+02  0.17381918520E+03 -0.12247745696E+02  0.19290503065E+03  0.76854218153E+02 0.  0.
          5    1    3    3  501    0 -0.34310580123E+02 -0.50254972129E+02 -0.33495687337E+03  0.34047169508E+03  0.47000000000E+01 0. -1.
        -13    1    4    4    0    0  0.48488246396E+02 -0.43777074318E+02 -0.19034871242E+03  0.20124655176E+03  0.00000000000E+00 0.  1.
         14    1    4    4    0    0  0.22369166402E+02 -0.14729439900E+03 -0.27678987683E+03  0.31433844101E+03  0.00000000000E+00 0. -1.
         -5    1    5    5    0  502 -0.67249659649E+02  0.67507260244E+02 -0.52685188790E+02  0.10898424669E+03  0.47000000000E+01 0.  1.
         11    1    6    6    0    0  0.39808391648E+02  0.35613835842E+02 -0.10233195568E+02  0.54385399148E+02  0.00000000000E+00 0. -1.
        -12    1    6    6    0    0 -0.91055646733E+01  0.13820534936E+03 -0.20145501281E+01  0.13851963150E+03  0.00000000000E+00 0.  1.
</event>
<event>
12    1  0.8406581E-002  0.2028180E+03  0.7818608E-02  0.1147719E+00
         21   -1    0    0  503  502  0.00000000000E+00  0.00000000000E+00  0.47145664171E+03  0.47145664171E+03  0.00000000000E+00 0.  1.
         21   -1    0    0  501  503 -0.00000000000E+00 -0.00000000000E+00 -0.28181839934E+03  0.28181839934E+03  0.00000000000E+00 0. -1.
          6    2    1    2  501    0 -0.10590364736E+03  0.58213240676E+01 -0.21880264179E+03  0.29724972481E+03  0.17097757895E+03 0.  0.
         24    2    3    3    0    0 -0.29705008779E+02 -0.19422103126E+02 -0.48984890035E+02  0.10935714393E+03  0.91103566557E+02 0.  0.
         -6    2    1    2    0  502  0.10590364736E+03 -0.58213240676E+01  0.40844088416E+03  0.45602531624E+03  0.17287470278E+03 0.  0.
        -24    2    5    5    0    0  0.34979561031E+02 -0.31913508053E+02  0.92741951923E+02  0.13137329653E+03  0.80098887063E+02 0.  0.
          5    1    3    3  501    0 -0.76198638579E+02  0.25243427193E+02 -0.16981775176E+03  0.18789258088E+03  0.47000000000E+01 0. -1.
        -13    1    4    4    0    0 -0.93431770811E+01 -0.46175161627E+02 -0.57832096334E+02  0.74592170338E+02  0.00000000000E+00 0.  1.
         14    1    4    4    0    0 -0.20361831698E+02  0.26753058501E+02  0.88472062997E+01  0.34764973588E+02  0.00000000000E+00 0. -1.
         -5    1    5    5    0  502  0.70924086327E+02  0.26092183985E+02  0.31569893224E+03  0.32465201971E+03  0.47000000000E+01 0.  1.
         11    1    6    6    0    0  0.18715775499E+02  0.18660142133E+02  0.23588556045E+01  0.26533853032E+02  0.00000000000E+00 0. -1.
        -12    1    6    6    0    0  0.16263785532E+02 -0.50573650186E+02  0.90383096319E+02  0.10483944350E+03  0.00000000000E+00 0.  1.
</event>
<event>
12    1  0.8406581E-002  0.2158398E+03  0.7818608E-02  0.1137029E+00
         21   -1    0    0  501  502  0.00000000000E+00  0.00000000000E+00  0.71061084989E+03  0.71061084989E+03  0.00000000000E+00 0. -1.
         21   -1    0    0  502  503 -0.00000000000E+00 -0.00000000000E+00 -0.18340091153E+03  0.18340091153E+03  0.00000000000E+00 0. -1.
         -6    2    1    2    0  503 -0.39329491674E+02  0.12457286476E+03 -0.94715062172E+02  0.23570696257E+03  0.17181857190E+03 0.  0.
        -24    2    3    3    0    0  0.28138234320E+02  0.31631782082E+02 -0.89448007566E+02  0.12064275977E+03  0.69002895297E+02 0.  0.
          6    2    1    2  501    0  0.39329491674E+02 -0.12457286476E+03  0.62192500053E+03  0.65830479885E+03  0.17178269515E+03 0.  0.
         24    2    5    5    0    0 -0.28645860625E+02 -0.96564077784E+02  0.49684300483E+03  0.51314028419E+03  0.79465548251E+02 0.  0.
          5    1    5    5  501    0  0.67975352300E+02 -0.28008786980E+02  0.12508199570E+03  0.14516451466E+03  0.47000000000E+01 0. -1.
        -11    1    6    6    0    0  0.14031353660E+01  0.13388864068E+02  0.73379246345E+02  0.74603915876E+02  0.00000000000E+00 0.  1.
         12    1    6    6    0    0 -0.30048995991E+02 -0.10995294185E+03  0.42346375848E+03  0.43853636831E+03  0.00000000000E+00 0. -1.
         -5    1    3    3    0  503 -0.67467725995E+02  0.92941082681E+02 -0.52670546065E+01  0.11506420280E+03  0.47000000000E+01 0.  1.
         11    1    4    4    0    0  0.90881833778E+01  0.47792644188E+02 -0.32638996982E+02  0.58583581655E+02  0.00000000000E+00 0. -1.
        -12    1    4    4    0    0  0.19050050943E+02 -0.16160862106E+02 -0.56809010584E+02  0.62059178116E+02  0.00000000000E+00 0.  1.
</event>
<event>
12    1  0.8406581E-002  0.2032332E+03  0.7818608E-02  0.1148318E+00
         21   -1    0    0  503  502  0.00000000000E+00  0.00000000000E+00  0.73246568474E+02  0.73246568474E+02  0.00000000000E+00 0. -1.
         21   -1    0    0  501  503 -0.00000000000E+00 -0.00000000000E+00 -0.57993352578E+03  0.57993352578E+03  0.00000000000E+00 0. -1.
          6    2    1    2  501    0  0.52726709381E+02  0.93681947703E+02 -0.17931881930E+03  0.27103314527E+03  0.17247409566E+03 0.  0.
         24    2    3    3    0    0 -0.26514187324E+02  0.68629494924E+01 -0.69200974671E+02  0.10989752579E+03  0.80861542614E+02 0.  0.
         -6    2    1    2    0  502 -0.52726709381E+02 -0.93681947703E+02 -0.32736813801E+03  0.38214694898E+03  0.16525731339E+03 0.  0.
        -24    2    5    5    0    0 -0.40021431751E+02  0.59141324390E+01 -0.10158790436E+03  0.13500406083E+03  0.79178925013E+02 0.  0.
          5    1    3    3  501    0  0.79240896705E+02  0.86818998210E+02 -0.11011784463E+03  0.16113561949E+03  0.47000000000E+01 0. -1.
        -13    1    4    4    0    0  0.75475786254E+01 -0.11642627255E+02 -0.69762879560E+02  0.71129291273E+02  0.00000000000E+00 0.  1.
         14    1    4    4    0    0 -0.34061765949E+02  0.18505576747E+02  0.56190488917E+00  0.38768234515E+02  0.00000000000E+00 0. -1.
         -5    1    5    5    0  502 -0.12705277630E+02 -0.99596080142E+02 -0.22578023365E+03  0.24714288815E+03  0.47000000000E+01 0.  1.
         13    1    6    6    0    0 -0.54929600890E+02 -0.20402850394E+02 -0.69567762038E+02  0.90957192531E+02  0.00000000000E+00 0. -1.
        -14    1    6    6    0    0  0.14908169140E+02  0.26316982833E+02 -0.32020142322E+02  0.44046868298E+02  0.00000000000E+00 0.  1.
</event>
<event>
12    1  0.8406581E-002  0.1752800E+03  0.7818608E-02  0.1173787E+00
         21   -1    0    0  503  502  0.00000000000E+00  0.00000000000E+00  0.12202624093E+04  0.12202624093E+04  0.00000000000E+00 0.  1.
         21   -1    0    0  501  503 -0.00000000000E+00 -0.00000000000E+00 -0.15965550400E+03  0.15965550400E+03  0.00000000000E+00 0.  1.
          6    2    1    2  501    0  0.35556392438E+02  0.84577678236E+01 -0.10343477098E+03  0.20352353333E+03  0.17142720290E+03 0.  0.
         24    2    3    3    0    0 -0.16512045206E+02 -0.49838422951E+02 -0.44604588892E+02  0.10558146688E+03  0.80008504288E+02 0.  0.
         -6    2    1    2    0  502 -0.35556392438E+02 -0.84577678236E+01  0.11640416763E+04  0.11763943799E+04  0.16605698482E+03 0.  0.
        -24    2    5    5    0    0 -0.69421393388E+01 -0.35777896190E+02  0.33362269023E+03  0.34502024800E+03  0.80041370195E+02 0.  0.
          5    1    3    3  501    0  0.52068437645E+02  0.58296190775E+02 -0.58830182085E+02  0.97942066457E+02  0.47000000000E+01 0. -1.
        -11    1    4    4    0    0 -0.20393148359E+01 -0.40790140975E+02 -0.66365359993E+02  0.77925319458E+02  0.00000000000E+00 0.  1.
         12    1    4    4    0    0 -0.14472730371E+02 -0.90482819768E+01  0.21760771101E+02  0.27656147418E+02  0.00000000000E+00 0. -1.
         -5    1    5    5    0  502 -0.28614253100E+02  0.27320128367E+02  0.83041898604E+03  0.83137413194E+03  0.47000000000E+01 0.  1.
         13    1    6    6    0    0 -0.98520689062E+01  0.23375678222E+02  0.61480857675E+02  0.66508506633E+02  0.00000000000E+00 0. -1.
        -14    1    6    6    0    0  0.29099295674E+01 -0.59153574412E+02  0.27214183255E+03  0.27851174137E+03  0.00000000000E+00 0.  1.
</event>
<event>
12    1  0.8406581E-002  0.4084054E+03  0.7818608E-02  0.1041213E+00
         21   -1    0    0  503  502  0.00000000000E+00  0.00000000000E+00  0.23463906187E+03  0.23463906187E+03  0.00000000000E+00 0. -1.
         21   -1    0    0  501  503 -0.00000000000E+00 -0.00000000000E+00 -0.17510684453E+04  0.17510684453E+04  0.00000000000E+00 0.  1.
          6    2    1    2  501    0 -0.10844629978E+02  0.36545027661E+03 -0.15270993252E+04  0.15807679564E+04  0.18199854999E+03 0.  0.
         24    2    3    3    0    0  0.89820828156E+01  0.34689995358E+03 -0.12063637175E+04  0.12588508349E+04  0.94719322879E+02 0.  0.
         -6    2    1    2    0  502  0.10844629978E+02 -0.36545027661E+03  0.10669941758E+02  0.40493955080E+03  0.17375465885E+03 0.  0.
        -24    2    5    5    0    0  0.64111352656E+02 -0.16141022071E+03 -0.16958653845E+02  0.19220704870E+03  0.80575608837E+02 0.  0.
          5    1    3    3  501    0 -0.19826712793E+02  0.18550323032E+02 -0.32073560772E+03  0.32191712145E+03  0.47000000000E+01 0. -1.
        -13    1    4    4    0    0 -0.35001640978E+02  0.19048041400E+03 -0.74290348170E+03  0.76773269184E+03  0.00000000000E+00 0.  1.
         14    1    4    4    0    0  0.43983723793E+02  0.15641953958E+03 -0.46346023579E+03  0.49111814310E+03  0.00000000000E+00 0. -1.
         -5    1    5    5    0  502 -0.53266722678E+02 -0.20404005590E+03  0.27628595603E+02  0.21273250210E+03  0.47000000000E+01 0.  1.
         13    1    6    6    0    0  0.71269117636E+02 -0.14440395943E+03 -0.36723978374E+02  0.16516791824E+03  0.00000000000E+00 0. -1.
        -14    1    6    6    0    0 -0.71577649801E+01 -0.17006261283E+02  0.19765324529E+02  0.27039130461E+02  0.00000000000E+00 0.  1.
</event>
<event>
12    1  0.8406581E-002  0.2173964E+03  0.7818608E-02  0.1135869E+00
         21   -1    0    0  501  502  0.00000000000E+00  0.00000000000E+00  0.16724711214E+04  0.16724711214E+04  0.00000000000E+00 0.  1.
         21   -1    0    0  502  503 -0.00000000000E+00 -0.00000000000E+00 -0.40124561521E+02  0.40124561521E+02  0.00000000000E+00 0.  1.
         -6    2    1    2    0  503 -0.29007701242E+02 -0.13039904198E+03  0.12820322683E+04  0.13003078155E+04  0.17131351766E+03 0.  0.
        -24    2    3    3    0    0 -0.82058453177E+02 -0.98517967648E+02  0.99168597271E+03  0.10034006810E+04  0.83261506587E+02 0.  0.
          6    2    1    2  501    0  0.29007701242E+02  0.13039904198E+03  0.35031429156E+03  0.41228786735E+03  0.17151042480E+03 0.  0.
         24    2    5    5    0    0  0.16259045823E+01  0.14930027397E+03  0.22792127460E+03  0.28536600178E+03  0.84808208251E+02 0.  0.
          5    1    5    5  501    0  0.27381796660E+02 -0.18901231984E+02  0.12239301696E+03  0.12692186557E+03  0.47000000000E+01 0. -1.
        -13    1    6    6    0    0 -0.40031906766E+02  0.59704245116E+02  0.80832117952E+02  0.10817107625E+03  0.00000000000E+00 0.  1.
         14    1    6    6    0    0  0.41657811348E+02  0.89596028852E+02  0.14708915665E+03  0.17719492553E+03  0.00000000000E+00 0. -1.
         -5    1    3    3    0  503  0.53050751935E+02 -0.31881074336E+02  0.29034629557E+03  0.29690713453E+03  0.47000000000E+01 0.  1.
         11    1    4    4    0    0  0.75759633306E+01 -0.49011986348E+02  0.37623256989E+03  0.37948717590E+03  0.00000000000E+00 0. -1.
        -12    1    4    4    0    0 -0.89634416508E+02 -0.49505981300E+02  0.61545340281E+03  0.62391350510E+03  0.00000000000E+00 0.  1.
</event>
<event>
12    1  0.8406581E-002  0.1962472E+03  0.7818608E-02  0.1153419E+00
         21   -1    0    0  503  502  0.00000000000E+00  0.00000000000E+00  0.10564716372E+04  0.10564716372E+04  0.00000000000E+00 0.  1.
         21   -1    0    0  501  503 -0.00000000000E+00 -0.00000000000E+00 -0.12957462861E+03  0.12957462861E+03  0.00000000000E+00 0.  1.
          6    2    1    2  501    0 -0.83167556990E+02 -0.41938583255E+02 -0.39647370129E+02  0.20021206415E+03  0.17273467912E+03 0.  0.
         24    2    3    3    0    0 -0.52213328899E+02  0.30032460563E+02  0.18272690965E+02  0.10266813117E+03  0.81109022432E+02 0.  0.
         -6    2    1    2    0  502  0.83167556990E+02  0.41938583255E+02  0.96654437867E+03  0.98583420162E+03  0.17025084387E+03 0.  0.
        -24    2    5    5    0    0 -0.16342542273E+02  0.34875244682E+02  0.33559871562E+03  0.34703323861E+03  0.79512322319E+02 0.  0.
          5    1    3    3  501    0 -0.30954228091E+02 -0.71971043818E+02 -0.57920061094E+02  0.97543932984E+02  0.47000000000E+01 0. -1.
        -11    1    4    4    0    0  0.15703600613E+02 -0.13868068274E+00 -0.14565828298E+02  0.21419282400E+02  0.00000000000E+00 0.  1.
         12    1    4    4    0    0 -0.67916929512E+02  0.30171141246E+02  0.32838519263E+02  0.81248848766E+02  0.00000000000E+00 0. -1.
         -5    1    5    5    0  502  0.99510099263E+02  0.70633385729E+01  0.63094566306E+03  0.63880096301E+03  0.47000000000E+01 0.  1.
         13    1    6    6    0    0 -0.30617182898E+02  0.54082492488E+02  0.20327766793E+03  0.21256560908E+03  0.00000000000E+00 0. -1.
        -14    1    6    6    0    0  0.14274640625E+02 -0.19207247806E+02  0.13232104768E+03  0.13446762954E+03  0.00000000000E+00 0.  1.
</event>
<event>
12    1  0.8406581E-002  0.2613420E+03  0.7818608E-02  0.1106434E+00
         21   -1    0    0  501  502  0.00000000000E+00  0.00000000000E+00  0.45636588815E+02  0.45636588815E+02  0.00000000000E+00 0.  1.
         21   -1    0    0  502  503 -0.00000000000E+00 -0.00000000000E+00 -0.19355092912E+04  0.19355092912E+04  0.00000000000E+00 0. -1.
         -6    2    1    2    0  503  0.19561612082E+03  0.13905818886E+00 -0.14194808925E+04  0.14433383752E+04  0.17330313045E+03 0.  0.
        -24    2    3    3    0    0  0.61395969620E+02 -0.26291067716E+02 -0.88983471537E+03  0.89629106142E+03  0.84090194264E+02 0.  0.
          6    2    1    2  501    0 -0.19561612082E+03 -0.13905818886E+00 -0.47039180983E+03  0.53780750478E+03  0.17234491982E+03 0.  0.
         24    2    5    5    0    0 -0.37859802722E+02 -0.24052914955E+02 -0.24671589674E+03  0.26301315888E+03  0.79342804715E+02 0.  0.
          5    1    5    5  501    0 -0.15775631809E+03  0.23913856766E+02 -0.22367591309E+03  0.27479434590E+03  0.47000000000E+01 0. -1.
        -13    1    6    6    0    0  0.10517681480E+02 -0.27579578638E+02 -0.34872427879E+02  0.45687427239E+02  0.00000000000E+00 0.  1.
         14    1    6    6    0    0 -0.48377484201E+02  0.35266636836E+01 -0.21184346886E+03  0.21732573164E+03  0.00000000000E+00 0. -1.
         -5    1    3    3    0  503  0.13422015120E+03  0.26430125905E+02 -0.52964617714E+03  0.54704731377E+03  0.47000000000E+01 0.  1.
         13    1    4    4    0    0  0.58269881859E+02 -0.50576059327E+02 -0.52546792588E+03  0.53110249297E+03  0.00000000000E+00 0. -1.
        -14    1    4    4    0    0  0.31260877613E+01  0.24284991611E+02 -0.36436678949E+03  0.36518856845E+03  0.00000000000E+00 0.  1.
</event>
<event>
12    1  0.8406581E-002  0.2731782E+03  0.7818608E-02  0.1099555E+00
         21   -1    0    0  503  502  0.00000000000E+00  0.00000000000E+00  0.55509594927E+02  0.55509594927E+02  0.00000000000E+00 0.  1.
         21   -1    0    0  501  503 -0.00000000000E+00 -0.00000000000E+00 -0.24028908223E+04  0.24028908223E+04  0.00000000000E+00 0. -1.
          6    2    1    2  501    0 -0.16922257995E+03  0.12795805922E+03 -0.19912852845E+04  0.20099361763E+04  0.17209532815E+03 0.  0.
         24    2    3    3    0    0 -0.12759728893E+03  0.24611399667E+02 -0.89032606664E+03  0.90334389080E+03  0.80392107658E+02 0.  0.
         -6    2    1    2    0  502  0.16922257995E+03 -0.12795805922E+03 -0.35609594282E+03  0.44846424089E+03  0.17119085367E+03 0.  0.
        -24    2    5    5    0    0  0.79097475146E+02 -0.31538528549E+02 -0.77727312285E+02  0.14035639471E+03  0.80045568926E+02 0.  0.
          5    1    3    3  501    0 -0.41625291026E+02  0.10334665955E+03 -0.11009592179E+04  0.11065922855E+04  0.47000000000E+01 0. -1.
        -11    1    4    4    0    0 -0.11199001226E+03  0.48072752196E+02 -0.78065079673E+03  0.79010658697E+03  0.00000000000E+00 0.  1.
         12    1    4    4    0    0 -0.15607276666E+02 -0.23461352529E+02 -0.10967526991E+03  0.11323730382E+03  0.00000000000E+00 0. -1.
         -5    1    5    5    0  502  0.90125104805E+02 -0.96419530669E+02 -0.27836863053E+03  0.30810784618E+03  0.47000000000E+01 0.  1.
         13    1    6    6    0    0  0.11479725404E+02  0.18469216759E+02 -0.45247061747E+02  0.50201520492E+02  0.00000000000E+00 0. -1.
        -14    1    6    6    0    0  0.67617749743E+02 -0.50007745307E+02 -0.32480250539E+02  0.90154874222E+02  0.00000000000E+00 0.  1.
</event>
<event>
12    1  0.8406581E-002  0.2071991E+03  0.7818608E-02  0.1145238E+00
         21   -1    0    0  501  502  0.00000000000E+00  0.00000000000E+00  0.38832093700E+03  0.38832093700E+03  0.00000000000E+00 0. -1.
         21   -1    0    0  502  503 -0.00000000000E+00 -0.00000000000E+00 -0.12042466952E+03  0.12042466952E+03  0.00000000000E+00 0. -1.
         -6    2    1    2    0  503 -0.10929144341E+03 -0.35763981733E+02  0.21727575268E+03  0.29545260331E+03  0.16388961562E+03 0.  0.
        -24    2    3    3    0    0 -0.91106924656E+02 -0.83845520258E+02  0.15754103968E+03  0.21650428473E+03  0.82002336166E+02 0.  0.
          6    2    1    2  501    0  0.10929144341E+03  0.35763981733E+02  0.50620514802E+02  0.21329300321E+03  0.17235946945E+03 0.  0.
         24    2    5    5    0    0  0.66617992814E+02 -0.44908001744E+02  0.11232664172E+02  0.11378177228E+03  0.79783666070E+02 0.  0.
          5    1    5    5  501    0  0.42673450594E+02  0.80671983477E+02  0.39387850630E+02  0.99511230929E+02  0.47000000000E+01 0. -1.
        -13    1    6    6    0    0  0.15294269992E+01 -0.25620795156E+02 -0.25849949343E+02  0.36427793954E+02  0.00000000000E+00 0.  1.
         14    1    6    6    0    0  0.65088565814E+02 -0.19287206589E+02  0.37082613515E+02  0.77353978326E+02  0.00000000000E+00 0. -1.
         -5    1    3    3    0  503 -0.18184518752E+02  0.48081538525E+02  0.59734712995E+02  0.78948318575E+02  0.47000000000E+01 0.  1.
         11    1    4    4    0    0 -0.80279925730E+02 -0.19041777303E+02  0.94496278868E+02  0.12544720993E+03  0.00000000000E+00 0. -1.
        -12    1    4    4    0    0 -0.10826998926E+02 -0.64803742955E+02  0.63044760814E+02  0.91057074809E+02  0.00000000000E+00 0.  1.
</event>
<event>
12    1  0.8406581E-002  0.1930371E+03  0.7818608E-02  0.1156224E+00
         21   -1    0    0  501  502  0.00000000000E+00  0.00000000000E+00  0.39170309593E+03  0.39170309593E+03  0.00000000000E+00 0. -1.
         21   -1    0    0  502  503 -0.00000000000E+00 -0.00000000000E+00 -0.99903124250E+02  0.99903124250E+02  0.00000000000E+00 0. -1.
         -6    2    1    2    0  503  0.87944959836E+02  0.14506369444E+02  0.85809745629E+02  0.20930266960E+03  0.16881808062E+03 0.  0.
        -24    2    3    3    0    0  0.10708855832E+03 -0.29634819085E+02  0.40835292371E+02  0.14327454428E+03  0.80708686709E+02 0.  0.
          6    2    1    2  501    0 -0.87944959836E+02 -0.14506369444E+02  0.20599022605E+03  0.28230355057E+03  0.17122666476E+03 0.  0.
         24    2    5    5    0    0 -0.78010572368E+02 -0.56537066927E+02  0.20330214671E+03  0.23877669270E+03  0.80002854850E+02 0.  0.
          5    1    5    5  501    0 -0.99343874680E+01  0.42030697483E+02  0.26880793364E+01  0.43526857867E+02  0.47000000000E+01 0. -1.
        -11    1    6    6    0    0 -0.24790663764E+01 -0.21745478602E+02  0.32468532461E+01  0.22125859661E+02  0.00000000000E+00 0.  1.
         12    1    6    6    0    0 -0.75531505991E+02 -0.34791588325E+02  0.20005529346E+03  0.21665083304E+03  0.00000000000E+00 0. -1.
         -5    1    3    3    0  503 -0.19143598487E+02  0.44141188528E+02  0.44974453258E+02  0.66028125322E+02  0.47000000000E+01 0.  1.
         11    1    4    4    0    0  0.67367298600E+02  0.40440414664E+01 -0.12605565324E+02  0.68655716945E+02  0.00000000000E+00 0. -1.
        -12    1    4    4    0    0  0.39721259722E+02 -0.33678860551E+02  0.53440857695E+02  0.74618827337E+02  0.00000000000E+00 0.  1.
</event>
<event>
12    1  0.8406581E-002  0.2005134E+03  0.7818608E-02  0.1149359E+00
         21   -1    0    0  503  502  0.00000000000E+00  0.00000000000E+00  0.35369065390E+02  0.35369065390E+02  0.00000000000E+00 0.  1.
         21   -1    0    0  501  503 -0.00000000000E+00 -0.00000000000E+00 -0.11665304603E+04  0.11665304603E+04  0.00000000000E+00 0.  1.
          6    2    1    2  501    0  0.83813033620E+02 -0.57771076872E+02 -0.46765709569E+03  0.50883078828E+03  0.17275268457E+03 0.  0.
         24    2    3    3    0    0  0.11057340049E+03 -0.99183885492E+01 -0.39581907732E+03  0.41833886656E+03  0.77522989964E+02 0.  0.
         -6    2    1    2    0  502 -0.83813033620E+02  0.57771076872E+02 -0.66350429922E+03  0.69306873741E+03  0.17246506244E+03 0.  0.
        -24    2    5    5    0    0 -0.78279093938E+02  0.43548318116E+00 -0.22888109646E+03  0.25461986563E+03  0.79479012704E+02 0.  0.
          5    1    3    3  501    0 -0.26760366868E+02 -0.47852688322E+02 -0.71838018371E+02  0.90491921728E+02  0.47000000000E+01 0. -1.
        -11    1    4    4    0    0  0.27909404709E+02  0.15143860182E+02 -0.22179021394E+03  0.22405171361E+03  0.00000000000E+00 0.  1.
         12    1    4    4    0    0  0.82663995779E+02 -0.25062248731E+02 -0.17402886338E+03  0.19428715294E+03  0.00000000000E+00 0. -1.
         -5    1    5    5    0  502 -0.55339396818E+01  0.57335593690E+02 -0.43462320275E+03  0.43844887178E+03  0.47000000000E+01 0.  1.
         11    1    6    6    0    0 -0.25226058163E+02  0.37673544994E+02 -0.74917667744E+02  0.87568869714E+02  0.00000000000E+00 0. -1.
        -12    1    6    6    0    0 -0.53053035775E+02 -0.37238061813E+02 -0.15396342872E+03  0.16705099591E+03  0.00000000000E+00 0.  1.
</event>
<event>
12    1  0.8406581E-002  0.1766453E+03  0.7818608E-02  0.1171364E+00
         21   -1    0    0  501  502  0.00000000000E+00  0.00000000000E+00  0.29259084059E+03  0.29259084059E+03  0.00000000000E+00 0. -1.
         21   -1    0    0  502  503 -0.00000000000E+00 -0.00000000000E+00 -0.10874251689E+03  0.10874251689E+03  0.00000000000E+00 0. -1.
         -6    2    1    2    0  503 -0.41183852303E+02 -0.13759390790E+02  0.12362510466E+03  0.21470435852E+03  0.17008634437E+03 0.  0.
        -24    2    3    3    0    0 -0.82446426111E+02 -0.16987456446E+02  0.42111374734E+02  0.12316421120E+03  0.79435937602E+02 0.  0.
          6    2    1    2  501    0  0.41183852303E+02  0.13759390790E+02  0.60223219033E+02  0.18662899895E+03  0.17122533870E+03 0.  0.
         24    2    5    5    0    0  0.86842448352E+02 -0.53592239207E+01  0.16201718590E+02  0.12021957701E+03  0.81362884010E+02 0.  0.
          5    1    5    5  501    0 -0.45658596049E+02  0.19118614711E+02  0.44021500443E+02  0.66409421943E+02  0.47000000000E+01 0. -1.
        -11    1    6    6    0    0 -0.12775727076E+02 -0.66027929528E+01 -0.96195881332E+01  0.17301807794E+02  0.00000000000E+00 0.  1.
         12    1    6    6    0    0  0.99618175428E+02  0.12435690321E+01  0.25821306723E+02  0.10291776922E+03  0.00000000000E+00 0. -1.
         -5    1    3    3    0  503  0.41262573808E+02  0.32280656563E+01  0.81513729931E+02  0.91540147326E+02  0.47000000000E+01 0.  1.
         11    1    4    4    0    0 -0.26810886081E+02  0.27457294100E+01 -0.22888874515E+02  0.35359061342E+02  0.00000000000E+00 0. -1.
        -12    1    4    4    0    0 -0.55635540030E+02 -0.19733185856E+02  0.65000249249E+02  0.87805149854E+02  0.00000000000E+00 0.  1.
</event>
<event>
12    1  0.8406581E-002  0.2038659E+03  0.7818608E-02  0.1146785E+00
         21   -1    0    0  503  502  0.00000000000E+00  0.00000000000E+00  0.38789898837E+03  0.38789898837E+03  0.00000000000E+00 0.  1.
         21   -1    0    0  501  503 -0.00000000000E+00 -0.00000000000E+00 -0.18388074369E+03  0.18388074369E+03  0.00000000000E+00 0.  1.
          6    2    1    2  501    0  0.74074954508E+02 -0.79229063363E+02 -0.83303233427E+02  0.22022880394E+03  0.17261794234E+03 0.  0.
         24    2    3    3    0    0  0.11084858625E+03 -0.91396074147E+02 -0.86416552836E+02  0.18108651350E+03  0.68438682952E+02 0.  0.
         -6    2    1    2    0  502 -0.74074954508E+02  0.79229063363E+02  0.28732147810E+03  0.35155092812E+03  0.17108500786E+03 0.  0.
        -24    2    5    5    0    0 -0.89166546488E+02  0.33703485445E+02  0.11710381684E+03  0.17464282599E+03  0.87750867843E+02 0.  0.
          5    1    3    3  501    0 -0.36773631742E+02  0.12167010783E+02  0.31133194087E+01  0.39142290436E+02  0.47000000000E+01 0. -1.
        -11    1    4    4    0    0  0.26542825107E+01 -0.21618749635E+02  0.60174228575E+01  0.22597011512E+02  0.00000000000E+00 0.  1.
         12    1    4    4    0    0  0.10819430374E+03 -0.69777324512E+02 -0.92433975693E+02  0.15848950199E+03  0.00000000000E+00 0. -1.
         -5    1    5    5    0  502  0.15091591980E+02  0.45525577918E+02  0.17021766126E+03  0.17690810213E+03  0.47000000000E+01 0.  1.
         11    1    6    6    0    0 -0.35204112972E+02  0.47810623569E+02  0.19983745065E+02  0.62646112114E+02  0.00000000000E+00 0. -1.
        -12    1    6    6    0    0 -0.53962433517E+02 -0.14107138124E+02  0.97120071780E+02  0.11199671388E+03  0.00000000000E+00 0.  1.
</event>
<event>
12    1  0.8406581E-002  0.2800035E+03  0.7818608E-02  0.1095699E+00
         21   -1    0    0  503  502  0.00000000000E+00  0.00000000000E+00  0.16392149732E+03  0.16392149732E+03  0.00000000000E+00 0. -1.
         21   -1    0    0  501  503 -0.00000000000E+00 -0.00000000000E+00 -0.54421666260E+03  0.54421666260E+03  0.00000000000E+00 0.  1.
          6    2    1    2  501    0 -0.16221221939E+03 -0.14949165624E+03 -0.31349429782E+03  0.42027658143E+03  0.17231706454E+03 0.  0.
         24    2    3    3    0    0 -0.67070530805E+02 -0.60225660465E+02 -0.25383671741E+03  0.27674443936E+03  0.63472981094E+02 0.  0.
         -6    2    1    2    0  502  0.16221221939E+03  0.14949165624E+03 -0.66800867459E+02  0.28786157848E+03  0.17245687307E+03 0.  0.
        -24    2    5    5    0    0  0.40215562444E+02  0.12821057827E+03 -0.31575846156E+02  0.15902462450E+03  0.78971851272E+02 0.  0.
          5    1    3    3  501    0 -0.95141688590E+02 -0.89265995770E+02 -0.59657580412E+02  0.14353214208E+03  0.47000000000E+01 0. -1.
        -11    1    4    4    0    0  0.12271230785E+02 -0.11137626191E+02 -0.47086883404E+02  0.49917976831E+02  0.00000000000E+00 0.  1.
         12    1    4    4    0    0 -0.79341761590E+02 -0.49088034274E+02 -0.20674983400E+03  0.22682646253E+03  0.00000000000E+00 0. -1.
         -5    1    5    5    0  502  0.12199665695E+03  0.21281077965E+02 -0.35225021303E+02  0.12883695399E+03  0.47000000000E+01 0.  1.
         11    1    6    6    0    0  0.43930425771E+02  0.72343040999E+02  0.15291693862E+02  0.86007172902E+02  0.00000000000E+00 0. -1.
        -12    1    6    6    0    0 -0.37148633267E+01  0.55867537271E+02 -0.46867540018E+02  0.73017451596E+02  0.00000000000E+00 0.  1.
</event>
<event>
12    1  0.8406581E-002  0.2869721E+03  0.7818608E-02  0.1092117E+00
         21   -1    0    0  503  502  0.00000000000E+00  0.00000000000E+00  0.28897363331E+03  0.28897363331E+03  0.00000000000E+00 0. -1.
         21   -1    0    0  501  503 -0.00000000000E+00 -0.00000000000E+00 -0.36836112771E+03  0.36836112771E+03  0.00000000000E+00 0.  1.
          6    2    1    2  501    0 -0.48309440992E+02 -0.22297726495E+03 -0.19735848949E+03  0.34828632031E+03  0.17406988473E+03 0.  0.
         24    2    3    3    0    0 -0.53466405529E+02 -0.12615397452E+03 -0.19483979294E+03  0.25117927790E+03  0.79718272254E+02 0.  0.
         -6    2    1    2    0  502  0.48309440992E+02  0.22297726495E+03  0.11797099509E+03  0.30904844071E+03  0.17187530437E+03 0.  0.
        -24    2    5    5    0    0 -0.29172791215E+02  0.10886201173E+03  0.16228472570E+02  0.13758585525E+03  0.77230271908E+02 0.  0.
          5    1    3    3  501    0  0.51569645370E+01 -0.96823290429E+02 -0.25186965546E+01  0.97107042407E+02  0.47000000000E+01 0. -1.
        -13    1    4    4    0    0 -0.60862077049E+02 -0.80600434843E+02 -0.84884910805E+02  0.13193206813E+03  0.00000000000E+00 0.  1.
         14    1    4    4    0    0  0.73956715197E+01 -0.45553539674E+02 -0.10995488213E+03  0.11924720977E+03  0.00000000000E+00 0. -1.
         -5    1    5    5    0  502  0.77482232207E+02  0.11411525322E+03  0.10174252252E+03  0.17146258546E+03  0.47000000000E+01 0.  1.
         11    1    6    6    0    0 -0.24887463058E+02  0.54056159406E+02 -0.29184364391E+02  0.66281078085E+02  0.00000000000E+00 0. -1.
        -12    1    6    6    0    0 -0.42853281562E+01  0.54805852321E+02  0.45412836961E+02  0.71304777167E+02  0.00000000000E+00 0.  1.
</event>
<event>
12    1  0.8406581E-002  0.3638966E+03  0.7818608E-02  0.1057070E+00
         21   -1    0    0  501  502  0.00000000000E+00  0.00000000000E+00  0.19361901801E+03  0.19361901801E+03  0.00000000000E+00 0. -1.
         21   -1    0    0  502  503 -0.00000000000E+00 -0.00000000000E+00 -0.72169079075E+03  0.72169079075E+03  0.00000000000E+00 0.  1.
         -6    2    1    2    0  503 -0.31804866858E+03 -0.29410006261E+02 -0.36916186521E+03  0.51822907262E+03  0.17395684788E+03 0.  0.
        -24    2    3    3    0    0 -0.15832168393E+03 -0.40183272216E+02 -0.10471173236E+03  0.20906126114E+03  0.77856361653E+02 0.  0.
          6    2    1    2  501    0  0.31804866858E+03  0.29410006261E+02 -0.15890990753E+03  0.39708073614E+03  0.17435839025E+03 0.  0.
         24    2    5    5    0    0  0.31753563626E+03  0.39478266105E+02 -0.17942779257E+03  0.37374178447E+03  0.71422509937E+02 0.  0.
          5    1    5    5  501    0  0.51303232130E+00 -0.10068259844E+02  0.20517885042E+02  0.23338951670E+02  0.47000000000E+01 0. -1.
        -13    1    6    6    0    0  0.29923118133E+03  0.19664707558E+02 -0.15606644978E+03  0.33805729892E+03  0.00000000000E+00 0.  1.
         14    1    6    6    0    0  0.18304454929E+02  0.19813558547E+02 -0.23361342789E+02  0.35684485557E+02  0.00000000000E+00 0. -1.
         -5    1    3    3    0  503 -0.15972698465E+03  0.10773265954E+02 -0.26445013285E+03  0.30916781147E+03  0.47000000000E+01 0.  1.
         11    1    4    4    0    0 -0.11260645123E+03 -0.13095272975E+02 -0.10698250898E+03  0.15587480958E+03  0.00000000000E+00 0. -1.
        -12    1    4    4    0    0 -0.45715232700E+02 -0.27087999240E+02  0.22707766264E+01  0.53186451565E+02  0.00000000000E+00 0.  1.
</event>
<event>
12    1  0.8406581E-002  0.2430393E+03  0.7818608E-02  0.1118322E+00
         21   -1    0    0  501  502  0.00000000000E+00  0.00000000000E+00  0.23424138614E+03  0.23424138614E+03  0.00000000000E+00 0. -1.
         21   -1    0    0  502  503 -0.00000000000E+00 -0.00000000000E+00 -0.33686853765E+03  0.33686853765E+03  0.00000000000E+00 0.  1.
         -6    2    1    2    0  503 -0.15124526545E+03  0.71872029089E+02 -0.19706288753E+03  0.31036828793E+03  0.17162160011E+03 0.  0.
        -24    2    3    3    0    0 -0.24030267465E+02  0.64790323328E+02 -0.12745262390E+03  0.16510478573E+03  0.78994804765E+02 0.  0.
          6    2    1    2  501    0  0.15124526545E+03 -0.71872029089E+02  0.94435736014E+02  0.26074163586E+03  0.17614588711E+03 0.  0.
         24    2    5    5    0    0  0.40861437963E+02 -0.92579825764E+02  0.33153715011E+02  0.13271437973E+03  0.79203892054E+02 0.  0.
          5    1    5    5  501    0  0.11038382749E+03  0.20707796675E+02  0.61282021003E+02  0.12802725613E+03  0.47000000000E+01 0. -1.
        -11    1    6    6    0    0 -0.17907052062E+02 -0.41381945219E+02  0.31044460244E+02  0.54743825364E+02  0.00000000000E+00 0.  1.
         12    1    6    6    0    0  0.58768490025E+02 -0.51197880545E+02  0.21092547676E+01  0.77970554363E+02  0.00000000000E+00 0. -1.
         -5    1    3    3    0  503 -0.12721499799E+03  0.70817057609E+01 -0.69610263629E+02  0.14526350220E+03  0.47000000000E+01 0.  1.
         11    1    4    4    0    0 -0.27021032679E+01 -0.18470898774E+02 -0.28080999024E+02  0.33719697060E+02  0.00000000000E+00 0. -1.
        -12    1    4    4    0    0 -0.21328164197E+02  0.83261222102E+02 -0.99371624879E+02  0.13138508867E+03  0.00000000000E+00 0.  1.
</event>
<event>
12    1  0.8406581E-002  0.2457257E+03  0.7818608E-02  0.1116091E+00
         21   -1    0    0  501  502  0.00000000000E+00  0.00000000000E+00  0.87805290029E+03  0.87805290029E+03  0.00000000000E+00 0. -1.
         21   -1    0    0  502  503 -0.00000000000E+00 -0.00000000000E+00 -0.77938478199E+02  0.77938478199E+02  0.00000000000E+00 0. -1.
         -6    2    1    2    0  503  0.13261162885E+02 -0.17445408703E+03  0.56462744536E+03  0.61564564845E+03  0.17206198151E+03 0.  0.
        -24    2    3    3    0    0 -0.50026368394E+02 -0.65315435957E+02  0.32624061448E+03  0.34589219081E+03  0.80247899764E+02 0.  0.
          6    2    1    2  501    0 -0.13261162885E+02  0.17445408703E+03  0.23548697673E+03  0.34034573003E+03  0.17254278548E+03 0.  0.
         24    2    5    5    0    0  0.83092612069E+01  0.30520103602E+01  0.60992440218E+02  0.94755851670E+02  0.71973849925E+02 0.  0.
          5    1    5    5  501    0 -0.21570424092E+02  0.17140207667E+03  0.17449453651E+03  0.24558987836E+03  0.47000000000E+01 0. -1.
        -13    1    6    6    0    0  0.38459283843E+02 -0.95155698668E+01  0.37186652577E+02  0.54337001330E+02  0.00000000000E+00 0.  1.
         14    1    6    6    0    0 -0.30150022636E+02  0.12567580227E+02  0.23805787640E+02  0.40418850341E+02  0.00000000000E+00 0. -1.
         -5    1    3    3    0  503  0.63287531279E+02 -0.10913865107E+03  0.23838683088E+03  0.26975345765E+03  0.47000000000E+01 0.  1.
         13    1    4    4    0    0  0.13342864315E+01 -0.41931616836E+02  0.56848604965E+02  0.70652704812E+02  0.00000000000E+00 0. -1.
        -14    1    4    4    0    0 -0.51360654826E+02 -0.23383819120E+02  0.26939200951E+03  0.27523948599E+03  0.00000000000E+00 0.  1.
</event>
<event>
12    1  0.8406581E-002  0.2110424E+03  0.7818608E-02  0.1141144E+00
         21   -1    0    0  503  502  0.00000000000E+00  0.00000000000E+00  0.82114538662E+03  0.82114538662E+03  0.00000000000E+00 0.  1.
         21   -1    0    0  501  503 -0.00000000000E+00 -0.00000000000E+00 -0.81366922452E+02  0.81366922452E+02  0.00000000000E+00 0. -1.
          6    2    1    2  501    0  0.26622567748E+02 -0.11794199562E+03  0.63174968090E+03  0.66542768679E+03  0.17049126541E+03 0.  0.
         24    2    3    3    0    0  0.51331465185E+02 -0.14323822888E+03  0.49579840194E+03  0.52487424755E+03  0.80776301261E+02 0.  0.
         -6    2    1    2    0  502 -0.26622567748E+02  0.11794199562E+03  0.10802878327E+03  0.23708462229E+03  0.17297347966E+03 0.  0.
        -24    2    5    5    0    0 -0.37129684420E+02 -0.42524828699E+01  0.52120902656E+02  0.10221553321E+03  0.79591014941E+02 0.  0.
          5    1    3    3  501    0 -0.24708897437E+02  0.25296233260E+02  0.13595127896E+03  0.14055343924E+03  0.47000000000E+01 0. -1.
        -13    1    4    4    0    0 -0.20602164321E+02 -0.40302310507E+02  0.16310503616E+03  0.16926895234E+03  0.00000000000E+00 0.  1.
         14    1    4    4    0    0  0.71933629507E+02 -0.10293591838E+03  0.33269336578E+03  0.35560529521E+03  0.00000000000E+00 0. -1.
         -5    1    5    5    0  502  0.10507116672E+02  0.12219447849E+03  0.55907880617E+02  0.13486908908E+03  0.47000000000E+01 0.  1.
         11    1    6    6    0    0 -0.58651261599E+02 -0.78583222615E+01  0.18253268453E+02  0.61926614029E+02  0.00000000000E+00 0. -1.
        -12    1    6    6    0    0  0.21521577179E+02  0.36058393916E+01  0.33867634203E+02  0.40288919177E+02  0.00000000000E+00 0.  1.
</event>
<event>
12    1  0.8406581E-002  0.2075048E+03  0.7818608E-02  0.1143881E+00
         21   -1    0    0  503  502  0.00000000000E+00  0.00000000000E+00  0.17183546662E+03  0.17183546662E+03  0.00000000000E+00 0. -1.
         21   -1    0    0  501  503 -0.00000000000E+00 -0.00000000000E+00 -0.46479681047E+03  0.46479681047E+03  0.00000000000E+00 0. -1.
          6    2    1    2  501    0  0.62832393415E+02 -0.98865615988E+02 -0.36385705387E+03  0.41886777471E+03  0.17127736964E+03 0.  0.
         24    2    3    3    0    0  0.69958286234E+01 -0.82871107122E+02 -0.11254695504E+03  0.16089025233E+03  0.79386990060E+02 0.  0.
         -6    2    1    2    0  502 -0.62832393415E+02  0.98865615988E+02  0.70895710017E+02  0.21776450238E+03  0.16933061481E+03 0.  0.
        -24    2    5    5    0    0 -0.52221055739E+02  0.12827407448E+03  0.23377330143E+02  0.16068960121E+03  0.78060050760E+02 0.  0.
          5    1    3    3  501    0  0.55836564791E+02 -0.15994508865E+02 -0.25131009883E+03  0.25797752238E+03  0.47000000000E+01 0. -1.
        -11    1    4    4    0    0  0.64321914493E+01  0.76957826494E+00  0.10362107754E+02  0.12220417941E+02  0.00000000000E+00 0.  1.
         12    1    4    4    0    0  0.56363717406E+00 -0.83640685387E+02 -0.12290906280E+03  0.14866983439E+03  0.00000000000E+00 0. -1.
         -5    1    5    5    0  502 -0.10611337676E+02 -0.29408458496E+02  0.47518379874E+02  0.57074901176E+02  0.47000000000E+01 0.  1.
         13    1    6    6    0    0 -0.27731139743E+02  0.97176042367E+02  0.50236884622E+02  0.11285363928E+03  0.00000000000E+00 0. -1.
        -14    1    6    6    0    0 -0.24489915996E+02  0.31098032117E+02 -0.26859554479E+02  0.47835961931E+02  0.00000000000E+00 0.  1.
</event>
<event>
12    1  0.8406581E-002  0.2144000E+03  0.7818608E-02  0.1138236E+00
         21   -1    0    0  501  502  0.00000000000E+00  0.00000000000E+00  0.91307237326E+03  0.91307237326E+03  0.00000000000E+00 0.  1.
         21   -1    0    0  502  503 -0.00000000000E+00 -0.00000000000E+00 -0.65781976231E+02  0.65781976231E+02  0.00000000000E+00 0. -1.
         -6    2    1    2    0  503  0.10498989114E+03 -0.73403161349E+02  0.18595956028E+03  0.28381039097E+03  0.17191997740E+03 0.  0.
        -24    2    3    3    0    0  0.20702651269E+02  0.11711583717E+02  0.38010669923E+02  0.93390269164E+02  0.81921733282E+02 0.  0.
          6    2    1    2  501    0 -0.10498989114E+03  0.73403161349E+02  0.66133083675E+03  0.69504395851E+03  0.17122128166E+03 0.  0.
         24    2    5    5    0    0 -0.60396246601E+02  0.79294836324E+02  0.25087692768E+03  0.28210594084E+03  0.81909409384E+02 0.  0.
          5    1    5    5  501    0 -0.44593644540E+02 -0.58916749758E+01  0.41045390907E+03  0.41293801767E+03  0.47000000000E+01 0. -1.
        -11    1    6    6    0    0  0.13155211208E+02  0.46778228065E+02  0.95308754173E+02  0.10698140411E+03  0.00000000000E+00 0.  1.
         12    1    6    6    0    0 -0.73551457809E+02  0.32516608259E+02  0.15556817350E+03  0.17512453673E+03  0.00000000000E+00 0. -1.
         -5    1    3    3    0  503  0.84287239872E+02 -0.85114745066E+02  0.14794889035E+03  0.19042012181E+03  0.47000000000E+01 0.  1.
         13    1    4    4    0    0  0.35038395853E+02 -0.26077654862E+02  0.11889437086E+02  0.45266897191E+02  0.00000000000E+00 0. -1.
        -14    1    4    4    0    0 -0.14335744584E+02  0.37789238579E+02  0.26121232837E+02  0.48123371974E+02  0.00000000000E+00 0.  1.
</event>
<event>
12    1  0.8406581E-002  0.1973645E+03  0.7818608E-02  0.1152005E+00
         21   -1    0    0  501  502  0.00000000000E+00  0.00000000000E+00  0.17646962068E+03  0.17646962068E+03  0.00000000000E+00 0. -1.
         21   -1    0    0  502  503 -0.00000000000E+00 -0.00000000000E+00 -0.75666308962E+03  0.75666308962E+03  0.00000000000E+00 0. -1.
         -6    2    1    2    0  503  0.26473365512E+02  0.93963136370E+02 -0.68282268590E+03  0.71077392506E+03  0.17153087792E+03 0.  0.
        -24    2    3    3    0    0 -0.34063023056E+02  0.85566200950E+02 -0.31466325932E+03  0.33754662669E+03  0.80267640670E+02 0.  0.
          6    2    1    2  501    0 -0.26473365512E+02 -0.93963136370E+02  0.10262921696E+03  0.22235878524E+03  0.17140817695E+03 0.  0.
         24    2    5    5    0    0 -0.11650539566E+01 -0.80677583025E+02 -0.35905033175E+01  0.11226003168E+03  0.77969181382E+02 0.  0.
          5    1    5    5  501    0 -0.25308311556E+02 -0.13285553344E+02  0.10621972027E+03  0.11009875356E+03  0.47000000000E+01 0. -1.
        -13    1    6    6    0    0  0.34841398805E+02 -0.21160952349E+02  0.85413601096E+01  0.41649295403E+02  0.00000000000E+00 0.  1.
         14    1    6    6    0    0 -0.36006452762E+02 -0.59516630676E+02 -0.12131863427E+02  0.70610736278E+02  0.00000000000E+00 0. -1.
         -5    1    3    3    0  503  0.60536388568E+02  0.83969354199E+01 -0.36815942658E+03  0.37322729837E+03  0.47000000000E+01 0.  1.
         11    1    4    4    0    0 -0.15707679198E+02  0.91249378325E+02 -0.29819729729E+03  0.31224158650E+03  0.00000000000E+00 0. -1.
        -12    1    4    4    0    0 -0.18355343858E+02 -0.56831773755E+01 -0.16465962027E+02  0.25305040184E+02  0.00000000000E+00 0.  1.
</event>
<event>
12    1  0.8406581E-002  0.2009994E+03  0.7818608E-02  0.1149060E+00
         21   -1    0    0  503  502  0.00000000000E+00  0.00000000000E+00  0.21578049861E+04  0.21578049861E+04  0.00000000000E+00 0.  1.
         21   -1    0    0  501  503 -0.00000000000E+00 -0.00000000000E+00 -0.18654344200E+02  0.18654344200E+02  0.00000000000E+00 0.  1.
          6    2    1    2  501    0  0.25548034947E+02  0.10046050561E+03  0.10845638174E+04  0.11030319302E+04  0.17220844887E+03 0.  0.
         24    2    3    3    0    0 -0.24732533138E+02  0.11738222339E+03  0.68916017483E+03  0.70405748167E+03  0.79780363284E+02 0.  0.
         -6    2    1    2    0  502 -0.25548034947E+02 -0.10046050561E+03  0.10545868245E+04  0.10734274001E+04  0.17131257248E+03 0.  0.
        -24    2    5    5    0    0 -0.33962482860E+01 -0.13590610587E+03  0.85865820140E+03  0.87303476650E+03  0.80086157186E+02 0.  0.
          5    1    3    3  501    0  0.50280568085E+02 -0.16921717784E+02  0.39540364253E+03  0.39897444854E+03  0.47000000000E+01 0. -1.
        -13    1    4    4    0    0 -0.15286403860E+02  0.28223015147E+02  0.55718750698E+02  0.64302347595E+02  0.00000000000E+00 0.  1.
         14    1    4    4    0    0 -0.94461292780E+01  0.89159208243E+02  0.63344142413E+03  0.63975513407E+03  0.00000000000E+00 0. -1.
         -5    1    5    5    0  502 -0.22151786661E+02  0.35445600266E+02  0.19592862312E+03  0.20039263357E+03  0.47000000000E+01 0.  1.
         11    1    6    6    0    0 -0.12190750233E+02 -0.76675598521E+02  0.25878596550E+03  0.27018130531E+03  0.00000000000E+00 0. -1.
        -12    1    6    6    0    0  0.87945019465E+01 -0.59230507352E+02  0.59987223590E+03  0.60285346119E+03  0.00000000000E+00 0.  1.
</event>
<event>
12    1  0.8406581E-002  0.2189997E+03  0.7818608E-02  0.1134710E+00
         21   -1    0    0  501  502  0.00000000000E+00  0.00000000000E+00  0.46789180393E+03  0.46789180393E+03  0.00000000000E+00 0. -1.
         21   -1    0    0  502  503 -0.00000000000E+00 -0.00000000000E+00 -0.18384359407E+03  0.18384359407E+03  0.00000000000E+00 0.  1.
         -6    2    1    2    0  503  0.53609895082E+02  0.12296808960E+03 -0.75067277316E+02  0.23111110150E+03  0.17257483363E+03 0.  0.
        -24    2    3    3    0    0 -0.25524911125E+02  0.13207799908E+02 -0.32217291312E+02  0.89097545640E+02  0.77938769000E+02 0.  0.
          6    2    1    2  501    0 -0.53609895082E+02 -0.12296808960E+03  0.35911548718E+03  0.42062429650E+03  0.17310601885E+03 0.  0.
         24    2    5    5    0    0 -0.24667266033E+02  0.83385217372E+01  0.11629337943E+03  0.14302067986E+03  0.79074394152E+02 0.  0.
          5    1    5    5  501    0 -0.28942629049E+02 -0.13130661134E+03  0.24282210775E+03  0.27760361664E+03  0.47000000000E+01 0. -1.
        -13    1    6    6    0    0 -0.47717487313E+02 -0.13710827740E+02  0.56223263026E+02  0.75006671024E+02  0.00000000000E+00 0.  1.
         14    1    6    6    0    0  0.23050221279E+02  0.22049349477E+02  0.60070116402E+02  0.68014008836E+02  0.00000000000E+00 0. -1.
         -5    1    3    3    0  503  0.79134806208E+02  0.10976028969E+03 -0.42849986004E+02  0.14201355586E+03  0.47000000000E+01 0.  1.
         11    1    4    4    0    0 -0.42248318323E+02  0.34492150481E+02 -0.13494001354E+02  0.56184668001E+02  0.00000000000E+00 0. -1.
        -12    1    4    4    0    0  0.16723407197E+02 -0.21284350573E+02 -0.18723289958E+02  0.32912877639E+02  0.00000000000E+00 0.  1.
</event>
<event>
12    1  0.8406581E-002  0.3436764E+03  0.7818608E-02  0.1065384E+00
         21   -1    0    0  503  502  0.00000000000E+00  0.00000000000E+00  0.12799764314E+04  0.12799764314E+04  0.00000000000E+00 0.  1.
         21   -1    0    0  501  503 -0.00000000000E+00 -0.00000000000E+00 -0.19367583019E+03  0.19367583019E+03  0.00000000000E+00 0. -1.
          6    2    1    2  501    0  0.22188157668E+03  0.19687822952E+03  0.95634367297E+01  0.34380944152E+03  0.17355403029E+03 0.  0.
         24    2    3    3    0    0  0.22524363193E+03  0.18725252580E+03  0.45593489177E+02  0.30607070456E+03  0.76172880947E+02 0.  0.
         -6    2    1    2    0  502 -0.22188157668E+03 -0.19687822952E+03  0.10767371645E+04  0.11298428201E+04  0.17084907191E+03 0.  0.
        -24    2    5    5    0    0 -0.20482521088E+03 -0.20939168682E+03  0.10596858207E+04  0.11022684742E+04  0.79142308579E+02 0.  0.
          5    1    3    3  501    0 -0.33620552549E+01  0.96257037149E+01 -0.36030052447E+02  0.37738736954E+02  0.47000000000E+01 0. -1.
        -11    1    4    4    0    0  0.15826697235E+03  0.14509729514E+03  0.65472596646E+02  0.22447342940E+03  0.00000000000E+00 0.  1.
         12    1    4    4    0    0  0.66976659578E+02  0.42155230661E+02 -0.19879107469E+02  0.81597275163E+02  0.00000000000E+00 0. -1.
         -5    1    5    5    0  502 -0.17056365801E+02  0.12513457301E+02  0.17051343775E+02  0.27574345912E+02  0.47000000000E+01 0.  1.
         13    1    6    6    0    0 -0.36914802982E+02 -0.59591755815E+02  0.15664337295E+03  0.17161301329E+03  0.00000000000E+00 0. -1.
        -14    1    6    6    0    0 -0.16791040789E+03 -0.14979993100E+03  0.90304244775E+03  0.93065546087E+03  0.00000000000E+00 0.  1.
</event>
<event>
12    1  0.8406581E-002  0.2186208E+03  0.7818608E-02  0.1135071E+00
         21   -1    0    0  503  502  0.00000000000E+00  0.00000000000E+00  0.50834340628E+03  0.50834340628E+03  0.00000000000E+00 0.  1.
         21   -1    0    0  501  503 -0.00000000000E+00 -0.00000000000E+00 -0.93744392424E+02  0.93744392424E+02  0.00000000000E+00 0.  1.
          6    2    1    2  501    0 -0.85630276407E+02 -0.10698312308E+03  0.19904253151E+03  0.29565686154E+03  0.17034411514E+03 0.  0.
         24    2    3    3    0    0 -0.15923589112E+02 -0.38127840530E+02  0.17148377009E+03  0.19376649143E+03  0.80196489232E+02 0.  0.
         -6    2    1    2    0  502  0.85630276407E+02  0.10698312308E+03  0.21555648235E+03  0.30643093716E+03  0.16928493527E+03 0.  0.
        -24    2    5    5    0    0 -0.31820030908E+02  0.64005750142E+02  0.81791176968E+02  0.12324557695E+03  0.58227357747E+02 0.  0.
          5    1    3    3  501    0 -0.69706687295E+02 -0.68855282551E+02  0.27558761420E+02  0.10189037010E+03  0.47000000000E+01 0. -1.
        -11    1    4    4    0    0 -0.13753196074E+02 -0.43670956090E+02  0.36240930547E+02  0.58392703782E+02  0.00000000000E+00 0.  1.
         12    1    4    4    0    0 -0.21703930384E+01  0.55431155601E+01  0.13524283954E+03  0.13537378765E+03  0.00000000000E+00 0. -1.
         -5    1    5    5    0  502  0.11745030732E+03  0.42977372939E+02  0.13376530538E+03  0.18318536021E+03  0.47000000000E+01 0.  1.
         13    1    6    6    0    0 -0.64777812108E+01  0.48671537743E+02  0.79623959885E+02  0.93546005920E+02  0.00000000000E+00 0. -1.
        -14    1    6    6    0    0 -0.25342249697E+02  0.15334212398E+02  0.21672170827E+01  0.29699571032E+02  0.00000000000E+00 0.  1.
</event>
<event>
12    1  0.8406581E-002  0.2116021E+03  0.7818608E-02  0.1141484E+00
         21   -1    0    0  503  502  0.00000000000E+00  0.00000000000E+00  0.33590826376E+03  0.33590826376E+03  0.00000000000E+00 0.  1.
         21   -1    0    0  501  503 -0.00000000000E+00 -0.00000000000E+00 -0.12958833931E+03  0.12958833931E+03  0.00000000000E+00 0.  1.
          6    2    1    2  501    0 -0.12378772885E+03 -0.81752727168E+01  0.10561967602E+03  0.23649731550E+03  0.17142119873E+03 0.  0.
         24    2    3    3    0    0 -0.13388753123E+03 -0.53315080804E+02  0.77868377138E+02  0.18235091329E+03  0.80124918474E+02 0.  0.
         -6    2    1    2    0  502  0.12378772885E+03  0.81752727168E+01  0.10070024842E+03  0.22899928757E+03  0.16404236276E+03 0.  0.
        -24    2    5    5    0    0  0.10318748320E+02  0.56733672527E+01 -0.24834673026E+01  0.75537767106E+02  0.74572937361E+02 0.  0.
          5    1    3    3  501    0  0.10099802373E+02  0.45139808088E+02  0.27751298886E+02  0.54146402208E+02  0.47000000000E+01 0. -1.
        -13    1    4    4    0    0 -0.29753233610E+02 -0.91966654907E+01  0.60344807621E+02  0.67906769716E+02  0.00000000000E+00 0.  1.
         14    1    4    4    0    0 -0.10413429762E+03 -0.44118415314E+02  0.17523569518E+02  0.11444414357E+03  0.00000000000E+00 0. -1.
         -5    1    5    5    0  502  0.11346898053E+03  0.25019054640E+01  0.10318371572E+03  0.15346152047E+03  0.47000000000E+01 0.  1.
         11    1    6    6    0    0 -0.70541891570E+01  0.94775777915E+01  0.33433079267E+02  0.35459228062E+02  0.00000000000E+00 0. -1.
        -12    1    6    6    0    0  0.17372937477E+02 -0.38042105388E+01 -0.35916546570E+02  0.40078539044E+02  0.00000000000E+00 0.  1.
</event>
<event>
12    1  0.8406581E-002  0.1925653E+03  0.7818608E-02  0.1156225E+00
         21   -1    0    0  503  502  0.00000000000E+00  0.00000000000E+00  0.52430386600E+02  0.52430386600E+02  0.00000000000E+00 0.  1.
         21   -1    0    0  501  503 -0.00000000000E+00 -0.00000000000E+00 -0.18092737592E+04  0.18092737592E+04  0.00000000000E+00 0.  1.
          6    2    1    2  501    0  0.12825123949E+02  0.85157138300E+02 -0.16054465626E+04  0.16169539452E+04  0.17223580719E+03 0.  0.
         24    2    3    3    0    0  0.75248247877E+02  0.46514753878E+02 -0.10404230090E+04  0.10471613632E+04  0.78999758339E+02 0.  0.
         -6    2    1    2    0  502 -0.12825123949E+02 -0.85157138300E+02 -0.15139680990E+03  0.24475020058E+03  0.17194605150E+03 0.  0.
        -24    2    5    5    0    0 -0.42007002132E+02 -0.10817465104E+03 -0.15241383725E+03  0.20727337772E+03  0.79157639998E+02 0.  0.
          5    1    3    3  501    0 -0.62423123928E+02  0.38642384423E+02 -0.56502355368E+03  0.56979258199E+03  0.47000000000E+01 0. -1.
        -13    1    4    4    0    0  0.16974754311E+02  0.54719835719E+02 -0.40738167247E+03  0.41139060486E+03  0.00000000000E+00 0.  1.
         14    1    4    4    0    0  0.58273493566E+02 -0.82050818416E+01 -0.63304133650E+03  0.63577075833E+03  0.00000000000E+00 0. -1.
         -5    1    5    5    0  502  0.29181878183E+02  0.23017512743E+02  0.10170273445E+01  0.37476822861E+02  0.47000000000E+01 0.  1.
         11    1    6    6    0    0  0.25967619135E+01 -0.68903344444E+02 -0.12289638549E+03  0.14091818766E+03  0.00000000000E+00 0. -1.
        -12    1    6    6    0    0 -0.44603764046E+02 -0.39271306599E+02 -0.29517451759E+02  0.66355190056E+02  0.00000000000E+00 0.  1.
</event>
<event>
12    1  0.8406581E-002  0.1804472E+03  0.7818608E-02  0.1168286E+00
         21   -1    0    0  501  502  0.00000000000E+00  0.00000000000E+00  0.48698730313E+03  0.48698730313E+03  0.00000000000E+00 0.  1.
         21   -1    0    0  502  503 -0.00000000000E+00 -0.00000000000E+00 -0.99853877769E+02  0.99853877769E+02  0.00000000000E+00 0.  1.
         -6    2    1    2    0  503  0.27442374546E+02 -0.46930661354E+02  0.22749690569E+02  0.18187562802E+03  0.17206285116E+03 0.  0.
        -24    2    3    3    0    0  0.65047021103E+02  0.21448171833E+01  0.49876189481E+02  0.11419661369E+03  0.79482810136E+02 0.  0.
          6    2    1    2  501    0 -0.27442374546E+02  0.46930661354E+02  0.36438373480E+03  0.40496555289E+03  0.16812501880E+03 0.  0.
         24    2    5    5    0    0 -0.63039932056E+02 -0.16317286700E+02  0.22692535195E+03  0.24945225426E+03  0.80566897183E+02 0.  0.
          5    1    5    5  501    0  0.35597557510E+02  0.63247948053E+02  0.13745838285E+03  0.15551329863E+03  0.47000000000E+01 0. -1.
        -13    1    6    6    0    0  0.73148852443E+01  0.14295594436E+02  0.98905790411E+02  0.10020093285E+03  0.00000000000E+00 0.  1.
         14    1    6    6    0    0 -0.70354817300E+02 -0.30612881136E+02  0.12801956153E+03  0.14925132142E+03  0.00000000000E+00 0. -1.
         -5    1    3    3    0  503 -0.37604646557E+02 -0.49075478537E+02 -0.27126498911E+02  0.67679014321E+02  0.47000000000E+01 0.  1.
         11    1    4    4    0    0  0.22888756238E+02  0.37161308816E+02  0.61283938603E+01  0.44072840234E+02  0.00000000000E+00 0. -1.
        -12    1    4    4    0    0  0.42158264865E+02 -0.35016491632E+02  0.43747795621E+02  0.70123773460E+02  0.00000000000E+00 0.  1.
</event>
<event>
12    1  0.8406581E-002  0.2848826E+03  0.7818608E-02  0.1093140E+00
         21   -1    0    0  501  502  0.00000000000E+00  0.00000000000E+00  0.18774940769E+04  0.18774940769E+04  0.00000000000E+00 0.  1.
         21   -1    0    0  502  503 -0.00000000000E+00 -0.00000000000E+00 -0.15618999515E+03  0.15618999515E+03  0.00000000000E+00 0. -1.
         -6    2    1    2    0  503  0.19241666700E+03 -0.11695877509E+03 -0.42142570134E+01  0.28491372945E+03  0.17451230460E+03 0.  0.
        -24    2    3    3    0    0  0.20148605475E+03 -0.83129646662E+02  0.31921929882E+02  0.23437089883E+03  0.80022123184E+02 0.  0.
          6    2    1    2  501    0 -0.19241666700E+03  0.11695877509E+03  0.17255183388E+04  0.17487703426E+04  0.17343772629E+03 0.  0.
         24    2    5    5    0    0 -0.13541448828E+03  0.13516678529E+03  0.15462984959E+04  0.15597660514E+04  0.72276920057E+02 0.  0.
          5    1    5    5  501    0 -0.57002178725E+02 -0.18208010202E+02  0.17921984286E+03  0.18900429119E+03  0.47000000000E+01 0. -1.
        -11    1    6    6    0    0 -0.10234161485E+03  0.82913818445E+02  0.78626430821E+03  0.79722021411E+03  0.00000000000E+00 0.  1.
         12    1    6    6    0    0 -0.33072873432E+02  0.52252966843E+02  0.76003418771E+03  0.76254583731E+03  0.00000000000E+00 0. -1.
         -5    1    3    3    0  503 -0.90693877452E+01 -0.33829128424E+02 -0.36136186895E+02  0.50542830623E+02  0.47000000000E+01 0.  1.
         13    1    4    4    0    0  0.26067524590E+01 -0.55818146450E+01 -0.14644323873E+02  0.15887354557E+02  0.00000000000E+00 0. -1.
        -14    1    4    4    0    0  0.19887930229E+03 -0.77547832017E+02  0.46566253755E+02  0.21848354427E+03  0.00000000000E+00 0.  1.
</event>
<event>
12    1  0.8406581E-002  0.2010166E+03  0.7818608E-02  0.1148985E+00
         21   -1    0    0  503  502  0.00000000000E+00  0.00000000000E+00  0.73552435344E+02  0.73552435344E+02  0.00000000000E+00 0. -1.
         21   -1    0    0  501  503 -0.00000000000E+00 -0.00000000000E+00 -0.63530842546E+03  0.63530842546E+03  0.00000000000E+00 0. -1.
          6    2    1    2  501    0  0.89965104673E+02  0.51846675302E+02 -0.41251508303E+03  0.45888602788E+03  0.17212174486E+03 0.  0.
         24    2    3    3    0    0  0.19968810127E+02 -0.14412718262E+02 -0.63293552813E+02  0.96577380928E+02  0.68663213248E+02 0.  0.
         -6    2    1    2    0  502 -0.89965104673E+02 -0.51846675302E+02 -0.14924090708E+03  0.24997483293E+03  0.17155981741E+03 0.  0.
        -24    2    5    5    0    0 -0.36012866434E+02 -0.89263403480E+02 -0.58592206268E+02  0.13794745896E+03  0.79571182272E+02 0.  0.
          5    1    3    3  501    0  0.69996294546E+02  0.66259393564E+02 -0.34922153022E+03  0.36230864695E+03  0.47000000000E+01 0. -1.
        -13    1    4    4    0    0 -0.12074421219E+02 -0.33304793958E+02 -0.35413403755E+02  0.50091018295E+02  0.00000000000E+00 0.  1.
         14    1    4    4    0    0  0.32043231346E+02  0.18892075696E+02 -0.27880149059E+02  0.46486362632E+02  0.00000000000E+00 0. -1.
         -5    1    5    5    0  502 -0.53952238239E+02  0.37416728178E+02 -0.90648700817E+02  0.11202737397E+03  0.47000000000E+01 0.  1.
         13    1    6    6    0    0 -0.58623470846E+02 -0.82294676649E+02 -0.44472308213E+02  0.11039434468E+03  0.00000000000E+00 0. -1.
        -14    1    6    6    0    0  0.22610604412E+02 -0.69687268305E+01 -0.14119898055E+02  0.27553114282E+02  0.00000000000E+00 0.  1.
</event>
<event>
12    1  0.8406581E-002  0.3180547E+03  0.7818608E-02  0.1076839E+00
         21   -1    0    0  503  502  0.00000000000E+00  0.00000000000E+00  0.15469026665E+03  0.15469026665E+03  0.00000000000E+00 0. -1.
         21   -1    0    0  501  503 -0.00000000000E+00 -0.00000000000E+00 -0.69175007588E+03  0.69175007588E+03  0.00000000000E+00 0. -1.
          6    2    1    2  501    0 -0.18646162789E+03 -0.18871158907E+03 -0.37296211325E+03  0.48854813200E+03  0.17087579360E+03 0.  0.
         24    2    3    3    0    0 -0.59678282204E+02 -0.73065214381E+02 -0.24268892507E+03  0.27304570909E+03  0.82195024073E+02 0.  0.
         -6    2    1    2    0  502  0.18646162789E+03  0.18871158907E+03 -0.16409769598E+03  0.35789221053E+03  0.17543881558E+03 0.  0.
        -24    2    5    5    0    0  0.17956574245E+03  0.21379281778E+03 -0.15874267130E+03  0.33092208708E+03  0.79743132803E+02 0.  0.
          5    1    3    3  501    0 -0.12678334569E+03 -0.11564637469E+03 -0.13027318818E+03  0.21550242291E+03  0.47000000000E+01 0. -1.
        -11    1    4    4    0    0 -0.48893871904E+02 -0.56738112010E+01 -0.57553472230E+02  0.75731136325E+02  0.00000000000E+00 0.  1.
         12    1    4    4    0    0 -0.10784410301E+02 -0.67391403180E+02 -0.18513545284E+03  0.19731457277E+03  0.00000000000E+00 0. -1.
         -5    1    5    5    0  502  0.68958854405E+01 -0.25081228714E+02 -0.53550246791E+01  0.26970123454E+02  0.47000000000E+01 0.  1.
         13    1    6    6    0    0  0.14580642175E+03  0.16431359294E+03 -0.84120736001E+02  0.23523343230E+03  0.00000000000E+00 0. -1.
        -14    1    6    6    0    0  0.33759320698E+02  0.49479224842E+02 -0.74621935296E+02  0.95688654773E+02  0.00000000000E+00 0.  1.
</event>
<event>
12    1  0.8406581E-002  0.2537616E+03  0.7818608E-02  0.1111182E+00
         21   -1    0    0  503  502  0.00000000000E+00  0.00000000000E+00  0.42889487451E+03  0.42889487451E+03  0.00000000000E+00 0. -1.
         21   -1    0    0  501  503 -0.00000000000E+00 -0.00000000000E+00 -0.27098257542E+03  0.27098257542E+03  0.00000000000E+00 0.  1.
          6    2    1    2  501    0 -0.16738662666E+03 -0.79710530533E+02 -0.15570387914E+03  0.29645449309E+03  0.17108336282E+03 0.  0.
         24    2    3    3    0    0 -0.13695162328E+03 -0.10865526037E+03 -0.16531568114E+03  0.25311209406E+03  0.78579545689E+02 0.  0.
         -6    2    1    2    0  502  0.16738662666E+03  0.79710530533E+02  0.31361617823E+03  0.40342295684E+03  0.17327124226E+03 0.  0.
        -24    2    5    5    0    0  0.12501717383E+03  0.12088135949E+03  0.21588972968E+03  0.28913054048E+03  0.82137063700E+02 0.  0.
          5    1    3    3  501    0 -0.30435003380E+02  0.28944729838E+02  0.96118020061E+01  0.43342399033E+02  0.47000000000E+01 0. -1.
        -11    1    4    4    0    0 -0.32846587506E+02 -0.65995841695E+02 -0.95731864702E+02  0.12082607066E+03  0.00000000000E+00 0.  1.
         12    1    4    4    0    0 -0.10410503578E+03 -0.42659418676E+02 -0.69583816439E+02  0.13228602340E+03  0.00000000000E+00 0. -1.
         -5    1    5    5    0  502  0.42369452833E+02 -0.41170828957E+02  0.97726448548E+02  0.11429241635E+03  0.47000000000E+01 0.  1.
         13    1    6    6    0    0  0.64493046094E+02  0.59134985976E+02  0.17011313040E+03  0.19129761289E+03  0.00000000000E+00 0. -1.
        -14    1    6    6    0    0  0.60524127736E+02  0.61746373514E+02  0.45776599279E+02  0.97832927596E+02  0.00000000000E+00 0.  1.
</event>
<event>
12    1  0.8406581E-002  0.1931993E+03  0.7818608E-02  0.1155750E+00
         21   -1    0    0  501  502  0.00000000000E+00  0.00000000000E+00  0.19503422868E+03  0.19503422868E+03  0.00000000000E+00 0.  1.
         21   -1    0    0  502  503 -0.00000000000E+00 -0.00000000000E+00 -0.20934473836E+03  0.20934473836E+03  0.00000000000E+00 0. -1.
         -6    2    1    2    0  503  0.82457013625E+02  0.28895240979E+02  0.53125121067E+02  0.19974876523E+03  0.17159019982E+03 0.  0.
        -24    2    3    3    0    0  0.74340067801E+02 -0.41139878177E+02  0.21928819050E+01  0.11264546041E+03  0.73927368158E+02 0.  0.
          6    2    1    2  501    0 -0.82457013625E+02 -0.28895240979E+02 -0.67435630753E+02  0.20463020181E+03  0.17231326458E+03 0.  0.
         24    2    5    5    0    0 -0.27616870307E+01 -0.55031058993E+02  0.12463717983E+01  0.96123365438E+02  0.78753435298E+02 0.  0.
          5    1    5    5  501    0 -0.79695326595E+02  0.26135818014E+02 -0.68682002551E+02  0.10850683637E+03  0.47000000000E+01 0. -1.
        -11    1    6    6    0    0 -0.39019497866E+01  0.14046056148E+02  0.19801055046E+02  0.24588588540E+02  0.00000000000E+00 0.  1.
         12    1    6    6    0    0  0.11402627559E+01 -0.69077115141E+02 -0.18554683248E+02  0.71534776898E+02  0.00000000000E+00 0. -1.
         -5    1    3    3    0  503  0.81169458242E+01  0.70035119156E+02  0.50932239162E+02  0.87103304821E+02  0.47000000000E+01 0.  1.
         13    1    4    4    0    0 -0.15449513537E+01 -0.15428704625E+02 -0.23805913904E+02  0.28410444169E+02  0.00000000000E+00 0. -1.
        -14    1    4    4    0    0  0.75885019155E+02 -0.25711173551E+02  0.25998795809E+02  0.84235016241E+02  0.00000000000E+00 0.  1.
</event>
<event>
12    1  0.8406581E-002  0.1760323E+03  0.7818608E-02  0.1171848E+00
         21   -1    0    0  503  502  0.00000000000E+00  0.00000000000E+00  0.76229696880E+03  0.76229696880E+03  0.00000000000E+00 0.  1.
         21   -1    0    0  501  503 -0.00000000000E+00 -0.00000000000E+00 -0.44925024027E+02  0.44925024027E+02  0.00000000000E+00 0.  1.
          6    2    1    2  501    0 -0.34752106189E+02  0.88771050880E+01  0.48572704025E+03  0.51664119384E+03  0.17233935610E+03 0.  0.
         24    2    3    3    0    0 -0.40335438825E+02  0.57553832546E+02  0.20014175916E+03  0.22684533436E+03  0.80390861991E+02 0.  0.
         -6    2    1    2    0  502  0.34752106189E+02 -0.88771050880E+01  0.23164490452E+03  0.29058079899E+03  0.17173039064E+03 0.  0.
        -24    2    5    5    0    0 -0.64849658775E+01 -0.15744648216E+02  0.34222361273E+02  0.88725876226E+02  0.80069734426E+02 0.  0.
          5    1    3    3  501    0  0.55833326360E+01 -0.48676727458E+02  0.28558528109E+03  0.28979585949E+03  0.47000000000E+01 0. -1.
        -11    1    4    4    0    0  0.43987053688E+00 -0.13700462714E+02  0.40994991983E+01  0.14307412706E+02  0.00000000000E+00 0.  1.
         12    1    4    4    0    0 -0.40775309362E+02  0.71254295260E+02  0.19604225997E+03  0.21253792165E+03  0.00000000000E+00 0. -1.
         -5    1    5    5    0  502  0.41237072066E+02  0.68675431281E+01  0.19742254325E+03  0.20185492276E+03  0.47000000000E+01 0.  1.
         11    1    6    6    0    0 -0.15311087739E+02 -0.39292514681E+02  0.44727182896E+02  0.61472367837E+02  0.00000000000E+00 0. -1.
        -12    1    6    6    0    0  0.88261218612E+01  0.23547866465E+02 -0.10504821623E+02  0.27253508389E+02  0.00000000000E+00 0.  1.
</event>
<event>
12    1  0.8406581E-002  0.1924502E+03  0.7818608E-02  0.1157071E+00
         21   -1    0    0  501  502  0.00000000000E+00  0.00000000000E+00  0.13640218318E+04  0.13640218318E+04  0.00000000000E+00 0.  1.
         21   -1    0    0  502  503 -0.00000000000E+00 -0.00000000000E+00 -0.30849591542E+02  0.30849591542E+02  0.00000000000E+00 0. -1.
         -6    2    1    2    0  503 -0.15988075220E+01 -0.77116606653E+02  0.40389690126E+03  0.44587736162E+03  0.17240762036E+03 0.  0.
        -24    2    3    3    0    0  0.47303127694E+02 -0.76746832158E+02  0.36135158440E+03  0.38088713168E+03  0.79827172062E+02 0.  0.
          6    2    1    2  501    0  0.15988075220E+01  0.77116606653E+02  0.92927533905E+03  0.94899406176E+03  0.17631660811E+03 0.  0.
         24    2    5    5    0    0  0.45765544614E+02  0.49774496964E+02  0.83075386675E+03  0.83751822522E+03  0.81931708442E+02 0.  0.
          5    1    5    5  501    0 -0.44166737092E+02  0.27342109690E+02  0.98521472300E+02  0.11147583654E+03  0.47000000000E+01 0. -1.
        -11    1    6    6    0    0  0.11373460317E+02  0.59685370194E+02  0.67385780375E+03  0.67659148583E+03  0.00000000000E+00 0.  1.
         12    1    6    6    0    0  0.34392084297E+02 -0.99108732303E+01  0.15689606299E+03  0.16092673940E+03  0.00000000000E+00 0. -1.
         -5    1    3    3    0  503 -0.48901935216E+02 -0.36977449568E+00  0.42545316857E+02  0.64990229939E+02  0.47000000000E+01 0.  1.
         13    1    4    4    0    0  0.55069252578E+02 -0.23120488343E+02  0.12686000240E+03  0.14021640335E+03  0.00000000000E+00 0. -1.
        -14    1    4    4    0    0 -0.77661248839E+01 -0.53626343815E+02  0.23449158200E+03  0.24067072833E+03  0.00000000000E+00 0.  1.
</event>
<event>
12    1  0.8406581E-002  0.2552613E+03  0.7818608E-02  0.1110098E+00
         21   -1    0    0  503  502  0.00000000000E+00  0.00000000000E+00  0.51944443872E+02  0.51944443872E+02  0.00000000000E+00 0.  1.
         21   -1    0    0  501  503 -0.00000000000E+00 -0.00000000000E+00 -0.19316501731E+04  0.19316501731E+04  0.00000000000E+00 0.  1.
          6    2    1    2  501    0  0.11436546884E+03  0.14999160997E+03 -0.15287181226E+04  0.15498830389E+04  0.17199241933E+03 0.  0.
         24    2    3    3    0    0  0.80251155104E+02  0.14300363888E+03 -0.81283839208E+03  0.83314145594E+03  0.80796938909E+02 0.  0.
         -6    2    1    2    0  502 -0.11436546884E+03 -0.14999160997E+03 -0.35098760666E+03  0.43371157813E+03  0.17127898134E+03 0.  0.
        -24    2    5    5    0    0 -0.54981799860E+02 -0.13873593229E+03 -0.16028561885E+03  0.23360548482E+03  0.81298128550E+02 0.  0.
          5    1    3    3  501    0  0.34114313733E+02  0.69879710877E+01 -0.71587973050E+03  0.71674158291E+03  0.47000000000E+01 0. -1.
        -13    1    4    4    0    0  0.43682071291E+01  0.35829923759E+02 -0.35537092276E+03  0.35719932449E+03  0.00000000000E+00 0.  1.
         14    1    4    4    0    0  0.75882947974E+02  0.10717371512E+03 -0.45746746932E+03  0.47594213146E+03  0.00000000000E+00 0. -1.
         -5    1    5    5    0  502 -0.59383668977E+02 -0.11255677677E+02 -0.19070198782E+03  0.20010609331E+03  0.47000000000E+01 0.  1.
         13    1    6    6    0    0 -0.30137584770E+02 -0.48814806062E+02 -0.11794401153E+03  0.13115620139E+03  0.00000000000E+00 0. -1.
        -14    1    6    6    0    0 -0.24844215090E+02 -0.89921126230E+02 -0.42341607312E+02  0.10244928343E+03  0.00000000000E+00 0.  1.
</event>
<event>
12    1  0.8406581E-002  0.2102093E+03  0.7818608E-02  0.1141456E+00
         21   -1    0    0  503  502  0.00000000000E+00  0.00000000000E+00  0.62560970086E+03  0.62560970086E+03  0.00000000000E+00 0.  1.
         21   -1    0    0  501  503 -0.00000000000E+00 -0.00000000000E+00 -0.89350421844E+02  0.89350421844E+02  0.00000000000E+00 0.  1.
          6    2    1    2  501    0 -0.19669079385E+02 -0.11504413329E+03  0.43202298487E+03  0.48032606965E+03  0.17449139933E+03 0.  0.
         24    2    3    3    0    0 -0.41289856874E+01 -0.74639843658E+01  0.10162553639E+03  0.13247617829E+03  0.84554293699E+02 0.  0.
         -6    2    1    2    0  502  0.19669079385E+02  0.11504413329E+03  0.10423629414E+03  0.23463405305E+03  0.17483108575E+03 0.  0.
        -24    2    5    5    0    0  0.69624017872E+02  0.74721770607E+02  0.24871711651E+02  0.13244689258E+03  0.80577481007E+02 0.  0.
          5    1    3    3  501    0 -0.15540093697E+02 -0.10758014893E+03  0.33039744848E+03  0.34784989136E+03  0.47000000000E+01 0. -1.
        -13    1    4    4    0    0 -0.36868279551E+02 -0.28028429881E+02  0.56330382652E+02  0.72924446713E+02  0.00000000000E+00 0.  1.
         14    1    4    4    0    0  0.32739293863E+02  0.20564445515E+02  0.45295153734E+02  0.59551731577E+02  0.00000000000E+00 0. -1.
         -5    1    5    5    0  502 -0.49954938488E+02  0.40322362686E+02  0.79364582494E+02  0.10218716048E+03  0.47000000000E+01 0.  1.
         11    1    6    6    0    0  0.23357716232E+02  0.14817887219E+02 -0.28588905695E+02  0.39780374785E+02  0.00000000000E+00 0. -1.
        -12    1    6    6    0    0  0.46266301640E+02  0.59903883388E+02  0.53460617346E+02  0.92666517791E+02  0.00000000000E+00 0.  1.
</event>
<event>
12    1  0.8406581E-002  0.2336916E+03  0.7818608E-02  0.1124341E+00
         21   -1    0    0  503  502  0.00000000000E+00  0.00000000000E+00  0.33834828523E+03  0.33834828523E+03  0.00000000000E+00 0.  1.
         21   -1    0    0  501  503 -0.00000000000E+00 -0.00000000000E+00 -0.16515797274E+03  0.16515797274E+03  0.00000000000E+00 0.  1.
          6    2    1    2  501    0 -0.78193820658E+02 -0.13540984151E+03  0.12997481577E+03  0.26740457486E+03  0.17367111203E+03 0.  0.
         24    2    3    3    0    0 -0.78598356603E+02 -0.13363353664E+03  0.43136119143E+02  0.18041970181E+03  0.81577694552E+02 0.  0.
         -6    2    1    2    0  502  0.78193820658E+02  0.13540984151E+03  0.43215496718E+02  0.23610168312E+03  0.17154103546E+03 0.  0.
        -24    2    5    5    0    0  0.84278438409E+02  0.36652348046E+02 -0.13170740171E+02  0.12212114619E+03  0.79333827282E+02 0.  0.
          5    1    3    3  501    0  0.40453594499E+00 -0.17763048665E+01  0.86838696626E+02  0.86984873053E+02  0.47000000000E+01 0. -1.
        -13    1    4    4    0    0 -0.59870564147E+02 -0.25555087912E+02  0.21995063638E+02  0.68711933417E+02  0.00000000000E+00 0.  1.
         14    1    4    4    0    0 -0.18727792456E+02 -0.10807844873E+03  0.21141055505E+02  0.11170776839E+03  0.00000000000E+00 0. -1.
         -5    1    5    5    0  502 -0.60846177507E+01  0.98757493464E+02  0.56386236890E+02  0.11398053693E+03  0.47000000000E+01 0.  1.
         11    1    6    6    0    0 -0.12685204032E+02 -0.61488898229E+01  0.42173579089E+01  0.14714256866E+02  0.00000000000E+00 0. -1.
        -12    1    6    6    0    0  0.96963642441E+02  0.42801237869E+02 -0.17388098080E+02  0.10740688932E+03  0.00000000000E+00 0.  1.
</event>
<event>
12    1  0.8406581E-002  0.1990778E+03  0.7818608E-02  0.1150546E+00
         21   -1    0    0  503  502  0.00000000000E+00  0.00000000000E+00  0.49370147082E+03  0.49370147082E+03  0.00000000000E+00 0.  1.
         21   -1    0    0  501  503 -0.00000000000E+00 -0.00000000000E+00 -0.83185142702E+02  0.83185142702E+02  0.00000000000E+00 0.  1.
          6    2    1    2  501    0  0.97971670712E+02 -0.12984648831E+01  0.25960514828E+03  0.32707440739E+03  0.17315513472E+03 0.  0.
         24    2    3    3    0    0  0.13147160385E+03 -0.78625728326E+01  0.24539043534E+03  0.28979866330E+03  0.80126130729E+02 0.  0.
         -6    2    1    2    0  502 -0.97971670712E+02  0.12984648831E+01  0.15091117983E+03  0.24981220613E+03  0.17329691244E+03 0.  0.
        -24    2    5    5    0    0 -0.12297686428E+03 -0.17147538097E+02  0.69647009885E+02  0.16268316362E+03  0.78725844098E+02 0.  0.
          5    1    3    3  501    0 -0.33499933135E+02  0.65641079496E+01  0.14214712947E+02  0.37275744089E+02  0.47000000000E+01 0. -1.
        -11    1    4    4    0    0  0.13507120438E+03 -0.23720834196E+02  0.20947230227E+03  0.25037083226E+03  0.00000000000E+00 0.  1.
         12    1    4    4    0    0 -0.35996005352E+01  0.15858261363E+02  0.35918133066E+02  0.39427831038E+02  0.00000000000E+00 0. -1.
         -5    1    5    5    0  502  0.25005193569E+02  0.18446002980E+02  0.81264169945E+02  0.87129042508E+02  0.47000000000E+01 0.  1.
         13    1    6    6    0    0 -0.61510981824E+02 -0.43865190533E+02  0.16955568964E+02  0.77428981295E+02  0.00000000000E+00 0. -1.
        -14    1    6    6    0    0 -0.61465882457E+02  0.26717652436E+02  0.52691440921E+02  0.85254182327E+02  0.00000000000E+00 0.  1.
</event>
<event>
12    1  0.8406581E-002  0.2228113E+03  0.7818608E-02  0.1132347E+00
         21   -1    0    0  503  502  0.00000000000E+00  0.00000000000E+00  0.49906297754E+03  0.49906297754E+03  0.00000000000E+00 0.  1.
         21   -1    0    0  501  503 -0.00000000000E+00 -0.00000000000E+00 -0.14763152994E+03  0.14763152994E+03  0.00000000000E+00 0.  1.
          6    2    1    2  501    0 -0.10891949542E+03  0.82633727800E+02 -0.12219113855E+02  0.22021283455E+03  0.17219929241E+03 0.  0.
         24    2    3    3    0    0 -0.17087311548E+02  0.99319690308E+02 -0.21055946571E+02  0.12634190747E+03  0.73229417567E+02 0.  0.
         -6    2    1    2    0  502  0.10891949542E+03 -0.82633727800E+02  0.36365056146E+03  0.42648167293E+03  0.17593492275E+03 0.  0.
        -24    2    5    5    0    0  0.11759291533E+03 -0.46241661004E+02  0.35848041562E+03  0.38842341303E+03  0.79988464543E+02 0.  0.
          5    1    3    3  501    0 -0.91832183872E+02 -0.16685962508E+02  0.88368327161E+01  0.93870927086E+02  0.47000000000E+01 0. -1.
        -11    1    4    4    0    0 -0.15708662070E+01  0.74059752508E+02  0.19033137140E+02  0.76482513502E+02  0.00000000000E+00 0.  1.
         12    1    4    4    0    0 -0.15516445341E+02  0.25259937800E+02 -0.40089083711E+02  0.49859393964E+02  0.00000000000E+00 0. -1.
         -5    1    5    5    0  502 -0.86734199065E+01 -0.36392066796E+02  0.51701458404E+01  0.38058259899E+02  0.47000000000E+01 0.  1.
         11    1    6    6    0    0  0.66349098225E+01 -0.23248023527E+02  0.19674255509E+02  0.31170000900E+02  0.00000000000E+00 0. -1.
        -12    1    6    6    0    0  0.11095800550E+03 -0.22993637477E+02  0.33880616011E+03  0.35725341213E+03  0.00000000000E+00 0.  1.
</event>
<event>
12    1  0.8406581E-002  0.1735308E+03  0.7818608E-02  0.1174671E+00
         21   -1    0    0  503  502  0.00000000000E+00  0.00000000000E+00  0.57306241629E+02  0.57306241629E+02  0.00000000000E+00 0. -1.
         21   -1    0    0  501  503 -0.00000000000E+00 -0.00000000000E+00 -0.12656734964E+04  0.12656734964E+04  0.00000000000E+00 0. -1.
          6    2    1    2  501    0 -0.16620378475E+01 -0.10179485245E+01 -0.11106042674E+04  0.11238051203E+04  0.17173325605E+03 0.  0.
         24    2    3    3    0    0  0.23547861455E+02 -0.29084992101E+02 -0.31111792890E+03  0.32341534445E+03  0.80016753249E+02 0.  0.
         -6    2    1    2    0  502  0.16620378475E+01  0.10179485245E+01 -0.97762987373E+02  0.19917461765E+03  0.17351982027E+03 0.  0.
        -24    2    5    5    0    0  0.25474445933E+02  0.13233767425E+02  0.11570085637E+02  0.86515539616E+02  0.80789799588E+02 0.  0.
          5    1    3    3  501    0 -0.25209899303E+02  0.28067043576E+02 -0.79948633846E+03  0.80038977588E+03  0.47000000000E+01 0. -1.
        -13    1    4    4    0    0  0.30584803825E+01  0.27441687929E+02 -0.81222067729E+02  0.85787090083E+02  0.00000000000E+00 0.  1.
         14    1    4    4    0    0  0.20489381073E+02 -0.56526680030E+02 -0.22989586117E+03  0.23762825437E+03  0.00000000000E+00 0. -1.
         -5    1    5    5    0  502 -0.23812408086E+02 -0.12215818900E+02 -0.10933307301E+03  0.11265907804E+03  0.47000000000E+01 0.  1.
         13    1    6    6    0    0  0.32895247831E+02  0.17606187665E+02 -0.27600143416E+02  0.46409515086E+02  0.00000000000E+00 0. -1.
        -14    1    6    6    0    0 -0.74208018977E+01 -0.43724202399E+01  0.39170229053E+02  0.40106024530E+02  0.00000000000E+00 0.  1.
</event>
<event>
12    1  0.8406581E-002  0.1988339E+03  0.7818608E-02  0.1151418E+00
         21   -1    0    0  501  502  0.00000000000E+00  0.00000000000E+00  0.24306497287E+03  0.24306497287E+03  0.00000000000E+00 0.  1.
         21   -1    0    0  502  503 -0.00000000000E+00 -0.00000000000E+00 -0.16845109860E+03  0.16845109860E+03  0.00000000000E+00 0.  1.
         -6    2    1    2    0  503 -0.84686357044E+02  0.39450663595E+02  0.83613615127E+02  0.21569923715E+03  0.17551863248E+03 0.  0.
        -24    2    3    3    0    0 -0.83485457672E+02  0.65166645407E+02  0.50545463246E+01  0.13289602966E+03  0.80120490171E+02 0.  0.
          6    2    1    2  501    0  0.84686357044E+02 -0.39450663595E+02 -0.89997408582E+01  0.19581683432E+03  0.17185779977E+03 0.  0.
         24    2    5    5    0    0  0.30983020757E+02  0.25502446577E+02 -0.48726515243E+02  0.10252556221E+03  0.80789202631E+02 0.  0.
          5    1    5    5  501    0  0.53703336287E+02 -0.64953110172E+02  0.39726774385E+02  0.93291272112E+02  0.47000000000E+01 0. -1.
        -13    1    6    6    0    0  0.20078497115E+01  0.14828428375E+02  0.21278270355E+02  0.26013045531E+02  0.00000000000E+00 0.  1.
         14    1    6    6    0    0  0.28975171046E+02  0.10674018202E+02 -0.70004785598E+02  0.76512516677E+02  0.00000000000E+00 0. -1.
         -5    1    3    3    0  503 -0.12008993722E+01 -0.25715981812E+02  0.78559068802E+02  0.82803207492E+02  0.47000000000E+01 0.  1.
         13    1    4    4    0    0 -0.55706297631E+02  0.75968281879E+02 -0.17119851053E+02  0.95746857638E+02  0.00000000000E+00 0. -1.
        -14    1    4    4    0    0 -0.27779160040E+02 -0.10801636472E+02  0.22174397378E+02  0.37149172024E+02  0.00000000000E+00 0.  1.
</event>
<event>
12    1  0.8406581E-002  0.1978940E+03  0.7818608E-02  0.1154056E+00
         21   -1    0    0  503  502  0.00000000000E+00  0.00000000000E+00  0.33641410661E+03  0.33641410661E+03  0.00000000000E+00 0.  1.
         21   -1    0    0  501  503 -0.00000000000E+00 -0.00000000000E+00 -0.36768437671E+03  0.36768437671E+03  0.00000000000E+00 0. -1.
          6    2    1    2  501    0 -0.67088109473E+02  0.35299558151E+02 -0.31058499207E+03  0.36827311970E+03  0.18279819516E+03 0.  0.
         24    2    3    3    0    0 -0.57714955622E+02 -0.49161020487E+02 -0.20242166989E+03  0.23064013083E+03  0.80451945124E+02 0.  0.
         -6    2    1    2    0  502  0.67088109473E+02 -0.35299558151E+02  0.27931472197E+03  0.33582536362E+03  0.17033815691E+03 0.  0.
        -24    2    5    5    0    0  0.92744022908E+02  0.17668364882E+02  0.22643183524E+03  0.25656303667E+03  0.75097209478E+02 0.  0.
          5    1    3    3  501    0 -0.93731538512E+01  0.84460578637E+02 -0.10816332219E+03  0.13763298886E+03  0.47000000000E+01 0. -1.
        -11    1    4    4    0    0  0.28641830298E+01 -0.46064909265E+02 -0.58919177226E+02  0.74844163800E+02  0.00000000000E+00 0.  1.
         12    1    4    4    0    0 -0.60579138652E+02 -0.30961112222E+01 -0.14350249266E+03  0.15579596703E+03  0.00000000000E+00 0. -1.
         -5    1    5    5    0  502 -0.25655913434E+02 -0.52967923032E+02  0.52882886728E+02  0.79262326948E+02  0.47000000000E+01 0.  1.
         13    1    6    6    0    0 -0.46743549924E+01 -0.16464612681E+02  0.26307391798E+02  0.31384899689E+02  0.00000000000E+00 0. -1.
        -14    1    6    6    0    0  0.97418377900E+02  0.34132977562E+02  0.20012444344E+03  0.22517813698E+03  0.00000000000E+00 0.  1.
</event>
<event>
12    1  0.8406581E-002  0.1754709E+03  0.7818608E-02  0.1172436E+00
         21   -1    0    0  503  502  0.00000000000E+00  0.00000000000E+00  0.46734269247E+03  0.46734269247E+03  0.00000000000E+00 0.  1.
         21   -1    0    0  501  503 -0.00000000000E+00 -0.00000000000E+00 -0.70788535513E+02  0.70788535513E+02  0.00000000000E+00 0.  1.
          6    2    1    2  501    0  0.27513039907E+02  0.19858607350E+02  0.12520386983E+03  0.21498880977E+03  0.17144342407E+03 0.  0.
         24    2    3    3    0    0 -0.10702771742E+01  0.48617348941E+02  0.14306730054E+03  0.17043251516E+03  0.78830182211E+02 0.  0.
         -6    2    1    2    0  502 -0.27513039907E+02 -0.19858607350E+02  0.27135028713E+03  0.32314241821E+03  0.17215897441E+03 0.  0.
        -24    2    5    5    0    0 -0.41483964485E+02  0.34818075144E+02  0.23871643053E+03  0.25778352487E+03  0.80830649043E+02 0.  0.
          5    1    3    3  501    0  0.28583317081E+02 -0.28758741590E+02 -0.17863430713E+02  0.44556294618E+02  0.47000000000E+01 0. -1.
        -13    1    4    4    0    0 -0.23901706371E+02  0.37750004333E+02  0.28246319573E+02  0.52860277752E+02  0.00000000000E+00 0.  1.
         14    1    4    4    0    0  0.22831429197E+02  0.10867344608E+02  0.11482098097E+03  0.11757223741E+03  0.00000000000E+00 0. -1.
         -5    1    5    5    0  502  0.13970924578E+02 -0.54676682494E+02  0.32633856608E+02  0.65358893345E+02  0.47000000000E+01 0. -1.
         11    1    6    6    0    0 -0.32013025460E+02  0.44714679950E+02  0.72467881931E+02  0.90971590695E+02  0.00000000000E+00 0. -1.
        -12    1    6    6    0    0 -0.94709390251E+01 -0.98966048059E+01  0.16624854859E+03  0.16681193417E+03  0.00000000000E+00 0.  1.
</event>
<event>
12    1  0.8406581E-002  0.1821637E+03  0.7818608E-02  0.1165754E+00
         21   -1    0    0  501  502  0.00000000000E+00  0.00000000000E+00  0.30983878696E+03  0.30983878696E+03  0.00000000000E+00 0. -1.
         21   -1    0    0  502  503 -0.00000000000E+00 -0.00000000000E+00 -0.11553632546E+03  0.11553632546E+03  0.00000000000E+00 0. -1.
         -6    2    1    2    0  503  0.52129723159E+02  0.28987116310E+02  0.39470089135E+02  0.18639071998E+03  0.17212161866E+03 0.  0.
        -24    2    3    3    0    0  0.53945089925E+02  0.74476197076E+02 -0.58406916575E+01  0.12198801133E+03  0.79938630026E+02 0.  0.
          6    2    1    2  501    0 -0.52129723159E+02 -0.28987116310E+02  0.15483237237E+03  0.23898439244E+03  0.17199626551E+03 0.  0.
         24    2    5    5    0    0 -0.31000342524E+02 -0.28596585137E+02  0.70848230867E+01  0.89659138185E+02  0.78802160020E+02 0.  0.
          5    1    5    5  501    0 -0.21129380635E+02 -0.39053117243E+00  0.14774754928E+03  0.14932525426E+03  0.47000000000E+01 0. -1.
        -13    1    6    6    0    0 -0.52848214292E+02 -0.36572266525E+02  0.13200584864E+02  0.65610364069E+02  0.00000000000E+00 0.  1.
         14    1    6    6    0    0  0.21847871768E+02  0.79756813876E+01 -0.61157617768E+01  0.24048774116E+02  0.00000000000E+00 0. -1.
         -5    1    3    3    0  503 -0.18153667665E+01 -0.45489080766E+02  0.45310780793E+02  0.64402708650E+02  0.47000000000E+01 0.  1.
         13    1    4    4    0    0  0.14554038262E+02  0.57833356879E+02 -0.35999970356E+02  0.69659996147E+02  0.00000000000E+00 0. -1.
        -14    1    4    4    0    0  0.39391051663E+02  0.16642840197E+02  0.30159278699E+02  0.52328015179E+02  0.00000000000E+00 0.  1.
</event>
<event>
12    1  0.8406581E-002  0.2438598E+03  0.7818608E-02  0.1117287E+00
         21   -1    0    0  501  502  0.00000000000E+00  0.00000000000E+00  0.27929548460E+03  0.27929548460E+03  0.00000000000E+00 0.  1.
         21   -1    0    0  502  503 -0.00000000000E+00 -0.00000000000E+00 -0.43109006702E+03  0.43109006702E+03  0.00000000000E+00 0. -1.
         -6    2    1    2    0  503  0.11859561122E+03 -0.12519860451E+03 -0.32868440891E+03  0.40912554536E+03  0.17207748731E+03 0.  0.
        -24    2    3    3    0    0  0.15213862863E+03 -0.86623306580E+02 -0.26972249709E+03  0.33094764137E+03  0.78271044003E+02 0.  0.
          6    2    1    2  501    0 -0.11859561122E+03  0.12519860451E+03  0.17688982648E+03  0.30126000625E+03  0.17241801264E+03 0.  0.
         24    2    5    5    0    0 -0.13406765700E+03  0.84373510202E+02  0.79161866593E+02  0.19412029994E+03  0.79517695193E+02 0.  0.
          5    1    5    5  501    0  0.15472045775E+02  0.40825094311E+02  0.97727959889E+02  0.10713970632E+03  0.47000000000E+01 0. -1.
        -13    1    6    6    0    0 -0.19971249703E+02  0.64578427074E+01  0.48141791611E+02  0.52518441015E+02  0.00000000000E+00 0.  1.
         14    1    6    6    0    0 -0.11409640729E+03  0.77915667494E+02  0.31020074982E+02  0.14160185892E+03  0.00000000000E+00 0. -1.
         -5    1    3    3    0  503 -0.33543017408E+02 -0.38575297933E+02 -0.58961911822E+02  0.78177903995E+02  0.47000000000E+01 0.  1.
         13    1    4    4    0    0  0.31834234412E+01 -0.30677367731E+02 -0.62385812417E+02  0.69593280326E+02  0.00000000000E+00 0. -1.
        -14    1    4    4    0    0  0.14895520519E+03 -0.55945938849E+02 -0.20733668467E+03  0.26135436104E+03  0.00000000000E+00 0.  1.
</event>
<event>
12    1  0.8406581E-002  0.1763204E+03  0.7818608E-02  0.1172483E+00
         21   -1    0    0  503  502  0.00000000000E+00  0.00000000000E+00  0.10706774474E+03  0.10706774474E+03  0.00000000000E+00 0.  1.
         21   -1    0    0  501  503 -0.00000000000E+00 -0.00000000000E+00 -0.37474075684E+03  0.37474075684E+03  0.00000000000E+00 0.  1.
          6    2    1    2  501    0  0.17593665179E+02  0.33980911797E+02 -0.25399612084E+03  0.30919718413E+03  0.17211806951E+03 0.  0.
         24    2    3    3    0    0 -0.41130149783E+02  0.17372828959E+02 -0.22222818684E+03  0.24023627861E+03  0.79590188648E+02 0.  0.
         -6    2    1    2    0  502 -0.17593665179E+02 -0.33980911797E+02 -0.13676891260E+02  0.17261131746E+03  0.16775985855E+03 0.  0.
        -24    2    5    5    0    0 -0.34317162365E+02 -0.59062031773E+02 -0.57241239219E+02  0.11942597784E+03  0.79498512474E+02 0.  0.
          5    1    3    3  501    0  0.58723814962E+02  0.16608082838E+02 -0.31767934006E+02  0.68960905521E+02  0.47000000000E+01 0. -1.
        -11    1    4    4    0    0  0.72154694876E+01  0.26444018935E+02 -0.15226048850E+03  0.15470813002E+03  0.00000000000E+00 0.  1.
         12    1    4    4    0    0 -0.48345619271E+02 -0.90711899756E+01 -0.69967698339E+02  0.85528148590E+02  0.00000000000E+00 0. -1.
         -5    1    5    5    0  502  0.16723497186E+02  0.25081119976E+02  0.43564347958E+02  0.53185339619E+02  0.47000000000E+01 0.  1.
         13    1    6    6    0    0  0.22391665873E+02  0.73006871609E+00 -0.12615220672E+02  0.25711155040E+02  0.00000000000E+00 0. -1.
        -14    1    6    6    0    0 -0.56708828237E+02 -0.59792100489E+02 -0.44626018546E+02  0.93714822799E+02  0.00000000000E+00 0.  1.
</event>
<event>
12    1  0.8406581E-002  0.1896204E+03  0.7818608E-02  0.1159067E+00
         21   -1    0    0  503  502  0.00000000000E+00  0.00000000000E+00  0.40143921259E+03  0.40143921259E+03  0.00000000000E+00 0. -1.
         21   -1    0    0  501  503 -0.00000000000E+00 -0.00000000000E+00 -0.12248248119E+03  0.12248248119E+03  0.00000000000E+00 0. -1.
          6    2    1    2  501    0  0.47031185493E+02  0.65090062727E+02  0.22470829889E+01  0.18847556045E+03  0.17049732793E+03 0.  0.
         24    2    3    3    0    0  0.40254420739E+02 -0.14081046217E+02  0.50784238092E+02  0.95245015794E+02  0.68365780501E+02 0.  0.
         -6    2    1    2    0  502 -0.47031185493E+02 -0.65090062727E+02  0.27670964840E+03  0.33544613333E+03  0.17177668692E+03 0.  0.
        -24    2    5    5    0    0 -0.29220183122E+02  0.18380166463E+01  0.24532334928E+03  0.25926352779E+03  0.78592835121E+02 0.  0.
          5    1    3    3  501    0  0.67767647546E+01  0.79171108944E+02 -0.48537155103E+02  0.93230544659E+02  0.47000000000E+01 0. -1.
        -11    1    4    4    0    0  0.35591124608E+02  0.17663118493E+02  0.49035475192E+02  0.63112532298E+02  0.00000000000E+00 0.  1.
         12    1    4    4    0    0  0.46632961304E+01 -0.31744164710E+02  0.17487628998E+01  0.32132483496E+02  0.00000000000E+00 0. -1.
         -5    1    5    5    0  502 -0.17811002371E+02 -0.66928079373E+02  0.31386299122E+02  0.76182605538E+02  0.47000000000E+01 0.  1.
         13    1    6    6    0    0 -0.53523550697E+02 -0.99261385951E+01  0.13233706116E+03  0.14309575976E+03  0.00000000000E+00 0. -1.
        -14    1    6    6    0    0  0.24303367574E+02  0.11764155241E+02  0.11298628813E+03  0.11616776803E+03  0.00000000000E+00 0.  1.
</event>
<event>
12    1  0.8406581E-002  0.2022826E+03  0.7818608E-02  0.1148260E+00
         21   -1    0    0  503  502  0.00000000000E+00  0.00000000000E+00  0.76594970602E+02  0.76594970602E+02  0.00000000000E+00 0.  1.
         21   -1    0    0  501  503 -0.00000000000E+00 -0.00000000000E+00 -0.53821796334E+03  0.53821796334E+03  0.00000000000E+00 0.  1.
          6    2    1    2  501    0  0.10322232945E+03  0.64038886012E+01 -0.18890019290E+03  0.27526034376E+03  0.17143253741E+03 0.  0.
         24    2    3    3    0    0  0.30051877736E+02  0.30326746603E+02 -0.17499056401E+03  0.19689079665E+03  0.79507618478E+02 0.  0.
         -6    2    1    2    0  502 -0.10322232945E+03 -0.64038886012E+01 -0.27272279983E+03  0.33955259018E+03  0.17384584224E+03 0.  0.
        -24    2    5    5    0    0 -0.14063740087E+03  0.71605217386E+00 -0.23814822409E+03  0.28789920294E+03  0.79949879046E+02 0.  0.
          5    1    3    3  501    0  0.73170451712E+02 -0.23922858002E+02 -0.13909628892E+02  0.78369547112E+02  0.47000000000E+01 0. -1.
        -11    1    4    4    0    0  0.39711215199E+02  0.10865651708E+01 -0.15539010043E+03  0.16038779426E+03  0.00000000000E+00 0.  1.
         12    1    4    4    0    0 -0.96593374631E+01  0.29240181432E+02 -0.19600463579E+02  0.36503002382E+02  0.00000000000E+00 0. -1.
         -5    1    5    5    0  502  0.37415071422E+02 -0.71199407751E+01 -0.34574575737E+02  0.51653387242E+02  0.47000000000E+01 0.  1.
         11    1    6    6    0    0 -0.68047897058E+02 -0.32104776693E+02 -0.15744462546E+03  0.17449940707E+03  0.00000000000E+00 0. -1.
        -12    1    6    6    0    0 -0.72589503812E+02  0.32820828867E+02 -0.80703598631E+02  0.11339979587E+03  0.00000000000E+00 0.  1.
</event>
<event>
12    1  0.8406581E-002  0.2161449E+03  0.7818608E-02  0.1136813E+00
         21   -1    0    0  503  502  0.00000000000E+00  0.00000000000E+00  0.17306565238E+03  0.17306565238E+03  0.00000000000E+00 0. -1.
         21   -1    0    0  501  503 -0.00000000000E+00 -0.00000000000E+00 -0.10514260018E+04  0.10514260018E+04  0.00000000000E+00 0.  1.
          6    2    1    2  501    0 -0.57835445336E+02  0.11861161579E+03 -0.96703046345E+03  0.99086582542E+03  0.17103658265E+03 0.  0.
         24    2    3    3    0    0 -0.31537071041E+02 -0.98973017340E+00 -0.53402354013E+03  0.54085119000E+03  0.79644848523E+02 0.  0.
         -6    2    1    2    0  502  0.57835445336E+02 -0.11861161579E+03  0.88670114011E+02  0.23362582879E+03  0.17118698730E+03 0.  0.
        -24    2    5    5    0    0  0.88849442423E+02 -0.13588437711E+03  0.74241957350E+02  0.19501911948E+03  0.78497142434E+02 0.  0.
          5    1    3    3  501    0 -0.26298374295E+02  0.11960134596E+03 -0.43300692332E+03  0.45001463542E+03  0.47000000000E+01 0. -1.
        -13    1    4    4    0    0 -0.32874188458E+02  0.35466365470E+02 -0.34081670828E+03  0.34423045186E+03  0.00000000000E+00 0.  1.
         14    1    4    4    0    0  0.13371174165E+01 -0.36456095643E+02 -0.19320683185E+03  0.19662073814E+03  0.00000000000E+00 0. -1.
         -5    1    5    5    0  502 -0.31013997087E+02  0.17272761322E+02  0.14428156662E+02  0.38606709309E+02  0.47000000000E+01 0.  1.
         13    1    6    6    0    0  0.48469612850E+02 -0.19110047665E+02  0.25399474273E+01  0.52162712971E+02  0.00000000000E+00 0. -1.
        -14    1    6    6    0    0  0.40379829573E+02 -0.11677432945E+03  0.71702009922E+02  0.14285640651E+03  0.00000000000E+00 0.  1.
</event>
<event>
12    1  0.8406581E-002  0.2190364E+03  0.7818608E-02  0.1134623E+00
         21   -1    0    0  501  502  0.00000000000E+00  0.00000000000E+00  0.66497819303E+03  0.66497819303E+03  0.00000000000E+00 0. -1.
         21   -1    0    0  502  503 -0.00000000000E+00 -0.00000000000E+00 -0.74749421272E+02  0.74749421272E+02  0.00000000000E+00 0. -1.
         -6    2    1    2    0  503 -0.13514277468E+03  0.52062473599E+01  0.22574048298E+03  0.31454044617E+03  0.17229698795E+03 0.  0.
        -24    2    3    3    0    0 -0.14003349752E+03 -0.12747045275E+02  0.24099397929E+03  0.29002516449E+03  0.79149418140E+02 0.  0.
          6    2    1    2  501    0  0.13514277468E+03 -0.52062473599E+01  0.36448828878E+03  0.42518716814E+03  0.17216776915E+03 0.  0.
         24    2    5    5    0    0  0.47405199104E+02 -0.15209828330E+01  0.13213918890E+03  0.17675275515E+03  0.10738344807E+03 0.  0.
          5    1    5    5  501    0  0.87737575576E+02 -0.36852645269E+01  0.23234909988E+03  0.24843441299E+03  0.47000000000E+01 0. -1.
        -13    1    6    6    0    0  0.36033261692E+02 -0.69304513518E+01  0.15026581676E+03  0.15468110030E+03  0.00000000000E+00 0.  1.
         14    1    6    6    0    0  0.11371937412E+02  0.54094685188E+01 -0.18126627860E+02  0.22071654848E+02  0.00000000000E+00 0. -1.
         -5    1    3    3    0  503  0.48907228381E+01  0.17953292635E+02 -0.15253496306E+02  0.24515281680E+02  0.47000000000E+01 0.  1.
         13    1    4    4    0    0 -0.16589888879E+02  0.21755759876E+02  0.17783469892E+02  0.32631109423E+02  0.00000000000E+00 0. -1.
        -14    1    4    4    0    0 -0.12344360864E+03 -0.34502805150E+02  0.22321050940E+03  0.25739405506E+03  0.00000000000E+00 0.  1.
</event>
<event>
12    1  0.8406581E-002  0.4111150E+03  0.7818608E-02  0.1040139E+00
         21   -1    0    0  503  502  0.00000000000E+00  0.00000000000E+00  0.87130969554E+03  0.87130969554E+03  0.00000000000E+00 0. -1.
         21   -1    0    0  501  503 -0.00000000000E+00 -0.00000000000E+00 -0.42587722641E+03  0.42587722641E+03  0.00000000000E+00 0. -1.
          6    2    1    2  501    0  0.37353614566E+03  0.98800571853E+01 -0.25650207560E+03  0.48457077075E+03  0.17143117989E+03 0.  0.
         24    2    3    3    0    0  0.20800896156E+03 -0.42449328109E+02 -0.20011744614E+03  0.30198125934E+03  0.77948798537E+02 0.  0.
         -6    2    1    2    0  502 -0.37353614566E+03 -0.98800571853E+01  0.70193454473E+03  0.81261615119E+03  0.16735004166E+03 0.  0.
        -24    2    5    5    0    0 -0.23528380238E+03 -0.18167335250E+02  0.31246388311E+03  0.39922544537E+03  0.77838025702E+02 0.  0.
          5    1    3    3  501    0  0.16552718410E+03  0.52329385295E+02 -0.56384629455E+02  0.18258951142E+03  0.47000000000E+01 0. -1.
        -13    1    4    4    0    0  0.93027247030E+02  0.19319722632E+02 -0.73364559054E+02  0.12004032197E+03  0.00000000000E+00 0.  1.
         14    1    4    4    0    0  0.11498171453E+03 -0.61769050741E+02 -0.12675288709E+03  0.18194093737E+03  0.00000000000E+00 0. -1.
         -5    1    5    5    0  502 -0.13825234328E+03  0.82872780644E+01  0.38947066162E+03  0.41339070582E+03  0.47000000000E+01 0.  1.
         13    1    6    6    0    0 -0.17046206309E+03 -0.47981254369E+02  0.22647915693E+03  0.28749317252E+03  0.00000000000E+00 0. -1.
        -14    1    6    6    0    0 -0.64821739291E+02  0.29813919120E+02  0.85984726181E+02  0.11173227284E+03  0.00000000000E+00 0.  1.
</event>
<event>
12    1  0.8406581E-002  0.2006572E+03  0.7818608E-02  0.1149270E+00
         21   -1    0    0  503  502  0.00000000000E+00  0.00000000000E+00  0.26072387265E+03  0.26072387265E+03  0.00000000000E+00 0.  1.
         21   -1    0    0  501  503 -0.00000000000E+00 -0.00000000000E+00 -0.16730258399E+03  0.16730258399E+03  0.00000000000E+00 0.  1.
          6    2    1    2  501    0 -0.11839411437E+02  0.10165451011E+03 -0.13320151647E+02  0.20109884556E+03  0.17259637353E+03 0.  0.
         24    2    3    3    0    0 -0.40913668047E+02 -0.70359206495E+01 -0.51389303744E+01  0.88192049841E+02  0.77640174119E+02 0.  0.
         -6    2    1    2    0  502  0.11839411437E+02 -0.10165451011E+03  0.10674144031E+03  0.22692761108E+03  0.17212958636E+03 0.  0.
        -24    2    5    5    0    0  0.42028003373E+02 -0.72649041168E+02  0.13244428431E+03  0.17757789475E+03  0.83355767687E+02 0.  0.
          5    1    3    3  501    0  0.29074256610E+02  0.10869043076E+03 -0.81812212725E+01  0.11290679571E+03  0.47000000000E+01 0. -1.
        -13    1    4    4    0    0 -0.45975846047E+02  0.11231992746E+02 -0.30667291294E+02  0.56395202243E+02  0.00000000000E+00 0.  1.
         14    1    4    4    0    0  0.50621779995E+01 -0.18267913395E+02  0.25528360920E+02  0.31796847598E+02  0.00000000000E+00 0. -1.
         -5    1    5    5    0  502 -0.30188591937E+02 -0.29005468946E+02 -0.25702844005E+02  0.49349716330E+02  0.47000000000E+01 0.  1.
         11    1    6    6    0    0  0.28094595845E+02 -0.17394695247E+02 -0.38017806395E+00  0.33045820822E+02  0.00000000000E+00 0. -1.
        -12    1    6    6    0    0  0.13933407529E+02 -0.55254345921E+02  0.13282446238E+03  0.14453207393E+03  0.00000000000E+00 0.  1.
</event>
<event>
12    1  0.8406581E-002  0.1945804E+03  0.7818608E-02  0.1154762E+00
         21   -1    0    0  503  502  0.00000000000E+00  0.00000000000E+00  0.47283223894E+02  0.47283223894E+02  0.00000000000E+00 0. -1.
         21   -1    0    0  501  503 -0.00000000000E+00 -0.00000000000E+00 -0.88360521190E+03  0.88360521190E+03  0.00000000000E+00 0.  1.
          6    2    1    2  501    0  0.72647808319E+02 -0.54786179171E+02 -0.56812314166E+03  0.60052096008E+03  0.17199502877E+03 0.  0.
         24    2    3    3    0    0  0.64852605595E+02 -0.96702551996E+02 -0.51219676883E+03  0.53003978050E+03  0.70988695587E+02 0.  0.
         -6    2    1    2    0  502 -0.72647808319E+02  0.54786179171E+02 -0.26819884635E+03  0.33036747572E+03  0.17009649717E+03 0.  0.
        -24    2    5    5    0    0 -0.14287264109E+01  0.74687206656E+02 -0.20966541091E+03  0.23594045847E+03  0.78282151934E+02 0.  0.
          5    1    3    3  501    0  0.77952027243E+01  0.41916372825E+02 -0.55926372832E+02  0.70481179577E+02  0.47000000000E+01 0. -1.
        -13    1    4    4    0    0  0.40689894937E+02 -0.88505224421E+01 -0.22212982679E+03  0.22599924612E+03  0.00000000000E+00 0.  1.
         14    1    4    4    0    0  0.24162710658E+02 -0.87852029554E+02 -0.29006694204E+03  0.30404053438E+03  0.00000000000E+00 0. -1.
         -5    1    5    5    0  502 -0.71219081908E+02 -0.19901027485E+02 -0.58533435432E+02  0.94427017248E+02  0.47000000000E+01 0.  1.
         11    1    6    6    0    0  0.93039916137E+01  0.25151343950E+02 -0.79733510849E+01  0.27977288825E+02  0.00000000000E+00 0. -1.
        -12    1    6    6    0    0 -0.10732718025E+02  0.49535862706E+02 -0.20169205983E+03  0.20796316964E+03  0.00000000000E+00 0.  1.
</event>
<event>
12    1  0.8406581E-002  0.1817167E+03  0.7818608E-02  0.1166241E+00
         21   -1    0    0  501  502  0.00000000000E+00  0.00000000000E+00  0.31800606842E+03  0.31800606842E+03  0.00000000000E+00 0. -1.
         21   -1    0    0  502  503 -0.00000000000E+00 -0.00000000000E+00 -0.11527701871E+03  0.11527701871E+03  0.00000000000E+00 0. -1.
         -6    2    1    2    0  503 -0.49199466419E+02 -0.34222144565E+02  0.32389986001E+02  0.18421210512E+03  0.17115269733E+03 0.  0.
        -24    2    3    3    0    0 -0.38568218547E+02  0.34937130756E+02  0.41661349716E+02  0.11347260428E+03  0.91827301352E+02 0.  0.
          6    2    1    2  501    0  0.49199466419E+02  0.34222144565E+02  0.17033906371E+03  0.24907098202E+03  0.17154945288E+03 0.  0.
         24    2    5    5    0    0 -0.36333762354E+02  0.17390251630E+01  0.10107754156E+03  0.13422179951E+03  0.80471458060E+02 0.  0.
          5    1    5    5  501    0  0.85533228773E+02  0.32483119402E+02  0.69261522157E+02  0.11484918250E+03  0.47000000000E+01 0. -1.
        -13    1    6    6    0    0 -0.57372951827E+02  0.17930660538E+02  0.57431616270E+02  0.83135760874E+02  0.00000000000E+00 0.  1.
         14    1    6    6    0    0  0.21039189473E+02 -0.16191635375E+02  0.43645925286E+02  0.51086038640E+02  0.00000000000E+00 0. -1.
         -5    1    3    3    0  503 -0.10631247872E+02 -0.69159275321E+02 -0.92713637147E+01  0.70739500842E+02  0.47000000000E+01 0.  1.
         11    1    4    4    0    0 -0.31712211827E+02  0.41073404581E+02 -0.16605839903E+02  0.54483418227E+02  0.00000000000E+00 0. -1.
        -12    1    4    4    0    0 -0.68560067198E+01 -0.61362738250E+01  0.58267189619E+02  0.58989186048E+02  0.00000000000E+00 0.  1.
</event>
<event>
12    1  0.8406581E-002  0.2506142E+03  0.7818608E-02  0.1113013E+00
         21   -1    0    0  503  502  0.00000000000E+00  0.00000000000E+00  0.13634649004E+04  0.13634649004E+04  0.00000000000E+00 0.  1.
         21   -1    0    0  501  503 -0.00000000000E+00 -0.00000000000E+00 -0.56067076161E+02  0.56067076161E+02  0.00000000000E+00 0. -1.
          6    2    1    2  501    0 -0.16157143101E+03  0.82208548851E+02  0.95450256538E+03  0.98670110551E+03  0.17216373452E+03 0.  0.
         24    2    3    3    0    0 -0.14506188729E+03  0.73681798932E+02  0.94969779159E+03  0.96694139020E+03  0.81103625706E+02 0.  0.
         -6    2    1    2    0  502  0.16157143101E+03 -0.82208548851E+02  0.35289525888E+03  0.43283087106E+03  0.17304313447E+03 0.  0.
        -24    2    5    5    0    0  0.13956851990E+03 -0.10299897830E+03  0.35398656127E+03  0.40217714381E+03  0.79698231861E+02 0.  0.
          5    1    3    3  501    0 -0.16509543716E+02  0.85267499194E+01  0.48047737896E+01  0.19759715309E+02  0.47000000000E+01 0. -1.
        -11    1    4    4    0    0  0.94404687970E+01  0.87409516565E+01  0.42965444726E+02  0.44850374886E+02  0.00000000000E+00 0.  1.
         12    1    4    4    0    0 -0.15450235609E+03  0.64940847275E+02  0.90673234686E+03  0.92209101532E+03  0.00000000000E+00 0. -1.
         -5    1    5    5    0  502  0.22002911108E+02  0.20790429449E+02 -0.10913023945E+01  0.30653727258E+02  0.47000000000E+01 0.  1.
         13    1    6    6    0    0  0.35251388106E+02 -0.62076468107E+02  0.86409252352E+02  0.11208348294E+03  0.00000000000E+00 0. -1.
        -14    1    6    6    0    0  0.10431713179E+03 -0.40922510194E+02  0.26757730892E+03  0.29009366087E+03  0.00000000000E+00 0.  1.
</event>
<event>
12    1  0.8406581E-002  0.1995875E+03  0.7818608E-02  0.1150492E+00
         21   -1    0    0  501  502  0.00000000000E+00  0.00000000000E+00  0.35763855769E+03  0.35763855769E+03  0.00000000000E+00 0. -1.
         21   -1    0    0  502  503 -0.00000000000E+00 -0.00000000000E+00 -0.11061403853E+03  0.11061403853E+03  0.00000000000E+00 0. -1.
         -6    2    1    2    0  503  0.94701876757E+02  0.18806101247E+02  0.13607320288E+03  0.24155968358E+03  0.17467984796E+03 0.  0.
        -24    2    3    3    0    0  0.76198966494E+02  0.68736427606E+02  0.46665442392E+02  0.13739043277E+03  0.78533359328E+02 0.  0.
          6    2    1    2  501    0 -0.94701876757E+02 -0.18806101247E+02  0.11095131627E+03  0.22669291264E+03  0.17250323810E+03 0.  0.
         24    2    5    5    0    0 -0.24050934495E+01  0.40848428655E+02  0.15939853555E+02  0.81342896497E+02  0.68470499349E+02 0.  0.
          5    1    5    5  501    0 -0.92296783307E+02 -0.59654529902E+02  0.95011462716E+02  0.14535001615E+03  0.47000000000E+01 0. -1.
        -11    1    6    6    0    0 -0.31171345084E+02  0.33873078239E+02  0.22171491038E+02  0.51094160122E+02  0.00000000000E+00 0.  1.
         12    1    6    6    0    0  0.28766251635E+02  0.69753504158E+01 -0.62316374834E+01  0.30248736375E+02  0.00000000000E+00 0. -1.
         -5    1    3    3    0  503  0.18502910263E+02 -0.49930326358E+02  0.89407760491E+02  0.10416925081E+03  0.47000000000E+01 0.  1.
         11    1    4    4    0    0  0.32450457089E+02  0.75567814977E+02  0.16683069052E+02  0.83915741186E+02  0.00000000000E+00 0. -1.
        -12    1    4    4    0    0  0.43748509405E+02 -0.68313873715E+01  0.29982373340E+02  0.53474691581E+02  0.00000000000E+00 0.  1.
</event>
<event>
12    1  0.8406581E-002  0.1722079E+03  0.7818608E-02  0.1175600E+00
         21   -1    0    0  501  502  0.00000000000E+00  0.00000000000E+00  0.35127333573E+02  0.35127333573E+02  0.00000000000E+00 0. -1.
         21   -1    0    0  502  503 -0.00000000000E+00 -0.00000000000E+00 -0.11947840003E+04  0.11947840003E+04  0.00000000000E+00 0. -1.
         -6    2    1    2    0  503  0.93686292669E+01  0.32468972373E+02 -0.91308681208E+03  0.92915852723E+03  0.16871881030E+03 0.  0.
        -24    2    3    3    0    0  0.67253045432E+02  0.35985627993E+01 -0.65099824583E+03  0.65916480000E+03  0.78508570950E+02 0.  0.
          6    2    1    2  501    0 -0.93686292669E+01 -0.32468972373E+02 -0.24656985464E+03  0.30075280664E+03  0.16885956325E+03 0.  0.
         24    2    5    5    0    0 -0.57913796591E+02  0.70700148627E+01 -0.80757034677E+02  0.12345095655E+03  0.72900254295E+02 0.  0.
          5    1    5    5  501    0  0.48545167324E+02 -0.39538987235E+02 -0.16581281997E+03  0.17730185010E+03  0.47000000000E+01 0. -1.
        -11    1    6    6    0    0 -0.24928565783E+02  0.24332776475E+02 -0.78815731111E+02  0.86170974658E+02  0.00000000000E+00 0.  1.
         12    1    6    6    0    0 -0.32985230808E+02 -0.17262761612E+02 -0.19413035664E+01  0.37279981887E+02  0.00000000000E+00 0. -1.
         -5    1    3    3    0  503 -0.57884416165E+02  0.28870409573E+02 -0.26208856625E+03  0.26999372723E+03  0.47000000000E+01 0.  1.
         13    1    4    4    0    0  0.50484036986E+02  0.30594441288E+02 -0.55301275887E+03  0.55615444734E+03  0.00000000000E+00 0. -1.
        -14    1    4    4    0    0  0.16769008445E+02 -0.26995878489E+02 -0.97985486958E+02  0.10301035265E+03  0.00000000000E+00 0.  1.
</event>
<event>
12    1  0.8406581E-002  0.1902048E+03  0.7818608E-02  0.1158285E+00
         21   -1    0    0  501  502  0.00000000000E+00  0.00000000000E+00  0.21407599979E+03  0.21407599979E+03  0.00000000000E+00 0. -1.
         21   -1    0    0  502  503 -0.00000000000E+00 -0.00000000000E+00 -0.18268965520E+03  0.18268965520E+03  0.00000000000E+00 0. -1.
         -6    2    1    2    0  503 -0.65808225805E+02  0.46808760932E+02 -0.38684524684E+02  0.19406440603E+03  0.17217060886E+03 0.  0.
        -24    2    3    3    0    0 -0.97036850026E+02  0.65773826441E+02 -0.56655059729E+02  0.15307744700E+03  0.80501940852E+02 0.  0.
          6    2    1    2  501    0  0.65808225805E+02 -0.46808760932E+02  0.70070869278E+02  0.20270124896E+03  0.17220942751E+03 0.  0.
         24    2    5    5    0    0  0.66374678027E+02 -0.74479886053E+02  0.11774434767E+02  0.13799749088E+03  0.94614052150E+02 0.  0.
          5    1    5    5  501    0 -0.56645222226E+00  0.27671125121E+02  0.58296434511E+02  0.64703758084E+02  0.47000000000E+01 0. -1.
        -13    1    6    6    0    0  0.37594926660E+02  0.82725917916E+01 -0.21719926539E+02  0.44199202418E+02  0.00000000000E+00 0.  1.
         14    1    6    6    0    0  0.28779751367E+02 -0.82752477845E+02  0.33494361307E+02  0.93798288457E+02  0.00000000000E+00 0. -1.
         -5    1    3    3    0  503  0.31228624221E+02 -0.18965065509E+02  0.17970535045E+02  0.40986959028E+02  0.47000000000E+01 0.  1.
         13    1    4    4    0    0 -0.76352859562E+02  0.84504895102E+02 -0.50047804554E+02  0.12440104180E+03  0.00000000000E+00 0. -1.
        -14    1    4    4    0    0 -0.20683990463E+02 -0.18731068661E+02 -0.66072551749E+01  0.28676405207E+02  0.00000000000E+00 0.  1.
</event>
<event>
12    1  0.8406581E-002  0.2060243E+03  0.7818608E-02  0.1144797E+00
         21   -1    0    0  501  502  0.00000000000E+00  0.00000000000E+00  0.47941151762E+02  0.47941151762E+02  0.00000000000E+00 0.  1.
         21   -1    0    0  502  503 -0.00000000000E+00 -0.00000000000E+00 -0.10558804504E+04  0.10558804504E+04  0.00000000000E+00 0.  1.
         -6    2    1    2    0  503 -0.78835348429E+02 -0.80083334186E+02 -0.72612898095E+03  0.75473270145E+03  0.17242331944E+03 0.  0.
        -24    2    3    3    0    0 -0.21359268258E+02  0.97856916099E+00 -0.50923530413E+03  0.51611273370E+03  0.81207037706E+02 0.  0.
          6    2    1    2  501    0  0.78835348429E+02  0.80083334186E+02 -0.28181031773E+03  0.34908890076E+03  0.17267788763E+03 0.  0.
         24    2    5    5    0    0  0.10661994635E+03  0.62538339216E+02 -0.27948019623E+03  0.31581232948E+03  0.79683063025E+02 0.  0.
          5    1    5    5  501    0 -0.27784597918E+02  0.17544994970E+02 -0.23301215012E+01  0.33276571280E+02  0.47000000000E+01 0. -1.
        -13    1    6    6    0    0  0.41252227439E+02  0.46779469000E+02 -0.61087188843E+02  0.87302403342E+02  0.00000000000E+00 0.  1.
         14    1    6    6    0    0  0.65367718908E+02  0.15758870216E+02 -0.21839300739E+03  0.22850992614E+03  0.00000000000E+00 0. -1.
         -5    1    3    3    0  503 -0.57476080170E+02 -0.81061903347E+02 -0.21689367682E+03  0.23861996775E+03  0.47000000000E+01 0.  1.
         11    1    4    4    0    0  0.72417329330E+01 -0.32758203568E+02 -0.32112749181E+03  0.32287522140E+03  0.00000000000E+00 0. -1.
        -12    1    4    4    0    0 -0.28601001191E+02  0.33736772729E+02 -0.18810781232E+03  0.19323751230E+03  0.00000000000E+00 0.  1.
</event>
<event>
12    1  0.8406581E-002  0.1950917E+03  0.7818608E-02  0.1153994E+00
         21   -1    0    0  501  502  0.00000000000E+00  0.00000000000E+00  0.72131136639E+03  0.72131136639E+03  0.00000000000E+00 0. -1.
         21   -1    0    0  502  503 -0.00000000000E+00 -0.00000000000E+00 -0.12107202662E+03  0.12107202662E+03  0.00000000000E+00 0. -1.
         -6    2    1    2    0  503  0.38642639969E+02  0.82124853764E+02 -0.16306565591E+02  0.19577202657E+03  0.17269347722E+03 0.  0.
        -24    2    3    3    0    0 -0.31563392204E+02  0.64960947366E+01 -0.31923165533E+02  0.91299234226E+02  0.79233923911E+02 0.  0.
          6    2    1    2  501    0 -0.38642639969E+02 -0.82124853764E+02  0.61654590536E+03  0.64661136645E+03  0.17245190800E+03 0.  0.
         24    2    5    5    0    0 -0.58040314267E+02 -0.69286953422E+02  0.21671530555E+03  0.24607712322E+03  0.73614311905E+02 0.  0.
          5    1    5    5  501    0  0.19397674298E+02 -0.12837900342E+02  0.39983059982E+03  0.40053424323E+03  0.47000000000E+01 0. -1.
        -11    1    6    6    0    0 -0.47010186373E+02 -0.70813623429E+01  0.13270279557E+03  0.14096146732E+03  0.00000000000E+00 0.  1.
         12    1    6    6    0    0 -0.11030127895E+02 -0.62205591079E+02  0.84012509974E+02  0.10511565590E+03  0.00000000000E+00 0. -1.
         -5    1    3    3    0  503  0.70206032173E+02  0.75628759027E+02  0.15616599942E+02  0.10447279234E+03  0.47000000000E+01 0.  1.
         13    1    4    4    0    0 -0.23065975175E+02  0.25056860567E+02 -0.52329006760E+02  0.62435650239E+02  0.00000000000E+00 0. -1.
        -14    1    4    4    0    0 -0.84974170288E+01 -0.18560765831E+02  0.20405841227E+02  0.28863583987E+02  0.00000000000E+00 0.  1.
</event>
<event>
12    1  0.8406581E-002  0.3428742E+03  0.7818608E-02  0.1065617E+00
         21   -1    0    0  503  502  0.00000000000E+00  0.00000000000E+00  0.50586420695E+03  0.50586420695E+03  0.00000000000E+00 0. -1.
         21   -1    0    0  501  503 -0.00000000000E+00 -0.00000000000E+00 -0.23965049948E+03  0.23965049948E+03  0.00000000000E+00 0. -1.
          6    2    1    2  501    0 -0.29278059862E+03 -0.43690049918E+02  0.19896451170E+03  0.39610783841E+03  0.17229406069E+03 0.  0.
         24    2    3    3    0    0 -0.24999917141E+03 -0.80352441779E+02  0.20024434126E+03  0.33955600861E+03  0.79021428547E+02 0.  0.
         -6    2    1    2    0  502  0.29278059862E+03  0.43690049918E+02  0.67249195767E+02  0.34940686802E+03  0.17301273276E+03 0.  0.
        -24    2    5    5    0    0  0.23634162714E+03  0.60526260821E+02  0.10313171198E+03  0.28028045868E+03  0.91652564225E+02 0.  0.
          5    1    3    3  501    0 -0.42781427211E+02  0.36662391861E+02 -0.12798295605E+01  0.56551829810E+02  0.47000000000E+01 0. -1.
        -11    1    4    4    0    0 -0.10168793534E+03 -0.34227844048E+02  0.13146364587E+03  0.16968992807E+03  0.00000000000E+00 0.  1.
         12    1    4    4    0    0 -0.14831123606E+03 -0.46124597730E+02  0.68780695388E+02  0.16986608053E+03  0.00000000000E+00 0. -1.
         -5    1    5    5    0  502  0.56438971473E+02 -0.16836210903E+02 -0.35882516214E+02  0.69126409341E+02  0.47000000000E+01 0.  1.
         13    1    6    6    0    0  0.99415625419E+02 -0.15244881197E+02  0.63155648465E+02  0.11876240530E+03  0.00000000000E+00 0. -1.
        -14    1    6    6    0    0  0.13692600173E+03  0.75771142018E+02  0.39976063516E+02  0.16151805337E+03  0.00000000000E+00 0.  1.
</event>
<event>
12    1  0.8406581E-002  0.1897186E+03  0.7818608E-02  0.1158828E+00
         21   -1    0    0  503  502  0.00000000000E+00  0.00000000000E+00  0.20767155719E+03  0.20767155719E+03  0.00000000000E+00 0.  1.
         21   -1    0    0  501  503 -0.00000000000E+00 -0.00000000000E+00 -0.79648803547E+03  0.79648803547E+03  0.00000000000E+00 0.  1.
          6    2    1    2  501    0 -0.25306632383E+02 -0.73408558895E+02 -0.73876082342E+03  0.76273240183E+03  0.17310089662E+03 0.  0.
         24    2    3    3    0    0  0.79972739108E+01 -0.36255542146E+01 -0.16781022950E+03  0.18655058276E+03  0.81016947437E+02 0.  0.
         -6    2    1    2    0  502  0.25306632383E+02  0.73408558895E+02  0.14994434514E+03  0.24142719083E+03  0.17255300539E+03 0.  0.
        -24    2    5    5    0    0  0.82323310609E+02  0.69342707869E+02  0.11244939887E+03  0.17290424769E+03  0.75269336107E+02 0.  0.
          5    1    3    3  501    0 -0.33303906294E+02 -0.69783004681E+02 -0.57095059393E+03  0.57618181907E+03  0.47000000000E+01 0. -1.
        -13    1    4    4    0    0 -0.30887214970E+02  0.10363757881E+02 -0.11481531027E+03  0.11934815876E+03  0.00000000000E+00 0.  1.
         14    1    4    4    0    0  0.38884488881E+02 -0.13989312096E+02 -0.52994919223E+02  0.67202424003E+02  0.00000000000E+00 0. -1.
         -5    1    5    5    0  502 -0.57016678226E+02  0.40658510265E+01  0.37494946270E+02  0.68522943138E+02  0.47000000000E+01 0.  1.
         11    1    6    6    0    0  0.75470611716E+02  0.82819287796E+02  0.81804884676E+02  0.13873314968E+03  0.00000000000E+00 0. -1.
        -12    1    6    6    0    0  0.68526988926E+01 -0.13476579928E+02  0.30644514196E+02  0.34171098006E+02  0.00000000000E+00 0.  1.
</event>
<event>
12    1  0.8406581E-002  0.1928496E+03  0.7818608E-02  0.1156458E+00
         21   -1    0    0  501  502  0.00000000000E+00  0.00000000000E+00  0.64167715573E+03  0.64167715573E+03  0.00000000000E+00 0. -1.
         21   -1    0    0  502  503 -0.00000000000E+00 -0.00000000000E+00 -0.57393711042E+02  0.57393711042E+02  0.00000000000E+00 0. -1.
         -6    2    1    2    0  503  0.16116478383E+02 -0.80805675821E+02  0.31268748655E+03  0.36737504890E+03  0.17436073006E+03 0.  0.
        -24    2    3    3    0    0  0.22091801106E+02 -0.74619645007E+02  0.32942733199E+03  0.34797701074E+03  0.80681434318E+02 0.  0.
          6    2    1    2  501    0 -0.16116478383E+02  0.80805675821E+02  0.27159595814E+03  0.33169581787E+03  0.17166377894E+03 0.  0.
         24    2    5    5    0    0  0.46814850826E+02  0.58824166530E+01  0.15293492915E+03  0.17782451854E+03  0.77499895189E+02 0.  0.
          5    1    5    5  501    0 -0.62931329209E+02  0.74923259169E+02  0.11866102898E+03  0.15387129934E+03  0.47000000000E+01 0. -1.
        -13    1    6    6    0    0  0.18874859474E+02  0.38063631838E+02  0.10719242573E+03  0.11530531871E+03  0.00000000000E+00 0.  1.
         14    1    6    6    0    0  0.27939991351E+02 -0.32181215185E+02  0.45742503419E+02  0.62519199823E+02  0.00000000000E+00 0. -1.
         -5    1    3    3    0  503 -0.59753227225E+01 -0.61860308143E+01 -0.16739845441E+02  0.19398038155E+02  0.47000000000E+01 0.  1.
         13    1    4    4    0    0  0.87121296320E+01 -0.89642017013E+02  0.24071214086E+03  0.25700958577E+03  0.00000000000E+00 0. -1.
        -14    1    4    4    0    0  0.13379671474E+02  0.15022372006E+02  0.88715191128E+02  0.90967424973E+02  0.00000000000E+00 0.  1.
</event>
<event>
12    1  0.8406581E-002  0.2270195E+03  0.7818608E-02  0.1129057E+00
         21   -1    0    0  501  502  0.00000000000E+00  0.00000000000E+00  0.47141955228E+03  0.47141955228E+03  0.00000000000E+00 0.  1.
         21   -1    0    0  502  503 -0.00000000000E+00 -0.00000000000E+00 -0.16778777374E+03  0.16778777374E+03  0.00000000000E+00 0.  1.
         -6    2    1    2    0  503 -0.41167452283E+02  0.14246758887E+03 -0.38502556951E+02  0.22860559865E+03  0.16966525818E+03 0.  0.
        -24    2    3    3    0    0 -0.44692337635E+02  0.95310894749E+01 -0.11734085638E+02  0.92873587886E+02  0.79997299024E+02 0.  0.
          6    2    1    2  501    0  0.41167452283E+02 -0.14246758887E+03  0.34213433549E+03  0.41060172737E+03  0.17188979607E+03 0.  0.
         24    2    5    5    0    0  0.32010691749E+02 -0.93775414967E+02  0.33744393927E+03  0.36061308986E+03  0.79717473545E+02 0.  0.
          5    1    5    5  501    0  0.91567605332E+01 -0.48692173907E+02  0.46903962134E+01  0.49988637508E+02  0.47000000000E+01 0. -1.
        -11    1    6    6    0    0  0.14879876924E+02 -0.98818338113E+02  0.21764814782E+03  0.23949361355E+03  0.00000000000E+00 0.  1.
         12    1    6    6    0    0  0.17130814826E+02  0.50429231462E+01  0.11979579145E+03  0.12111947631E+03  0.00000000000E+00 0. -1.
         -5    1    3    3    0  503  0.35248853528E+01  0.13293649940E+03 -0.26768471313E+02  0.13573201076E+03  0.47000000000E+01 0.  1.
         13    1    4    4    0    0 -0.66799634101E+02  0.68610003995E+01  0.11229645170E+01  0.67160445888E+02  0.00000000000E+00 0. -1.
        -14    1    4    4    0    0  0.22107296466E+02  0.26700890754E+01 -0.12857050155E+02  0.25713141998E+02  0.00000000000E+00 0.  1.
</event>
<event>
12    1  0.8406581E-002  0.1741056E+03  0.7818608E-02  0.1173764E+00
         21   -1    0    0  503  502  0.00000000000E+00  0.00000000000E+00  0.12651735000E+03  0.12651735000E+03  0.00000000000E+00 0.  1.
         21   -1    0    0  501  503 -0.00000000000E+00 -0.00000000000E+00 -0.27904053053E+03  0.27904053053E+03  0.00000000000E+00 0.  1.
          6    2    1    2  501    0 -0.31455512563E+01  0.22753057301E+02 -0.15309448272E+03  0.23145131931E+03  0.17205870062E+03 0.  0.
         24    2    3    3    0    0 -0.62683340942E+02  0.33127674940E+02 -0.12589495875E+03  0.16501123204E+03  0.79702710009E+02 0.  0.
         -6    2    1    2    0  502  0.31455512563E+01 -0.22753057301E+02  0.57130218979E+00  0.17410656122E+03  0.17258381200E+03 0.  0.
        -24    2    5    5    0    0  0.16491285123E+02  0.52992426054E+01  0.63590950635E+02  0.10368918955E+03  0.80047451993E+02 0.  0.
          5    1    3    3  501    0  0.59537789686E+02 -0.10374617640E+02 -0.27199523974E+02  0.66440087268E+02  0.47000000000E+01 0. -1.
        -13    1    4    4    0    0  0.11018989489E+02  0.30327555461E+02 -0.46995276559E+02  0.57006444973E+02  0.00000000000E+00 0.  1.
         14    1    4    4    0    0 -0.73702330431E+02  0.28001194793E+01 -0.78899682186E+02  0.10800478707E+03  0.00000000000E+00 0. -1.
         -5    1    5    5    0  502 -0.13345733866E+02 -0.28052299906E+02 -0.63019648445E+02  0.70417371668E+02  0.47000000000E+01 0.  1.
         13    1    6    6    0    0  0.41282832421E+02  0.49537397307E+01  0.73474615412E+01  0.42223180613E+02  0.00000000000E+00 0. -1.
        -14    1    6    6    0    0 -0.24791547298E+02  0.34550287468E+00  0.56243489093E+02  0.61466008941E+02  0.00000000000E+00 0.  1.
</event>
<event>
12    1  0.8406581E-002  0.1787847E+03  0.7818608E-02  0.1168995E+00
         21   -1    0    0  503  502  0.00000000000E+00  0.00000000000E+00  0.72457816257E+02  0.72457816257E+02  0.00000000000E+00 0.  1.
         21   -1    0    0  501  503 -0.00000000000E+00 -0.00000000000E+00 -0.44870865497E+03  0.44870865497E+03  0.00000000000E+00 0.  1.
          6    2    1    2  501    0 -0.28362877196E+02 -0.36482474866E+02 -0.22218450934E+03  0.28515715409E+03  0.17266505890E+03 0.  0.
         24    2    3    3    0    0 -0.32798666650E+02 -0.84985788422E+02 -0.19400561137E+03  0.22869134192E+03  0.79769767806E+02 0.  0.
         -6    2    1    2    0  502  0.28362877196E+02  0.36482474866E+02 -0.15406632937E+03  0.23600931713E+03  0.17270940956E+03 0.  0.
        -24    2    5    5    0    0  0.78736307815E+02  0.52658177107E+02 -0.94586236297E+02  0.15626530590E+03  0.80622577152E+02 0.  0.
          5    1    3    3  501    0  0.44357894537E+01  0.48503313556E+02 -0.28178897963E+02  0.56465812173E+02  0.47000000000E+01 0. -1.
        -13    1    4    4    0    0 -0.62751266750E+00 -0.60732754403E+02 -0.17279896571E+03  0.18316206971E+03  0.00000000000E+00 0.  1.
         14    1    4    4    0    0 -0.32171153983E+02 -0.24253034019E+02 -0.21206645667E+02  0.45529272212E+02  0.00000000000E+00 0. -1.
         -5    1    5    5    0  502 -0.50373430618E+02 -0.16175702242E+02 -0.59480093075E+02  0.79744011233E+02  0.47000000000E+01 0.  1.
         13    1    6    6    0    0  0.27139816563E+02 -0.17908013236E+02 -0.85717516916E+01  0.33626500088E+02  0.00000000000E+00 0. -1.
        -14    1    6    6    0    0  0.51596491252E+02  0.70566190343E+02 -0.86014484606E+02  0.12263880581E+03  0.00000000000E+00 0.  1.
</event>
<event>
12    1  0.8406581E-002  0.1851376E+03  0.7818608E-02  0.1163746E+00
         21   -1    0    0  503  502  0.00000000000E+00  0.00000000000E+00  0.64877041046E+03  0.64877041046E+03  0.00000000000E+00 0.  1.
         21   -1    0    0  501  503 -0.00000000000E+00 -0.00000000000E+00 -0.61399605319E+02  0.61399605319E+02  0.00000000000E+00 0. -1.
          6    2    1    2  501    0  0.45976400161E+02 -0.44127514618E+02  0.15593479657E+03  0.24205703071E+03  0.17382427452E+03 0.  0.
         24    2    3    3    0    0  0.62502525420E+02 -0.42322780404E+02  0.28366651548E+02  0.11332439496E+03  0.79623916929E+02 0.  0.
         -6    2    1    2    0  502 -0.45976400161E+02  0.44127514618E+02  0.43143600857E+03  0.46811298508E+03  0.17009312270E+03 0.  0.
        -24    2    5    5    0    0 -0.37554741644E+02  0.43975883361E+02  0.44228862678E+03  0.45359345870E+03  0.82362366799E+02 0.  0.
          5    1    3    3  501    0 -0.16526125259E+02 -0.18047342140E+01  0.12756814503E+03  0.12873263575E+03  0.47000000000E+01 0. -1.
        -13    1    4    4    0    0 -0.60524331116E+01  0.75251466489E+01  0.26866181095E+02  0.28549106208E+02  0.00000000000E+00 0.  1.
         14    1    4    4    0    0  0.68554958531E+02 -0.49847927053E+02  0.15004704537E+01  0.84775288748E+02  0.00000000000E+00 0. -1.
         -5    1    5    5    0  502 -0.84216585164E+01  0.15163125656E+00 -0.10852618206E+02  0.14519526374E+02  0.47000000000E+01 0.  1.
         13    1    6    6    0    0  0.14507229542E+02 -0.62956124041E+01  0.21855930053E+02  0.26977326091E+02  0.00000000000E+00 0. -1.
        -14    1    6    6    0    0 -0.52061971187E+02  0.50271495765E+02  0.42043269672E+03  0.42661613261E+03  0.00000000000E+00 0.  1.
</event>
<event>
12    1  0.8406581E-002  0.2257877E+03  0.7818608E-02  0.1129922E+00
         21   -1    0    0  503  502  0.00000000000E+00  0.00000000000E+00  0.33462531153E+03  0.33462531153E+03  0.00000000000E+00 0.  1.
         21   -1    0    0  501  503 -0.00000000000E+00 -0.00000000000E+00 -0.16595510741E+03  0.16595510741E+03  0.00000000000E+00 0.  1.
          6    2    1    2  501    0  0.45582096738E+01  0.14594713181E+03  0.10222598953E+02  0.22601895562E+03  0.17221708455E+03 0.  0.
         24    2    3    3    0    0 -0.19961698224E+00  0.11841333060E+03 -0.56416110240E+02  0.15360656244E+03  0.79940239044E+02 0.  0.
         -6    2    1    2    0  502 -0.45582096738E+01 -0.14594713181E+03  0.15844760517E+03  0.27456146331E+03  0.17016759678E+03 0.  0.
        -24    2    5    5    0    0 -0.56162508783E+01 -0.15702486279E+02  0.19579568775E+02  0.84111447106E+02  0.80082867528E+02 0.  0.
          5    1    3    3  501    0  0.47578266561E+01  0.27533801215E+02  0.66638709192E+02  0.72412393184E+02  0.47000000000E+01 0. -1.
        -13    1    4    4    0    0 -0.24702891387E+02  0.13519967983E+02  0.64449079886E+01  0.28888738569E+02  0.00000000000E+00 0.  1.
         14    1    4    4    0    0  0.24503274405E+02  0.10489336262E+03 -0.62861018228E+02  0.12471782387E+03  0.00000000000E+00 0. -1.
         -5    1    5    5    0  502  0.10580412044E+01 -0.13024464554E+03  0.13886803639E+03  0.19045001621E+03  0.47000000000E+01 0.  1.
         13    1    6    6    0    0  0.33918711950E+02 -0.23780291490E+02  0.88853970622E+01  0.42366632680E+02  0.00000000000E+00 0. -1.
        -14    1    6    6    0    0 -0.39534962828E+02  0.80778052102E+01  0.10694171713E+02  0.41744814426E+02  0.00000000000E+00 0.  1.
</event>
<event>
12    1  0.8406581E-002  0.2386002E+03  0.7818608E-02  0.1123868E+00
         21   -1    0    0  503  502  0.00000000000E+00  0.00000000000E+00  0.17908790361E+03  0.17908790361E+03  0.00000000000E+00 0.  1.
         21   -1    0    0  501  503 -0.00000000000E+00 -0.00000000000E+00 -0.69840244794E+03  0.69840244794E+03  0.00000000000E+00 0.  1.
          6    2    1    2  501    0 -0.14281189558E+03  0.56601547636E+01 -0.58895573769E+03  0.62893463044E+03  0.16811494145E+03 0.  0.
         24    2    3    3    0    0 -0.48165721251E+02 -0.73127196465E+01 -0.13400424233E+03  0.16403770969E+03  0.81103764820E+02 0.  0.
         -6    2    1    2    0  502  0.14281189558E+03 -0.56601547636E+01  0.69641193363E+02  0.24855572110E+03  0.19105699623E+03 0.  0.
        -24    2    5    5    0    0  0.26098639017E+02  0.38451453643E+02 -0.21024511386E+02  0.94250250457E+02  0.79255450200E+02 0.  0.
          5    1    3    3  501    0 -0.94646174330E+02  0.12972874410E+02 -0.45495149536E+03  0.46489692075E+03  0.47000000000E+01 0. -1.
        -13    1    4    4    0    0 -0.69046171972E+02 -0.12763086851E+02 -0.11745403484E+03  0.13684195464E+03  0.00000000000E+00 0.  1.
         14    1    4    4    0    0  0.20880450722E+02  0.54503672041E+01 -0.16550207484E+02  0.27195755050E+02  0.00000000000E+00 0. -1.
         -5    1    5    5    0  502  0.11671325656E+03 -0.44111608407E+02  0.90665704749E+02  0.15430547065E+03  0.47000000000E+01 0.  1.
         11    1    6    6    0    0  0.41011606014E+02  0.55001316602E+02 -0.98001295339E+01  0.69304683786E+02  0.00000000000E+00 0. -1.
        -12    1    6    6    0    0 -0.14912966997E+02 -0.16549862959E+02 -0.11224381852E+02  0.24945566671E+02  0.00000000000E+00 0.  1.
</event>
<event>
12    1  0.8406581E-002  0.2346728E+03  0.7818608E-02  0.1124037E+00
         21   -1    0    0  503  502  0.00000000000E+00  0.00000000000E+00  0.52623890980E+03  0.52623890980E+03  0.00000000000E+00 0.  1.
         21   -1    0    0  501  503 -0.00000000000E+00 -0.00000000000E+00 -0.11316926790E+03  0.11316926790E+03  0.00000000000E+00 0. -1.
          6    2    1    2  501    0  0.15551111844E+03  0.31409239821E+02  0.11218926548E+03  0.26011105350E+03  0.17291928915E+03 0.  0.
         24    2    3    3    0    0  0.27619362943E+02 -0.24678754113E+02  0.14386473806E+02  0.89554200085E+02  0.80256551199E+02 0.  0.
         -6    2    1    2    0  502 -0.15551111844E+03 -0.31409239821E+02  0.30088037642E+03  0.37929712420E+03  0.16783044781E+03 0.  0.
        -24    2    5    5    0    0 -0.36305921825E+02  0.62813200712E+01  0.20021326878E+03  0.21871563783E+03  0.79960004341E+02 0.  0.
          5    1    3    3  501    0  0.12789175550E+03  0.56087993935E+02  0.97802791677E+02  0.17055685342E+03  0.47000000000E+01 0. -1.
        -11    1    4    4    0    0 -0.21565551245E+02 -0.31010197647E+02 -0.50734921882E+00  0.37775160646E+02  0.00000000000E+00 0.  1.
         12    1    4    4    0    0  0.49184914188E+02  0.63314435334E+01  0.14893823025E+02  0.51779039439E+02  0.00000000000E+00 0. -1.
         -5    1    5    5    0  502 -0.11920519662E+03 -0.37690559893E+02  0.10066710763E+03  0.16058148637E+03  0.47000000000E+01 0.  1.
         13    1    6    6    0    0  0.61270023205E+01 -0.29986215319E+02  0.51986634630E+02  0.60326805375E+02  0.00000000000E+00 0. -1.
        -14    1    6    6    0    0 -0.42432924145E+02  0.36267535390E+02  0.14822663415E+03  0.15838883246E+03  0.00000000000E+00 0.  1.
</event>
<event>
12    1  0.8406581E-002  0.1724712E+03  0.7818608E-02  0.1175442E+00
         21   -1    0    0  503  502  0.00000000000E+00  0.00000000000E+00  0.57261723449E+02  0.57261723449E+02  0.00000000000E+00 0. -1.
         21   -1    0    0  501  503 -0.00000000000E+00 -0.00000000000E+00 -0.74350519149E+03  0.74350519149E+03  0.00000000000E+00 0. -1.
          6    2    1    2  501    0  0.69619966227E+01  0.11825513535E+02 -0.56334604379E+03  0.58898852263E+03  0.17134877461E+03 0.  0.
         24    2    3    3    0    0  0.54995746068E+02 -0.13520626253E+02 -0.21191936300E+03  0.23335884183E+03  0.79619050655E+02 0.  0.
         -6    2    1    2    0  502 -0.69619966227E+01 -0.11825513535E+02 -0.12289742425E+03  0.21177839232E+03  0.17192439733E+03 0.  0.
        -24    2    5    5    0    0  0.56685443865E+02  0.17856564189E+02 -0.84880648885E+02  0.13178221973E+03  0.81423169013E+02 0.  0.
          5    1    3    3  501    0 -0.48033749445E+02  0.25346139788E+02 -0.35142668080E+03  0.35562968080E+03  0.47000000000E+01 0. -1.
        -11    1    4    4    0    0  0.32533934830E+02 -0.40126590321E+02 -0.17561639006E+03  0.18305659404E+03  0.00000000000E+00 0.  1.
         12    1    4    4    0    0  0.22461811238E+02  0.26605964068E+02 -0.36302972943E+02  0.50302247789E+02  0.00000000000E+00 0. -1.
         -5    1    5    5    0  502 -0.63647440488E+02 -0.29682077723E+02 -0.38016775365E+02  0.79996172582E+02  0.47000000000E+01 0.  1.
         13    1    6    6    0    0  0.37436593460E+02 -0.22074730482E+02 -0.97368029683E+01  0.44537597463E+02  0.00000000000E+00 0. -1.
        -14    1    6    6    0    0  0.19248850405E+02  0.39931294671E+02 -0.75143845917E+02  0.87244622271E+02  0.00000000000E+00 0.  1.
</event>
<event>
12    1  0.8406581E-002  0.1872183E+03  0.7818608E-02  0.1161613E+00
         21   -1    0    0  501  502  0.00000000000E+00  0.00000000000E+00  0.15125231394E+04  0.15125231394E+04  0.00000000000E+00 0.  1.
         21   -1    0    0  502  503 -0.00000000000E+00 -0.00000000000E+00 -0.23348260598E+02  0.23348260598E+02  0.00000000000E+00 0.  1.
         -6    2    1    2    0  503 -0.68918818882E+02 -0.73925272415E+01  0.85216414699E+03  0.87191855800E+03  0.17103737990E+03 0.  0.
        -24    2    3    3    0    0 -0.41521944556E+02 -0.61208883506E+02  0.35647118298E+03  0.37253854890E+03  0.79010548795E+02 0.  0.
          6    2    1    2  501    0  0.68918818882E+02  0.73925272415E+01  0.63701073181E+03  0.66395284199E+03  0.17391449305E+03 0.  0.
         24    2    5    5    0    0  0.86614199899E+02 -0.48635814018E+02  0.42349011180E+03  0.44244562607E+03  0.80912268607E+02 0.  0.
          5    1    5    5  501    0 -0.17695381017E+02  0.56028341260E+02  0.21352062001E+03  0.22150721592E+03  0.47000000000E+01 0. -1.
        -13    1    6    6    0    0  0.35720549442E+01 -0.28745142074E+02  0.38958787567E+02  0.48547192484E+02  0.00000000000E+00 0.  1.
         14    1    6    6    0    0  0.83042144955E+02 -0.19890671944E+02  0.38453132423E+03  0.39389843359E+03  0.00000000000E+00 0. -1.
         -5    1    3    3    0  503 -0.27396874327E+02  0.53816356265E+02  0.49569296401E+03  0.49938000911E+03  0.47000000000E+01 0.  1.
         13    1    4    4    0    0  0.46733445026E+01  0.37828270285E+01 -0.11624594661E+01  0.61238256979E+01  0.00000000000E+00 0. -1.
        -14    1    4    4    0    0 -0.46195289058E+02 -0.64991710535E+02  0.35763364244E+03  0.36641472320E+03  0.00000000000E+00 0.  1.
</event>
<event>
12    1  0.8406581E-002  0.2270109E+03  0.7818608E-02  0.1129100E+00
         21   -1    0    0  501  502  0.00000000000E+00  0.00000000000E+00  0.13337038475E+03  0.13337038475E+03  0.00000000000E+00 0.  1.
         21   -1    0    0  502  503 -0.00000000000E+00 -0.00000000000E+00 -0.98246882872E+03  0.98246882872E+03  0.00000000000E+00 0. -1.
         -6    2    1    2    0  503  0.14541137198E+03 -0.11977047467E+02 -0.85959385022E+03  0.88858584802E+03  0.17145059114E+03 0.  0.
        -24    2    3    3    0    0  0.98086702865E+02  0.57417169050E+02 -0.46742571933E+03  0.48749593980E+03  0.79042745712E+02 0.  0.
          6    2    1    2  501    0 -0.14541137198E+03  0.11977047467E+02  0.10495406246E+02  0.22725336545E+03  0.17391383437E+03 0.  0.
         24    2    5    5    0    0 -0.30562651646E+02 -0.56556008602E+01  0.56607886411E+02  0.10215504541E+03  0.79152631045E+02 0.  0.
          5    1    5    5  501    0 -0.11484872034E+03  0.17632648328E+02 -0.46112480164E+02  0.12509832004E+03  0.47000000000E+01 0. -1.
        -11    1    6    6    0    0 -0.36736285989E+02  0.63364225661E+01  0.72371594936E+02  0.81408554298E+02  0.00000000000E+00 0.  1.
         12    1    6    6    0    0  0.61736343433E+01 -0.11992023426E+02 -0.15763708525E+02  0.20746491109E+02  0.00000000000E+00 0. -1.
         -5    1    3    3    0  503  0.47324669118E+02 -0.69394216517E+02 -0.39216813088E+03  0.40108990822E+03  0.47000000000E+01 0.  1.
         13    1    4    4    0    0  0.39259848450E+02  0.87114349879E+01 -0.30917995592E+03  0.31178433242E+03  0.00000000000E+00 0. -1.
        -14    1    4    4    0    0  0.58826854416E+02  0.48705734062E+02 -0.15824576341E+03  0.17571160738E+03  0.00000000000E+00 0.  1.
</event>
<event>
12    1  0.8406581E-002  0.1920353E+03  0.7818608E-02  0.1156942E+00
         21   -1    0    0  503  502  0.00000000000E+00  0.00000000000E+00  0.46214402450E+03  0.46214402450E+03  0.00000000000E+00 0. -1.
         21   -1    0    0  501  503 -0.00000000000E+00 -0.00000000000E+00 -0.14433400682E+03  0.14433400682E+03  0.00000000000E+00 0.  1.
          6    2    1    2  501    0 -0.33592095262E+02 -0.75860176524E+02 -0.45058245687E+02  0.19592850045E+03  0.17168149737E+03 0.  0.
         24    2    3    3    0    0 -0.73095289932E+02 -0.92701723244E+02 -0.55952138358E+02  0.15137620553E+03  0.76469490077E+02 0.  0.
         -6    2    1    2    0  502  0.33592095262E+02  0.75860176524E+02  0.36286826338E+03  0.41054953087E+03  0.17318875680E+03 0.  0.
        -24    2    5    5    0    0 -0.37373205801E+02  0.82497118813E+01  0.21393753846E+03  0.23219679131E+03  0.81739007046E+02 0.  0.
          5    1    3    3  501    0  0.39503194670E+02  0.16841546720E+02  0.10893892671E+02  0.44552294919E+02  0.47000000000E+01 0. -1.
        -13    1    4    4    0    0 -0.25930114906E+01  0.44631202835E+01 -0.27529436188E+02  0.28009159360E+02  0.00000000000E+00 0.  1.
         14    1    4    4    0    0 -0.70502278441E+02 -0.97164843527E+02 -0.28422702170E+02  0.12336704617E+03  0.00000000000E+00 0. -1.
         -5    1    5    5    0  502  0.70965301063E+02  0.67610464643E+02  0.14893072492E+03  0.17835273956E+03  0.47000000000E+01 0.  1.
         13    1    6    6    0    0  0.26084353596E+02 -0.67491251640E+00  0.66431936749E+02  0.71372622409E+02  0.00000000000E+00 0. -1.
        -14    1    6    6    0    0 -0.63457559397E+02  0.89246243976E+01  0.14750560171E+03  0.16082416890E+03  0.00000000000E+00 0.  1.
</event>
<event>
12    1  0.8406581E-002  0.2217884E+03  0.7818608E-02  0.1132578E+00
         21   -1    0    0  501  502  0.00000000000E+00  0.00000000000E+00  0.10597236084E+03  0.10597236084E+03  0.00000000000E+00 0.  1.
         21   -1    0    0  502  503 -0.00000000000E+00 -0.00000000000E+00 -0.67221494473E+03  0.67221494473E+03  0.00000000000E+00 0. -1.
         -6    2    1    2    0  503 -0.81428737705E+02  0.11297647222E+03 -0.49975025000E+03  0.54675441485E+03  0.17261446978E+03 0.  0.
        -24    2    3    3    0    0 -0.79783276968E+01  0.12396092907E+03 -0.32303941384E+03  0.35501388539E+03  0.79059662734E+02 0.  0.
          6    2    1    2  501    0  0.81428737705E+02 -0.11297647222E+03 -0.66492333887E+02  0.23143289072E+03  0.17246921419E+03 0.  0.
         24    2    5    5    0    0  0.25133228671E+02 -0.85988453401E+02  0.13488425321E+02  0.12986247505E+03  0.93041020552E+02 0.  0.
          5    1    5    5  501    0  0.56295509034E+02 -0.26988018821E+02 -0.79980759208E+02  0.10157041568E+03  0.47000000000E+01 0. -1.
        -13    1    6    6    0    0 -0.11433383117E+02  0.16648017244E+02  0.15755500565E+01  0.20257371143E+02  0.00000000000E+00 0.  1.
         14    1    6    6    0    0  0.36566611787E+02 -0.10263647065E+03  0.11912875265E+02  0.10960510390E+03  0.00000000000E+00 0. -1.
         -5    1    3    3    0  503 -0.73450410008E+02 -0.10984456847E+02 -0.17671083616E+03  0.19174052946E+03  0.47000000000E+01 0.  1.
         13    1    4    4    0    0  0.95167571095E+01 -0.77281525609E+01 -0.48452217048E+02  0.49979099079E+02  0.00000000000E+00 0. -1.
        -14    1    4    4    0    0 -0.17495084806E+02  0.13168908163E+03 -0.27458719680E+03  0.30503478631E+03  0.00000000000E+00 0.  1.
</event>
<event>
12    1  0.8406581E-002  0.1810240E+03  0.7818608E-02  0.1167176E+00
         21   -1    0    0  501  502  0.00000000000E+00  0.00000000000E+00  0.92641507533E+02  0.92641507533E+02  0.00000000000E+00 0.  1.
         21   -1    0    0  502  503 -0.00000000000E+00 -0.00000000000E+00 -0.41986822846E+03  0.41986822846E+03  0.00000000000E+00 0.  1.
         -6    2    1    2    0  503  0.54776463733E+02  0.15471394138E+02 -0.26810416131E+03  0.32349582353E+03  0.17184260680E+03 0.  0.
        -24    2    3    3    0    0  0.35748418795E+02  0.53031158322E+02 -0.25877731931E+03  0.28011515547E+03  0.86072911715E+02 0.  0.
          6    2    1    2  501    0 -0.54776463733E+02 -0.15471394138E+02 -0.59122559616E+02  0.18901391247E+03  0.17026731053E+03 0.  0.
         24    2    5    5    0    0 -0.12603430685E+02 -0.49573298588E+02 -0.85691107071E+02  0.12843766037E+03  0.80851149486E+02 0.  0.
          5    1    5    5  501    0 -0.42173033048E+02  0.34101904450E+02  0.26568547455E+02  0.60576252092E+02  0.47000000000E+01 0. -1.
        -11    1    6    6    0    0 -0.25453499265E+02  0.12142242258E+02 -0.45960328940E+02  0.53922782830E+02  0.00000000000E+00 0.  1.
         12    1    6    6    0    0  0.12850068580E+02 -0.61715540846E+02 -0.39730778131E+02  0.74514877543E+02  0.00000000000E+00 0. -1.
         -5    1    3    3    0  503  0.19028044938E+02 -0.37559764184E+02 -0.93268419953E+01  0.43380668060E+02  0.47000000000E+01 0.  1.
         13    1    4    4    0    0  0.44817447355E+01  0.69214480966E+02 -0.14015083179E+03  0.15637450580E+03  0.00000000000E+00 0. -1.
        -14    1    4    4    0    0  0.31266674060E+02 -0.16183322645E+02 -0.11862648752E+03  0.12374064967E+03  0.00000000000E+00 0.  1.
</event>
<event>
12    1  0.8406581E-002  0.1787040E+03  0.7818608E-02  0.1169602E+00
         21   -1    0    0  501  502  0.00000000000E+00  0.00000000000E+00  0.23287695470E+03  0.23287695470E+03  0.00000000000E+00 0. -1.
         21   -1    0    0  502  503 -0.00000000000E+00 -0.00000000000E+00 -0.20403247729E+03  0.20403247729E+03  0.00000000000E+00 0. -1.
         -6    2    1    2    0  503 -0.68957394748E+01  0.42076806710E+02 -0.11216374537E+03  0.21098773830E+03  0.17354282195E+03 0.  0.
        -24    2    3    3    0    0 -0.13630695940E+02  0.12743894204E+02  0.12138714030E+02  0.83007385089E+02  0.79966711134E+02 0.  0.
          6    2    1    2  501    0  0.68957394748E+01 -0.42076806710E+02  0.14100822278E+03  0.22592169370E+03  0.17128713877E+03 0.  0.
         24    2    5    5    0    0 -0.22242843485E+02 -0.34134012900E+01  0.15393385778E+03  0.17559200091E+03  0.81428022327E+02 0.  0.
          5    1    5    5  501    0  0.29138582960E+02 -0.38663405420E+02 -0.12925634999E+02  0.50329692784E+02  0.47000000000E+01 0. -1.
        -13    1    6    6    0    0 -0.10997777743E+02  0.32441628537E+02  0.28219931296E+02  0.44382146182E+02  0.00000000000E+00 0.  1.
         14    1    6    6    0    0 -0.11245065742E+02 -0.35855029827E+02  0.12571392648E+03  0.13120985473E+03  0.00000000000E+00 0. -1.
         -5    1    3    3    0  503  0.67349564651E+01  0.29332912506E+02 -0.12430245940E+03  0.12798035321E+03  0.47000000000E+01 0.  1.
         11    1    4    4    0    0 -0.24041556152E+02 -0.27147085054E+02 -0.79848433623E+01  0.37131097111E+02  0.00000000000E+00 0. -1.
        -12    1    4    4    0    0  0.10410860212E+02  0.39890979258E+02  0.20123557392E+02  0.45876287978E+02  0.00000000000E+00 0.  1.
</event>
<event>
12    1  0.8406581E-002  0.1843651E+03  0.7818608E-02  0.1164747E+00
         21   -1    0    0  501  502  0.00000000000E+00  0.00000000000E+00  0.53792150459E+03  0.53792150459E+03  0.00000000000E+00 0.  1.
         21   -1    0    0  502  503 -0.00000000000E+00 -0.00000000000E+00 -0.67368421025E+02  0.67368421025E+02  0.00000000000E+00 0.  1.
         -6    2    1    2    0  503 -0.60362322267E+02 -0.12032464947E+02  0.14404592034E+03  0.23032668031E+03  0.16885722471E+03 0.  0.
        -24    2    3    3    0    0 -0.91476237923E+02  0.11900405156E+02  0.54855772689E+02  0.13276731143E+03  0.78156774750E+02 0.  0.
          6    2    1    2  501    0  0.60362322267E+02  0.12032464947E+02  0.32650716322E+03  0.37496324530E+03  0.17378756437E+03 0.  0.
         24    2    5    5    0    0  0.10653013897E+03  0.21561871619E+02  0.21470724107E+03  0.25354006183E+03  0.79810893794E+02 0.  0.
          5    1    5    5  501    0 -0.46167816704E+02 -0.95294066716E+01  0.11179992215E+03  0.12142318347E+03  0.47000000000E+01 0. -1.
        -11    1    6    6    0    0  0.51932385239E+01 -0.22787595969E+02  0.27456010229E+02  0.36056577127E+02  0.00000000000E+00 0.  1.
         12    1    6    6    0    0  0.10133690045E+03  0.44349467587E+02  0.18725123084E+03  0.21748348470E+03  0.00000000000E+00 0. -1.
         -5    1    3    3    0  503  0.31113915656E+02 -0.23932870103E+02  0.89190147654E+02  0.97559368886E+02  0.47000000000E+01 0.  1.
         13    1    4    4    0    0 -0.35466587086E+01 -0.25170785087E+02  0.13270385852E+02  0.28674908030E+02  0.00000000000E+00 0. -1.
        -14    1    4    4    0    0 -0.87929579215E+02  0.37071190243E+02  0.41585386837E+02  0.10409240340E+03  0.00000000000E+00 0.  1.
</event>
<event>
12    1  0.8406581E-002  0.3108076E+03  0.7818608E-02  0.1079960E+00
         21   -1    0    0  501  502  0.00000000000E+00  0.00000000000E+00  0.94041762156E+03  0.94041762156E+03  0.00000000000E+00 0.  1.
         21   -1    0    0  502  503 -0.00000000000E+00 -0.00000000000E+00 -0.11397870500E+03  0.11397870500E+03  0.00000000000E+00 0. -1.
         -6    2    1    2    0  503  0.25174413806E+03  0.59562583639E+02  0.24752740887E+03  0.39732715920E+03  0.17226793340E+03 0.  0.
        -24    2    3    3    0    0  0.14507848458E+03  0.10015697826E+03  0.17986384199E+03  0.26456453347E+03  0.81019773723E+02 0.  0.
          6    2    1    2  501    0 -0.25174413806E+03 -0.59562583639E+02  0.57891150769E+03  0.65706916737E+03  0.17227461958E+03 0.  0.
         24    2    5    5    0    0 -0.14344987107E+03 -0.63495776927E+02  0.21650111636E+03  0.27877496967E+03  0.78950434632E+02 0.  0.
          5    1    5    5  501    0 -0.10829426699E+03  0.39331932884E+01  0.36241039132E+03  0.37829419770E+03  0.47000000000E+01 0. -1.
        -13    1    6    6    0    0  0.16131482882E+01 -0.24953111971E+02  0.23852483198E+02  0.34557213417E+02  0.00000000000E+00 0.  1.
         14    1    6    6    0    0 -0.14506301935E+03 -0.38542664956E+02  0.19264863317E+03  0.24421775625E+03  0.00000000000E+00 0. -1.
         -5    1    3    3    0  503  0.10666565348E+03 -0.40594394623E+02  0.67663566885E+02  0.13276262573E+03  0.47000000000E+01 0.  1.
         11    1    4    4    0    0  0.11066225845E+01  0.28366801210E+02  0.51283014536E+02  0.58616103626E+02  0.00000000000E+00 0. -1.
        -12    1    4    4    0    0  0.14397186200E+03  0.71790177052E+02  0.12858082745E+03  0.20594842985E+03  0.00000000000E+00 0.  1.
</event>
<event>
12    1  0.8406581E-002  0.1795408E+03  0.7818608E-02  0.1168512E+00
         21   -1    0    0  503  502  0.00000000000E+00  0.00000000000E+00  0.70370930647E+02  0.70370930647E+02  0.00000000000E+00 0.  1.
         21   -1    0    0  501  503 -0.00000000000E+00 -0.00000000000E+00 -0.48300228582E+03  0.48300228582E+03  0.00000000000E+00 0.  1.
          6    2    1    2  501    0  0.41275356017E+02  0.22648099193E+02 -0.27315264107E+03  0.32687497439E+03  0.17325787758E+03 0.  0.
         24    2    3    3    0    0  0.15760636785E+02 -0.17770498955E+01 -0.37843887573E+02  0.88883612612E+02  0.78845299074E+02 0.  0.
         -6    2    1    2    0  502 -0.41275356017E+02 -0.22648099193E+02 -0.13947871410E+03  0.22649824208E+03  0.17213526823E+03 0.  0.
        -24    2    5    5    0    0 -0.91150346161E+01 -0.14472224399E+02 -0.16520042429E+03  0.18425102233E+03  0.79779257395E+02 0.  0.
          5    1    3    3  501    0  0.25514719232E+02  0.24425149089E+02 -0.23530875350E+03  0.23799136177E+03  0.47000000000E+01 0. -1.
        -11    1    4    4    0    0  0.42740454273E+02 -0.12496980511E+01 -0.43841263075E+02  0.61240219829E+02  0.00000000000E+00 0.  1.
         12    1    4    4    0    0 -0.26979817488E+02 -0.52735184447E+00  0.59973755024E+01  0.27643392783E+02  0.00000000000E+00 0. -1.
         -5    1    5    5    0  502 -0.32160321401E+02 -0.81758747941E+01  0.25721710189E+02  0.42247219747E+02  0.47000000000E+01 0.  1.
         13    1    6    6    0    0 -0.83724659418E+01  0.33002862345E+02 -0.72577450837E+02  0.80167159603E+02  0.00000000000E+00 0. -1.
        -14    1    6    6    0    0 -0.74256867428E+00 -0.47475086744E+02 -0.92622973453E+02  0.10408386273E+03  0.00000000000E+00 0.  1.
</event>
<event>
12    1  0.8406581E-002  0.1844732E+03  0.7818608E-02  0.1163592E+00
         21   -1    0    0  501  502  0.00000000000E+00  0.00000000000E+00  0.23927614658E+02  0.23927614658E+02  0.00000000000E+00 0.  1.
         21   -1    0    0  502  503 -0.00000000000E+00 -0.00000000000E+00 -0.14226755559E+04  0.14226755559E+04  0.00000000000E+00 0.  1.
         -6    2    1    2    0  503 -0.19885076347E+01 -0.68071695438E+02 -0.72729568324E+03  0.75032618106E+03  0.17144286874E+03 0.  0.
        -24    2    3    3    0    0 -0.62562227321E+02 -0.52075934253E+02 -0.54619785303E+03  0.55864009915E+03  0.84384420984E+02 0.  0.
          6    2    1    2  501    0  0.19885076347E+01  0.68071695438E+02 -0.67145225800E+03  0.69627698949E+03  0.17121857798E+03 0.  0.
         24    2    5    5    0    0 -0.55779093392E+02  0.66813440256E+02 -0.34188518692E+03  0.36164999824E+03  0.79560650667E+02 0.  0.
          5    1    5    5  501    0  0.57767601026E+02  0.12582551819E+01 -0.32956707108E+03  0.33462699126E+03  0.47000000000E+01 0. -1.
        -11    1    6    6    0    0 -0.64948987548E+02  0.16943191491E+02 -0.20177802914E+03  0.21264951391E+03  0.00000000000E+00 0.  1.
         12    1    6    6    0    0  0.91698941561E+01  0.49870248765E+02 -0.14010715778E+03  0.14900048433E+03  0.00000000000E+00 0. -1.
         -5    1    3    3    0  503  0.60573719686E+02 -0.15995761185E+02 -0.18109783021E+03  0.19168608191E+03  0.47000000000E+01 0.  1.
         13    1    4    4    0    0 -0.63756213671E+01 -0.58181366976E+02 -0.33153603124E+03  0.33666282840E+03  0.00000000000E+00 0. -1.
        -14    1    4    4    0    0 -0.56186605954E+02  0.61054327228E+01 -0.21466182179E+03  0.22197727075E+03  0.00000000000E+00 0.  1.
</event>
<event>
12    1  0.8406581E-002  0.1740243E+03  0.7818608E-02  0.1173933E+00
         21   -1    0    0  503  502  0.00000000000E+00  0.00000000000E+00  0.17266280906E+03  0.17266280906E+03  0.00000000000E+00 0.  1.
         21   -1    0    0  501  503 -0.00000000000E+00 -0.00000000000E+00 -0.28958439008E+03  0.28958439008E+03  0.00000000000E+00 0.  1.
          6    2    1    2  501    0  0.18252225750E+02  0.99482899957E+01 -0.20405601003E+03  0.26762743698E+03  0.17191124912E+03 0.  0.
         24    2    3    3    0    0 -0.50616327707E+01  0.22903265956E+02 -0.24108564132E+02  0.85653425957E+02  0.78772500252E+02 0.  0.
         -6    2    1    2    0  502 -0.18252225750E+02 -0.99482899957E+01  0.87134429008E+02  0.19461976216E+03  0.17277827087E+03 0.  0.
        -24    2    5    5    0    0 -0.44169747824E+02 -0.66150055148E+02  0.52999463661E+02  0.12378444458E+03  0.78656526453E+02 0.  0.
          5    1    3    3  501    0  0.23313858521E+02 -0.12954975960E+02 -0.17994744590E+03  0.18197401102E+03  0.47000000000E+01 0. -1.
        -13    1    4    4    0    0  0.50677451029E+01 -0.28924278699E+02 -0.77687108319E+01  0.30375134677E+02  0.00000000000E+00 0.  1.
         14    1    4    4    0    0 -0.10129377874E+02  0.51827544654E+02 -0.16339853300E+02  0.55278291280E+02  0.00000000000E+00 0. -1.
         -5    1    5    5    0  502  0.25917522074E+02  0.56201765152E+02  0.34134965347E+02  0.70835317575E+02  0.47000000000E+01 0.  1.
         13    1    6    6    0    0 -0.46335425670E+02 -0.14362037856E+02  0.53138530875E+02  0.71950978221E+02  0.00000000000E+00 0. -1.
        -14    1    6    6    0    0  0.21656778458E+01 -0.51788017291E+02 -0.13906721379E+00  0.51833466363E+02  0.00000000000E+00 0.  1.
</event>
<event>
12    1  0.8406581E-002  0.2137194E+03  0.7818608E-02  0.1139307E+00
         21   -1    0    0  503  502  0.00000000000E+00  0.00000000000E+00  0.21457831078E+03  0.21457831078E+03  0.00000000000E+00 0. -1.
         21   -1    0    0  501  503 -0.00000000000E+00 -0.00000000000E+00 -0.21911978709E+03  0.21911978709E+03  0.00000000000E+00 0. -1.
          6    2    1    2  501    0 -0.74504570725E+02  0.95910120639E+02 -0.47613688399E+02  0.21895895496E+03  0.17585868853E+03 0.  0.
         24    2    3    3    0    0 -0.98822907615E+02  0.17685003231E+02 -0.10405591169E+02  0.12886409938E+03  0.80118371000E+02 0.  0.
         -6    2    1    2    0  502  0.74504570725E+02 -0.95910120639E+02  0.43072212085E+02  0.21473914291E+03  0.17177893277E+03 0.  0.
        -24    2    5    5    0    0  0.15017720628E+02 -0.82012356090E+02  0.80317850479E+02  0.14303725470E+03  0.84006789264E+02 0.  0.
          5    1    3    3  501    0  0.24318336890E+02  0.78225117408E+02 -0.37208097230E+02  0.90094855580E+02  0.47000000000E+01 0. -1.
        -13    1    4    4    0    0 -0.45411655820E+02 -0.31252833456E+02  0.29362799071E+01  0.55204889485E+02  0.00000000000E+00 0.  1.
         14    1    4    4    0    0 -0.53411251795E+02  0.48937836688E+02 -0.13341871076E+02  0.73659209891E+02  0.00000000000E+00 0. -1.
         -5    1    5    5    0  502  0.59486850097E+02 -0.13897764549E+02 -0.37245638394E+02  0.71701888213E+02  0.47000000000E+01 0.  1.
         13    1    6    6    0    0  0.28491692042E+02 -0.34170321874E+01  0.50150068932E+02  0.57779598807E+02  0.00000000000E+00 0. -1.
        -14    1    6    6    0    0 -0.13473971413E+02 -0.78595323903E+02  0.30167781546E+02  0.85257655894E+02  0.00000000000E+00 0.  1.
</event>
<event>
12    1  0.8406581E-002  0.1875318E+03  0.7818608E-02  0.1160744E+00
         21   -1    0    0  501  502  0.00000000000E+00  0.00000000000E+00  0.16881297807E+03  0.16881297807E+03  0.00000000000E+00 0. -1.
         21   -1    0    0  502  503 -0.00000000000E+00 -0.00000000000E+00 -0.34631403564E+03  0.34631403564E+03  0.00000000000E+00 0. -1.
         -6    2    1    2    0  503 -0.12006997030E+02 -0.73441450404E+02 -0.25146215751E+03  0.31368998629E+03  0.17213476181E+03 0.  0.
        -24    2    3    3    0    0  0.41326766270E+02 -0.92555076423E+02 -0.18663757732E+03  0.22746854346E+03  0.81449427335E+02 0.  0.
          6    2    1    2  501    0  0.12006997030E+02  0.73441450404E+02  0.73961099930E+02  0.20143702742E+03  0.17195585799E+03 0.  0.
         24    2    5    5    0    0 -0.90931388723E+01  0.10697807168E+03  0.88470291072E+02  0.15898084613E+03  0.76947540822E+02 0.  0.
          5    1    5    5  501    0  0.21100135902E+02 -0.33536621280E+02 -0.14509191142E+02  0.42456181288E+02  0.47000000000E+01 0. -1.
        -13    1    6    6    0    0 -0.21991346463E+02 -0.19133844878E+01  0.19398489509E+02  0.29386761554E+02  0.00000000000E+00 0.  1.
         14    1    6    6    0    0  0.12898207590E+02  0.10889145617E+03  0.69071801563E+02  0.12959408458E+03  0.00000000000E+00 0. -1.
         -5    1    3    3    0  503 -0.53333763300E+02  0.19113626019E+02 -0.64824580187E+02  0.86221442830E+02  0.47000000000E+01 0.  1.
         11    1    4    4    0    0 -0.18608895220E+02 -0.56445617331E+02 -0.74686824332E+02  0.95449046229E+02  0.00000000000E+00 0. -1.
        -12    1    4    4    0    0  0.59935661490E+02 -0.36109459091E+02 -0.11195075299E+03  0.13201949723E+03  0.00000000000E+00 0.  1.
</event>
<event>
12    1  0.8406581E-002  0.2218060E+03  0.7818608E-02  0.1134421E+00
         21   -1    0    0  501  502  0.00000000000E+00  0.00000000000E+00  0.63112394751E+03  0.63112394751E+03  0.00000000000E+00 0.  1.
         21   -1    0    0  502  503 -0.00000000000E+00 -0.00000000000E+00 -0.78868815876E+02  0.78868815876E+02  0.00000000000E+00 0.  1.
         -6    2    1    2    0  503 -0.99690501709E+02  0.89039929666E+02  0.35366965885E+03  0.41227801789E+03  0.16439170064E+03 0.  0.
        -24    2    3    3    0    0 -0.10759346281E+03  0.95144316046E+02  0.36235690198E+03  0.39823243067E+03  0.81595038531E+02 0.  0.
          6    2    1    2  501    0  0.99690501709E+02 -0.89039929666E+02  0.19858547278E+03  0.29771474549E+03  0.17700727239E+03 0.  0.
         24    2    5    5    0    0  0.12636028312E+03 -0.10052359937E+03  0.19892874681E+03  0.26829774790E+03  0.79618591037E+02 0.  0.
          5    1    5    5  501    0 -0.26669781414E+02  0.11483669701E+02 -0.34327402612E+00  0.29416997596E+02  0.47000000000E+01 0. -1.
        -11    1    6    6    0    0  0.11288081918E+03 -0.43395140034E+02  0.14214669718E+03  0.18663038615E+03  0.00000000000E+00 0.  1.
         12    1    6    6    0    0  0.13479463947E+02 -0.57128459334E+02  0.56782049634E+02  0.81667361747E+02  0.00000000000E+00 0. -1.
         -5    1    3    3    0  503  0.79029611014E+01 -0.61043863798E+01 -0.86872431269E+01  0.14045587221E+02  0.47000000000E+01 0.  1.
         13    1    4    4    0    0 -0.62797761260E+01  0.47079640291E+02  0.65552491574E+02  0.80950955953E+02  0.00000000000E+00 0. -1.
        -14    1    4    4    0    0 -0.10131368668E+03  0.48064675755E+02  0.29680441040E+03  0.31728147472E+03  0.00000000000E+00 0.  1.
</event>
<event>
12    1  0.8406581E-002  0.1759218E+03  0.7818608E-02  0.1171997E+00
         21   -1    0    0  501  502  0.00000000000E+00  0.00000000000E+00  0.12146872985E+03  0.12146872985E+03  0.00000000000E+00 0. -1.
         21   -1    0    0  502  503 -0.00000000000E+00 -0.00000000000E+00 -0.25465050713E+03  0.25465050713E+03  0.00000000000E+00 0. -1.
         -6    2    1    2    0  503  0.13663215769E+02 -0.28693235420E+02 -0.78218724359E+02  0.19252702002E+03  0.17302745266E+03 0.  0.
        -24    2    3    3    0    0 -0.12371055280E+02 -0.54081536608E+02 -0.10833793199E+03  0.14507593179E+03  0.78943415590E+02 0.  0.
          6    2    1    2  501    0 -0.13663215769E+02  0.28693235420E+02 -0.54963052925E+02  0.18359221696E+03  0.17226485340E+03 0.  0.
         24    2    5    5    0    0 -0.37893748294E+02 -0.14545799347E+02 -0.86653539262E+02  0.12457434036E+03  0.79764741401E+02 0.  0.
          5    1    5    5  501    0  0.24230532525E+02  0.43239034767E+02  0.31690486338E+02  0.59017876600E+02  0.47000000000E+01 0. -1.
        -13    1    6    6    0    0  0.24248518378E+02 -0.12175371915E+02 -0.29995031834E+02  0.40446659436E+02  0.00000000000E+00 0.  1.
         14    1    6    6    0    0 -0.62142266672E+02 -0.23704274319E+01 -0.56658507428E+02  0.84127680922E+02  0.00000000000E+00 0. -1.
         -5    1    3    3    0  503  0.26034271049E+02  0.25388301188E+02  0.30119207635E+02  0.47451088236E+02  0.47000000000E+01 0.  1.
         13    1    4    4    0    0  0.64517087458E+01 -0.49304187115E+02 -0.18327676859E+02  0.52994633236E+02  0.00000000000E+00 0. -1.
        -14    1    4    4    0    0 -0.18822764026E+02 -0.47773494934E+01 -0.90010255134E+02  0.92081298552E+02  0.00000000000E+00 0.  1.
</event>
<event>
12    1  0.8406581E-002  0.2008673E+03  0.7818608E-02  0.1149042E+00
         21   -1    0    0  503  502  0.00000000000E+00  0.00000000000E+00  0.39466867860E+03  0.39466867860E+03  0.00000000000E+00 0. -1.
         21   -1    0    0  501  503 -0.00000000000E+00 -0.00000000000E+00 -0.15053332852E+03  0.15053332852E+03  0.00000000000E+00 0. -1.
          6    2    1    2  501    0 -0.74864229990E+01 -0.10357474214E+03  0.27657671178E+03  0.34173186717E+03  0.17176209653E+03 0.  0.
         24    2    3    3    0    0  0.29502827852E+02 -0.59968946857E+02  0.64655633769E+02  0.12218163746E+03  0.79254716680E+02 0.  0.
         -6    2    1    2    0  502  0.74864229990E+01  0.10357474214E+03 -0.32441361697E+02  0.20347013995E+03  0.17194150797E+03 0.  0.
        -24    2    5    5    0    0 -0.61487814981E+02  0.71781587973E+02 -0.95124180217E+01  0.12399639199E+03  0.79694864115E+02 0.  0.
          5    1    3    3  501    0 -0.36989250851E+02 -0.43605795285E+02  0.21192107801E+03  0.21955022971E+03  0.47000000000E+01 0. -1.
        -11    1    4    4    0    0  0.43286764627E+02 -0.76006096016E+01  0.48978879480E+02  0.65806108328E+02  0.00000000000E+00 0.  1.
         12    1    4    4    0    0 -0.13783936774E+02 -0.52368337256E+02  0.15676754288E+02  0.56375529132E+02  0.00000000000E+00 0. -1.
         -5    1    5    5    0  502  0.68974237980E+02  0.31793154170E+02 -0.22928943676E+02  0.79473747961E+02  0.47000000000E+01 0.  1.
         13    1    6    6    0    0 -0.48889959760E+01  0.64273198987E+02  0.62629287393E+01  0.64762417080E+02  0.00000000000E+00 0. -1.
        -14    1    6    6    0    0 -0.56598819005E+02  0.75083889861E+01 -0.15775346761E+02  0.59233974907E+02  0.00000000000E+00 0.  1.
</event>
<event>
12    1  0.8406581E-002  0.1789020E+03  0.7818608E-02  0.1169262E+00
         21   -1    0    0  503  502  0.00000000000E+00  0.00000000000E+00  0.10342391480E+04  0.10342391480E+04  0.00000000000E+00 0.  1.
         21   -1    0    0  501  503 -0.00000000000E+00 -0.00000000000E+00 -0.79432106437E+02  0.79432106437E+02  0.00000000000E+00 0.  1.
          6    2    1    2  501    0  0.43457091588E+02  0.10095055899E+02  0.41948961832E+02  0.18375427169E+03  0.17324978500E+03 0.  0.
         24    2    3    3    0    0  0.41207791309E+02  0.28965087166E+02  0.91119111728E+02  0.13083044839E+03  0.79226607677E+02 0.  0.
         -6    2    1    2    0  502 -0.43457091588E+02 -0.10095055899E+02  0.91285807971E+03  0.92991698273E+03  0.17159630566E+03 0.  0.
        -24    2    5    5    0    0  0.29200475514E+02  0.99074698372E+01  0.29363545003E+03  0.30610773448E+03  0.80804343113E+02 0.  0.
          5    1    3    3  501    0  0.22493002789E+01 -0.18870031267E+02 -0.49170149896E+02  0.52923823298E+02  0.47000000000E+01 0. -1.
        -13    1    4    4    0    0  0.14968034311E+02  0.21217452639E+02 -0.86572099491E+01  0.27370963295E+02  0.00000000000E+00 0.  1.
         14    1    4    4    0    0  0.26239756999E+02  0.77476345269E+01  0.99776321677E+02  0.10345948509E+03  0.00000000000E+00 0. -1.
         -5    1    5    5    0  502 -0.72657567103E+02 -0.20002525737E+02  0.61922262968E+03  0.62380924825E+03  0.47000000000E+01 0.  1.
         11    1    6    6    0    0 -0.57791795272E+01 -0.20226381680E+02  0.21483643146E+02  0.30067463390E+02  0.00000000000E+00 0. -1.
        -12    1    6    6    0    0  0.34979655042E+02  0.30133851517E+02  0.27215180689E+03  0.27604027109E+03  0.00000000000E+00 0.  1.
</event>
<event>
12    1  0.8406581E-002  0.2115046E+03  0.7818608E-02  0.1140541E+00
         21   -1    0    0  503  502  0.00000000000E+00  0.00000000000E+00  0.48309434198E+03  0.48309434198E+03  0.00000000000E+00 0.  1.
         21   -1    0    0  501  503 -0.00000000000E+00 -0.00000000000E+00 -0.98106747795E+02  0.98106747795E+02  0.00000000000E+00 0. -1.
          6    2    1    2  501    0  0.12116001572E+03  0.20001639315E+02  0.26389914901E+03  0.33819660837E+03  0.17220444268E+03 0.  0.
         24    2    3    3    0    0  0.14226112335E+03 -0.11298594055E+02  0.16546339003E+03  0.23266628099E+03  0.79934844856E+02 0.  0.
         -6    2    1    2    0  502 -0.12116001572E+03 -0.20001639315E+02  0.12108844518E+03  0.24300448141E+03  0.17119857314E+03 0.  0.
        -24    2    5    5    0    0 -0.10425184119E+03  0.46356353961E+02  0.62246975038E+02  0.15259608442E+03  0.79959496839E+02 0.  0.
          5    1    3    3  501    0 -0.21101107631E+02  0.31300233370E+02  0.98435758977E+02  0.10553032738E+03  0.47000000000E+01 0. -1.
        -13    1    4    4    0    0  0.10823005120E+02 -0.19487264139E+02  0.59813739415E+02  0.63832392453E+02  0.00000000000E+00 0.  1.
         14    1    4    4    0    0  0.13143811823E+03  0.81886700837E+01  0.10564965062E+03  0.16883388853E+03  0.00000000000E+00 0. -1.
         -5    1    5    5    0  502 -0.16908174527E+02 -0.66357993277E+02  0.58841470139E+02  0.90408396986E+02  0.47000000000E+01 0.  1.
         13    1    6    6    0    0 -0.57526383515E+02  0.44885081050E+02  0.74488525777E+02  0.10427126054E+03  0.00000000000E+00 0. -1.
        -14    1    6    6    0    0 -0.46725457676E+02  0.14712729111E+01 -0.12241550739E+02  0.48324823885E+02  0.00000000000E+00 0.  1.
</event>
<event>
12    1  0.8406581E-002  0.1925171E+03  0.7818608E-02  0.1156621E+00
         21   -1    0    0  501  502  0.00000000000E+00  0.00000000000E+00  0.31557455898E+02  0.31557455898E+02  0.00000000000E+00 0.  1.
         21   -1    0    0  502  503 -0.00000000000E+00 -0.00000000000E+00 -0.11638533633E+04  0.11638533633E+04  0.00000000000E+00 0.  1.
         -6    2    1    2    0  503 -0.11545405571E+02 -0.82739057279E+02 -0.57719734679E+03  0.60787591615E+03  0.17139808720E+03 0.  0.
        -24    2    3    3    0    0 -0.44527297487E+02 -0.11213401309E+03 -0.39909962002E+03  0.42432004209E+03  0.78805293595E+02 0.  0.
          6    2    1    2  501    0  0.11545405571E+02  0.82739057279E+02 -0.55509856065E+03  0.58753490309E+03  0.17344682853E+03 0.  0.
         24    2    5    5    0    0  0.32103614778E+01  0.51276089873E+02 -0.54508688899E+03  0.55315882351E+03  0.78901353997E+02 0.  0.
          5    1    5    5  501    0  0.83350440935E+01  0.31462967406E+02 -0.10011671657E+02  0.34376079582E+02  0.47000000000E+01 0. -1.
        -13    1    6    6    0    0  0.15581206095E+02  0.69975165295E+02 -0.42231490991E+03  0.42835637135E+03  0.00000000000E+00 0.  1.
         14    1    6    6    0    0 -0.12370844617E+02 -0.18699075422E+02 -0.12277197908E+03  0.12480245216E+03  0.00000000000E+00 0. -1.
         -5    1    3    3    0  503  0.32981891916E+02  0.29394955813E+02 -0.17809772677E+03  0.18355587406E+03  0.47000000000E+01 0.  1.
         13    1    4    4    0    0  0.81026930771E+01 -0.40683291959E+02 -0.22624584118E+03  0.23001731355E+03  0.00000000000E+00 0. -1.
        -14    1    4    4    0    0 -0.52629990565E+02 -0.71450721134E+02 -0.17285377884E+03  0.19430272854E+03  0.00000000000E+00 0.  1.
</event>
<event>
12    1  0.8406581E-002  0.3214816E+03  0.7818608E-02  0.1074975E+00
         21   -1    0    0  501  502  0.00000000000E+00  0.00000000000E+00  0.44154002649E+03  0.44154002649E+03  0.00000000000E+00 0.  1.
         21   -1    0    0  502  503 -0.00000000000E+00 -0.00000000000E+00 -0.23921776219E+03  0.23921776219E+03  0.00000000000E+00 0. -1.
         -6    2    1    2    0  503  0.23982892270E+03  0.12777648536E+03  0.15129123171E+03  0.35530193017E+03  0.17177218173E+03 0.  0.
        -24    2    3    3    0    0  0.12095260392E+03  0.41788505114E+02  0.14336626027E+03  0.20829714424E+03  0.80361708295E+02 0.  0.
          6    2    1    2  501    0 -0.23982892270E+03 -0.12777648536E+03  0.51031032594E+02  0.32545585851E+03  0.17167587825E+03 0.  0.
         24    2    5    5    0    0 -0.55330854256E+02 -0.82607975275E+02 -0.45070805820E+01  0.12750055148E+03  0.79689998378E+02 0.  0.
          5    1    5    5  501    0 -0.18449806845E+03 -0.45168510087E+02  0.55538113176E+02  0.19795530703E+03  0.47000000000E+01 0. -1.
        -13    1    6    6    0    0 -0.19115749827E+02  0.13335843507E+02  0.69231020134E+01  0.24314315844E+02  0.00000000000E+00 0.  1.
         14    1    6    6    0    0 -0.36215104429E+02 -0.95943818782E+02 -0.11430182595E+02  0.10318623564E+03  0.00000000000E+00 0. -1.
         -5    1    3    3    0  503  0.11887631878E+03  0.85987980249E+02  0.79249714343E+01  0.14700478593E+03  0.47000000000E+01 0.  1.
         13    1    4    4    0    0 -0.47933042038E+01 -0.12904582183E+02  0.16471805636E+02  0.21466820617E+02  0.00000000000E+00 0. -1.
        -14    1    4    4    0    0  0.12574590813E+03  0.54693087297E+02  0.12689445464E+03  0.18683032363E+03  0.00000000000E+00 0.  1.
</event>
<event>
12    1  0.8406581E-002  0.1823632E+03  0.7818608E-02  0.1166069E+00
         21   -1    0    0  503  502  0.00000000000E+00  0.00000000000E+00  0.77132967062E+03  0.77132967062E+03  0.00000000000E+00 0. -1.
         21   -1    0    0  501  503 -0.00000000000E+00 -0.00000000000E+00 -0.53970581102E+02  0.53970581102E+02  0.00000000000E+00 0. -1.
          6    2    1    2  501    0 -0.51766555860E+02 -0.34551876034E+02  0.54642362171E+03  0.57534970272E+03  0.16904111220E+03 0.  0.
         24    2    3    3    0    0 -0.40732178082E+02 -0.64283128682E+02  0.51912286282E+03  0.53324119630E+03  0.95216572946E+02 0.  0.
         -6    2    1    2    0  502  0.51766555860E+02  0.34551876034E+02  0.17093546781E+03  0.24995054900E+03  0.17141392694E+03 0.  0.
        -24    2    5    5    0    0 -0.27123684298E+02  0.45266410734E+02  0.12628373823E+03  0.15854848009E+03  0.80033091959E+02 0.  0.
          5    1    3    3  501    0 -0.11034377778E+02  0.29731252648E+02  0.27300758889E+02  0.42108506419E+02  0.47000000000E+01 0. -1.
        -11    1    4    4    0    0  0.49442832999E+01 -0.35666632016E+02  0.53376982366E+02  0.64386775219E+02  0.00000000000E+00 0.  1.
         12    1    4    4    0    0 -0.45676461381E+02 -0.28616496667E+02  0.46574588046E+03  0.46885442108E+03  0.00000000000E+00 0. -1.
         -5    1    5    5    0  502  0.78890240158E+02 -0.10714534700E+02  0.44651729578E+02  0.91402068906E+02  0.47000000000E+01 0.  1.
         11    1    6    6    0    0  0.14619801026E+02  0.22508193731E+02  0.37323600666E+01  0.27097746747E+02  0.00000000000E+00 0. -1.
        -12    1    6    6    0    0 -0.41743485324E+02  0.22758217003E+02  0.12255137816E+03  0.13145073335E+03  0.00000000000E+00 0.  1.
</event>
<event>
12    1  0.8406581E-002  0.1944261E+03  0.7818608E-02  0.1154727E+00
         21   -1    0    0  503  502  0.00000000000E+00  0.00000000000E+00  0.17034819780E+03  0.17034819780E+03  0.00000000000E+00 0. -1.
         21   -1    0    0  501  503 -0.00000000000E+00 -0.00000000000E+00 -0.24312986791E+03  0.24312986791E+03  0.00000000000E+00 0. -1.
          6    2    1    2  501    0  0.45920169273E+02  0.78277215714E+02 -0.98856089681E+02  0.21731133341E+03  0.17092602118E+03 0.  0.
         24    2    3    3    0    0  0.73090578816E+02  0.28265536582E+02 -0.95849824072E+01  0.11133577115E+03  0.78502285182E+02 0.  0.
         -6    2    1    2    0  502 -0.45920169273E+02 -0.78277215714E+02  0.26074419574E+02  0.19616673229E+03  0.17194629120E+03 0.  0.
        -24    2    5    5    0    0 -0.61474454248E+02 -0.11562584361E+03  0.21777701065E+02  0.15521056577E+03  0.80421435121E+02 0.  0.
          5    1    3    3  501    0 -0.27170409543E+02  0.50011679132E+02 -0.89271107274E+02  0.10597556227E+03  0.47000000000E+01 0. -1.
        -11    1    4    4    0    0  0.28421354912E+02 -0.22295116985E+02  0.15565962651E+02  0.39333762211E+02  0.00000000000E+00 0.  1.
         12    1    4    4    0    0  0.44669223904E+02  0.50560653567E+02 -0.25150945058E+02  0.72002008935E+02  0.00000000000E+00 0. -1.
         -5    1    5    5    0  502  0.15554284975E+02  0.37348627894E+02  0.42967185094E+01  0.40956166527E+02  0.47000000000E+01 0.  1.
         11    1    6    6    0    0  0.14468448246E+02 -0.43061891663E+02 -0.77906128298E+01  0.46090738295E+02  0.00000000000E+00 0. -1.
        -12    1    6    6    0    0 -0.75942902494E+02 -0.72563951945E+02  0.29568313895E+02  0.10911982747E+03  0.00000000000E+00 0.  1.
</event>
<event>
12    1  0.8406581E-002  0.1966642E+03  0.7818608E-02  0.1152833E+00
         21   -1    0    0  501  502  0.00000000000E+00  0.00000000000E+00  0.51875782054E+03  0.51875782054E+03  0.00000000000E+00 0. -1.
         21   -1    0    0  502  503 -0.00000000000E+00 -0.00000000000E+00 -0.11080252877E+03  0.11080252877E+03  0.00000000000E+00 0. -1.
         -6    2    1    2    0  503  0.33069381738E+02 -0.88785392450E+02  0.22463341409E+02  0.19680078124E+03  0.17102489839E+03 0.  0.
        -24    2    3    3    0    0  0.30432790785E+02  0.47431869231E+00  0.53913542952E+02  0.10200915280E+03  0.81072914150E+02 0.  0.
          6    2    1    2  501    0 -0.33069381738E+02  0.88785392450E+02  0.38549195036E+03  0.43275956806E+03  0.17233795299E+03 0.  0.
         24    2    5    5    0    0 -0.37842557744E+02  0.10687574557E+01  0.28902183273E+03  0.30220090363E+03  0.79740610364E+02 0.  0.
          5    1    5    5  501    0  0.47731760063E+01  0.87716634994E+02  0.96470117625E+02  0.13055866443E+03  0.47000000000E+01 0. -1.
        -13    1    6    6    0    0  0.92341026329E+00 -0.35182181086E+02  0.11621463215E+03  0.12142684744E+03  0.00000000000E+00 0.  1.
         14    1    6    6    0    0 -0.38765968007E+02  0.36250938541E+02  0.17280720058E+03  0.18077405620E+03  0.00000000000E+00 0. -1.
         -5    1    3    3    0  503  0.26365909524E+01 -0.89259711142E+02 -0.31450201543E+02  0.94791628439E+02  0.47000000000E+01 0.  1.
         11    1    4    4    0    0  0.14268878096E+02 -0.39871085062E+02  0.33475354734E+02  0.53980586146E+02  0.00000000000E+00 0. -1.
        -12    1    4    4    0    0  0.16163912689E+02  0.40345403754E+02  0.20438188218E+02  0.48028566657E+02  0.00000000000E+00 0.  1.
</event>
<event>
12    1  0.8406581E-002  0.3176203E+03  0.7818608E-02  0.1076779E+00
         21   -1    0    0  501  502  0.00000000000E+00  0.00000000000E+00  0.41831050489E+03  0.41831050489E+03  0.00000000000E+00 0.  1.
         21   -1    0    0  502  503 -0.00000000000E+00 -0.00000000000E+00 -0.32632508462E+03  0.32632508462E+03  0.00000000000E+00 0.  1.
         -6    2    1    2    0  503  0.26279968809E+03  0.41658631517E+02 -0.14440616725E+03  0.34890655663E+03  0.17344603332E+03 0.  0.
        -24    2    3    3    0    0  0.24911030209E+03 -0.84574528076E+01 -0.98934067602E+02  0.27970523407E+03  0.79495893722E+02 0.  0.
          6    2    1    2  501    0 -0.26279968809E+03 -0.41658631517E+02  0.23639158752E+03  0.39572903287E+03  0.17297793838E+03 0.  0.
         24    2    5    5    0    0 -0.12980650068E+03 -0.19842996687E+02  0.20630117606E+03  0.25756017718E+03  0.80830671713E+02 0.  0.
          5    1    5    5  501    0 -0.13299318741E+03 -0.21815634830E+02  0.30090411464E+02  0.13816885569E+03  0.47000000000E+01 0. -1.
        -11    1    6    6    0    0 -0.73292229518E+02  0.84178861503E+00  0.46500179989E+02  0.86802800961E+02  0.00000000000E+00 0.  1.
         12    1    6    6    0    0 -0.56514271160E+02 -0.20684785302E+02  0.15980099607E+03  0.17075737622E+03  0.00000000000E+00 0. -1.
         -5    1    3    3    0  503  0.13689386004E+02  0.50116084325E+02 -0.45472099652E+02  0.69201322559E+02  0.47000000000E+01 0.  1.
         11    1    4    4    0    0  0.65493861764E+02 -0.35686094176E+02 -0.41735421885E+02  0.85468056526E+02  0.00000000000E+00 0. -1.
        -12    1    4    4    0    0  0.18361644032E+03  0.27228641369E+02 -0.57198645717E+02  0.19423717754E+03  0.00000000000E+00 0.  1.
</event>
<event>
12    1  0.8406581E-002  0.2113471E+03  0.7818608E-02  0.1140819E+00
         21   -1    0    0  501  502  0.00000000000E+00  0.00000000000E+00  0.35370111411E+03  0.35370111411E+03  0.00000000000E+00 0. -1.
         21   -1    0    0  502  503 -0.00000000000E+00 -0.00000000000E+00 -0.18692871629E+03  0.18692871629E+03  0.00000000000E+00 0. -1.
         -6    2    1    2    0  503 -0.11870768293E+03  0.13508222196E+02 -0.71569922525E+02  0.22313636357E+03  0.17433759457E+03 0.  0.
        -24    2    3    3    0    0 -0.11264220074E+03  0.62606388624E+02 -0.25351582754E+02  0.15527146136E+03  0.82817260755E+02 0.  0.
          6    2    1    2  501    0  0.11870768293E+03 -0.13508222196E+02  0.23834232034E+03  0.31749346683E+03  0.17239795173E+03 0.  0.
         24    2    5    5    0    0  0.79118355319E+02  0.21551907553E+02  0.23873180470E+03  0.26440138403E+03  0.78683025064E+02 0.  0.
          5    1    5    5  501    0  0.39589327612E+02 -0.35060129749E+02 -0.38948435514E+00  0.53092082808E+02  0.47000000000E+01 0. -1.
        -11    1    6    6    0    0  0.38448496404E+02  0.50613196653E+02  0.13907047423E+03  0.15290709387E+03  0.00000000000E+00 0.  1.
         12    1    6    6    0    0  0.40669858916E+02 -0.29061289100E+02  0.99661330464E+02  0.11149429016E+03  0.00000000000E+00 0. -1.
         -5    1    3    3    0  503 -0.60654821871E+01 -0.49098166428E+02 -0.46218339771E+02  0.67864902209E+02  0.47000000000E+01 0.  1.
         11    1    4    4    0    0 -0.54710820687E+02  0.46891369773E+02  0.25669985784E+02  0.76491977551E+02  0.00000000000E+00 0. -1.
        -12    1    4    4    0    0 -0.57931380057E+02  0.15715018851E+02 -0.51021568539E+02  0.78779483807E+02  0.00000000000E+00 0.  1.
</event>
<event>
12    1  0.8406581E-002  0.1899138E+03  0.7818608E-02  0.1160621E+00
         21   -1    0    0  501  502  0.00000000000E+00  0.00000000000E+00  0.26980250160E+03  0.26980250160E+03  0.00000000000E+00 0.  1.
         21   -1    0    0  502  503 -0.00000000000E+00 -0.00000000000E+00 -0.14482243080E+03  0.14482243080E+03  0.00000000000E+00 0.  1.
         -6    2    1    2    0  503 -0.45363573273E+02  0.67795819706E+02 -0.10672627270E+02  0.18123917964E+03  0.16149182120E+03 0.  0.
        -24    2    3    3    0    0 -0.68299371286E+02  0.94318959769E+02 -0.17047545835E+02  0.14529119811E+03  0.85194149686E+02 0.  0.
          6    2    1    2  501    0  0.45363573273E+02 -0.67795819706E+02  0.13565269806E+03  0.23338575276E+03  0.17150256018E+03 0.  0.
         24    2    5    5    0    0  0.54768018504E+02 -0.26577243885E+02  0.15513209367E+03  0.18659952149E+03  0.83949563380E+02 0.  0.
          5    1    5    5  501    0 -0.94044452311E+01 -0.41218575821E+02 -0.19479395607E+02  0.46786231265E+02  0.47000000000E+01 0. -1.
        -13    1    6    6    0    0  0.74344869750E+02 -0.34635736893E+02  0.13034618193E+03  0.15400299047E+03  0.00000000000E+00 0.  1.
         14    1    6    6    0    0 -0.19576851246E+02  0.80584930078E+01  0.24785911733E+02  0.32596531023E+02  0.00000000000E+00 0. -1.
         -5    1    3    3    0  503  0.22935798013E+02 -0.26523140063E+02  0.63749185652E+01  0.35947981529E+02  0.47000000000E+01 0.  1.
         13    1    4    4    0    0 -0.23448337896E+01  0.94497822689E+01 -0.34990606364E+02  0.36319955454E+02  0.00000000000E+00 0. -1.
        -14    1    4    4    0    0 -0.65954537496E+02  0.84869177500E+02  0.17943060529E+02  0.10897124266E+03  0.00000000000E+00 0.  1.
</event>
<event>
12    1  0.8406581E-002  0.1728733E+03  0.7818608E-02  0.1175030E+00
         21   -1    0    0  501  502  0.00000000000E+00  0.00000000000E+00  0.45074348883E+03  0.45074348883E+03  0.00000000000E+00 0.  1.
         21   -1    0    0  502  503 -0.00000000000E+00 -0.00000000000E+00 -0.13586036254E+03  0.13586036254E+03  0.00000000000E+00 0.  1.
         -6    2    1    2    0  503 -0.10820482394E+02 -0.15649437623E+02 -0.52627500132E+02  0.18070646544E+03  0.17182312168E+03 0.  0.
        -24    2    3    3    0    0  0.53395691134E+02 -0.53168483725E+01  0.22212530248E+01  0.95495227528E+02  0.78962242922E+02 0.  0.
          6    2    1    2  501    0  0.10820482394E+02  0.15649437623E+02  0.36751062642E+03  0.40589738593E+03  0.17125022520E+03 0.  0.
         24    2    5    5    0    0  0.78441085015E+01  0.74237685724E+02  0.27775265870E+03  0.29856600940E+03  0.80139619013E+02 0.  0.
          5    1    5    5  501    0  0.29763738923E+01 -0.58588248101E+02  0.89757967719E+02  0.10733137652E+03  0.47000000000E+01 0. -1.
        -13    1    6    6    0    0 -0.33925415082E+02  0.17014483774E+02  0.81107393011E+02  0.89547951666E+02  0.00000000000E+00 0.  1.
         14    1    6    6    0    0  0.41769523584E+02  0.57223201950E+02  0.19664526569E+03  0.20901805774E+03  0.00000000000E+00 0. -1.
         -5    1    3    3    0  503 -0.64216173528E+02 -0.10332589251E+02 -0.54848753157E+02  0.85211237909E+02  0.47000000000E+01 0.  1.
         13    1    4    4    0    0  0.33730117603E+02 -0.28733251700E+01 -0.37857143030E+02  0.50785235152E+02  0.00000000000E+00 0. -1.
        -14    1    4    4    0    0  0.19665573531E+02 -0.24435232025E+01  0.40078396055E+02  0.44709992376E+02  0.00000000000E+00 0.  1.
</event>
<event>
12    1  0.8406581E-002  0.2117499E+03  0.7818608E-02  0.1141598E+00
         21   -1    0    0  503  502  0.00000000000E+00  0.00000000000E+00  0.85604579479E+02  0.85604579479E+02  0.00000000000E+00 0.  1.
         21   -1    0    0  501  503 -0.00000000000E+00 -0.00000000000E+00 -0.53236647624E+03  0.53236647624E+03  0.00000000000E+00 0.  1.
          6    2    1    2  501    0  0.11451711047E+03  0.44525092689E+02 -0.15159367338E+03  0.25470491078E+03  0.16369880053E+03 0.  0.
         24    2    3    3    0    0  0.12565203292E+03 -0.18623377471E+01 -0.80075988666E+02  0.16860816620E+03  0.78896438889E+02 0.  0.
         -6    2    1    2    0  502 -0.11451711047E+03 -0.44525092689E+02 -0.29516822338E+03  0.36326614494E+03  0.17245683372E+03 0.  0.
        -24    2    5    5    0    0 -0.12972015327E+02 -0.55396552305E+02 -0.87530698436E+02  0.13182494993E+03  0.80493124346E+02 0.  0.
          5    1    3    3  501    0 -0.11134922447E+02  0.46387430436E+02 -0.71517684716E+02  0.86096744581E+02  0.47000000000E+01 0. -1.
        -11    1    4    4    0    0  0.33637759165E+02 -0.34545247286E+02 -0.12348912613E+02  0.49773171432E+02  0.00000000000E+00 0.  1.
         12    1    4    4    0    0  0.92014273754E+02  0.32682909539E+02 -0.67727076054E+02  0.11883499477E+03  0.00000000000E+00 0. -1.
         -5    1    5    5    0  502 -0.10154509514E+03  0.10871459616E+02 -0.20763752494E+03  0.23144119501E+03  0.47000000000E+01 0.  1.
         13    1    6    6    0    0  0.17307889610E+02 -0.59571390991E+02 -0.78298493670E+02  0.99894783539E+02  0.00000000000E+00 0. -1.
        -14    1    6    6    0    0 -0.30279904936E+02  0.41748386866E+01 -0.92322047662E+01  0.31930166393E+02  0.00000000000E+00 0.  1.
</event>
<event>
12    1  0.8406581E-002  0.2077135E+03  0.7818608E-02  0.1143704E+00
         21   -1    0    0  503  502  0.00000000000E+00  0.00000000000E+00  0.20679923360E+04  0.20679923360E+04  0.00000000000E+00 0.  1.
         21   -1    0    0  501  503 -0.00000000000E+00 -0.00000000000E+00 -0.27695415467E+02  0.27695415467E+02  0.00000000000E+00 0.  1.
          6    2    1    2  501    0 -0.43922234873E+02  0.10016441882E+03  0.49666147783E+03  0.53834704528E+03  0.17658664753E+03 0.  0.
         24    2    3    3    0    0 -0.74106989126E+02  0.86943186558E+02  0.22577808716E+03  0.26542613785E+03  0.80151896326E+02 0.  0.
         -6    2    1    2    0  502  0.43922234873E+02 -0.10016441882E+03  0.15436354427E+04  0.15573407062E+04  0.17475016931E+03 0.  0.
        -24    2    5    5    0    0 -0.14462979207E+02 -0.44407788680E+02  0.36625813148E+03  0.37718942012E+03  0.77107783736E+02 0.  0.
          5    1    3    3  501    0  0.30184754253E+02  0.13221232266E+02  0.27088339067E+03  0.27292090743E+03  0.47000000000E+01 0. -1.
        -13    1    4    4    0    0 -0.64068232176E+02  0.90258386471E+02  0.22902283976E+03  0.25436740325E+03  0.00000000000E+00 0.  1.
         14    1    4    4    0    0 -0.10038756950E+02 -0.33151999134E+01 -0.32447525986E+01  0.11058734602E+02  0.00000000000E+00 0. -1.
         -5    1    5    5    0  502  0.58385214080E+02 -0.55756630144E+02  0.11773773112E+04  0.11801512861E+04  0.47000000000E+01 0.  1.
         13    1    6    6    0    0 -0.62584571119E+01 -0.99654001414E+01  0.29123888233E+01  0.12122685101E+02  0.00000000000E+00 0. -1.
        -14    1    6    6    0    0 -0.82045220953E+01 -0.34442388538E+02  0.36334574266E+03  0.36506673502E+03  0.00000000000E+00 0.  1.
</event>
<event>
12    1  0.8406581E-002  0.1905334E+03  0.7818608E-02  0.1158345E+00
         21   -1    0    0  503  502  0.00000000000E+00  0.00000000000E+00  0.16550224257E+03  0.16550224257E+03  0.00000000000E+00 0. -1.
         21   -1    0    0  501  503 -0.00000000000E+00 -0.00000000000E+00 -0.23273858723E+03  0.23273858723E+03  0.00000000000E+00 0. -1.
          6    2    1    2  501    0 -0.70617279799E+00  0.77858445230E+02 -0.84709620332E+02  0.20851549371E+03  0.17389811720E+03 0.  0.
         24    2    3    3    0    0  0.13331269538E+02 -0.16954071080E+01  0.68360091872E+01  0.86333017495E+02  0.85006245273E+02 0.  0.
         -6    2    1    2    0  502  0.70617279799E+00 -0.77858445230E+02  0.17473275671E+02  0.18972533610E+03  0.17212771892E+03 0.  0.
        -24    2    5    5    0    0  0.35843620599E+02  0.24767239146E+01 -0.25770133515E+02  0.91845501210E+02  0.80502155326E+02 0.  0.
          5    1    3    3  501    0 -0.14037442336E+02  0.79553852338E+02 -0.91545629519E+02  0.12218247621E+03  0.47000000000E+01 0. -1.
        -11    1    4    4    0    0 -0.31231186175E+02 -0.52502942957E+01  0.22626830996E+02  0.38922051089E+02  0.00000000000E+00 0.  1.
         12    1    4    4    0    0  0.44562455713E+02  0.35548871876E+01 -0.15790821809E+02  0.47410966405E+02  0.00000000000E+00 0. -1.
         -5    1    5    5    0  502 -0.35137447801E+02 -0.80335169144E+02  0.43243409186E+02  0.97879834886E+02  0.47000000000E+01 0.  1.
         13    1    6    6    0    0 -0.25427833163E+02  0.69483947927E+01 -0.39675723372E+01  0.26657016334E+02  0.00000000000E+00 0. -1.
        -14    1    6    6    0    0  0.61271453762E+02 -0.44716708781E+01 -0.21802561177E+02  0.65188484876E+02  0.00000000000E+00 0.  1.
</event>
<event>
12    1  0.8406581E-002  0.2089188E+03  0.7818608E-02  0.1142482E+00
         21   -1    0    0  501  502  0.00000000000E+00  0.00000000000E+00  0.34858564567E+02  0.34858564567E+02  0.00000000000E+00 0.  1.
         21   -1    0    0  502  503 -0.00000000000E+00 -0.00000000000E+00 -0.26878869490E+04  0.26878869490E+04  0.00000000000E+00 0. -1.
         -6    2    1    2    0  503  0.40239040398E+02 -0.11228592943E+03 -0.23216621200E+04  0.23310177413E+04  0.17117651873E+03 0.  0.
        -24    2    3    3    0    0  0.56679760020E+02 -0.34305660633E+01 -0.11617620551E+04  0.11658954139E+04  0.79979243523E+02 0.  0.
          6    2    1    2  501    0 -0.40239040398E+02  0.11228592943E+03 -0.33136626451E+03  0.39172777232E+03  0.17152182379E+03 0.  0.
         24    2    5    5    0    0 -0.58583696591E+02  0.23019948214E+02 -0.97229342040E+02  0.14043684476E+03  0.79416590779E+02 0.  0.
          5    1    5    5  501    0  0.18344656193E+02  0.89265981216E+02 -0.23413692247E+03  0.25129092756E+03  0.47000000000E+01 0. -1.
        -11    1    6    6    0    0 -0.37689230944E+02  0.34994150676E+02 -0.13301868951E+02  0.53122579270E+02  0.00000000000E+00 0.  1.
         12    1    6    6    0    0 -0.20894465647E+02 -0.11974202462E+02 -0.83927473089E+02  0.87314265492E+02  0.00000000000E+00 0. -1.
         -5    1    3    3    0  503 -0.16440719621E+02 -0.10885536337E+03 -0.11599000648E+04  0.11651223274E+04  0.47000000000E+01 0.  1.
         13    1    4    4    0    0 -0.56450055450E+01 -0.26725473890E+02 -0.51396587929E+03  0.51469121045E+03  0.00000000000E+00 0. -1.
        -14    1    4    4    0    0  0.62324765565E+02  0.23294907827E+02 -0.64779617582E+03  0.65120420341E+03  0.00000000000E+00 0.  1.
</event>
<event>
12    1  0.8406581E-002  0.1759820E+03  0.7818608E-02  0.1172746E+00
         21   -1    0    0  503  502  0.00000000000E+00  0.00000000000E+00  0.38057294537E+03  0.38057294537E+03  0.00000000000E+00 0.  1.
         21   -1    0    0  501  503 -0.00000000000E+00 -0.00000000000E+00 -0.13289745423E+03  0.13289745423E+03  0.00000000000E+00 0.  1.
          6    2    1    2  501    0  0.27643474815E+02 -0.21684652534E+02 -0.37961471368E+02  0.18002982118E+03  0.17243919899E+03 0.  0.
         24    2    3    3    0    0  0.59666004226E+02  0.18620071896E+02 -0.66381481952E+02  0.12104083744E+03  0.79609321336E+02 0.  0.
         -6    2    1    2    0  502 -0.27643474815E+02  0.21684652534E+02  0.28563696250E+03  0.33344057842E+03  0.16840356034E+03 0.  0.
        -24    2    5    5    0    0  0.32649491394E+02  0.41442462575E+02  0.23073933325E+03  0.24940812916E+03  0.78614934895E+02 0.  0.
          5    1    3    3  501    0 -0.32022529411E+02 -0.40304724429E+02  0.28420010584E+02  0.58988983741E+02  0.47000000000E+01 0. -1.
        -13    1    4    4    0    0  0.49435229482E+02  0.29674633135E+02 -0.50405971393E+01  0.57877745163E+02  0.00000000000E+00 0.  1.
         14    1    4    4    0    0  0.10230774745E+02 -0.11054561240E+02 -0.61340884812E+02  0.63163092274E+02  0.00000000000E+00 0. -1.
         -5    1    5    5    0  502 -0.60292966209E+02 -0.19757810042E+02  0.54897629255E+02  0.84032449266E+02  0.47000000000E+01 0.  1.
         11    1    6    6    0    0  0.56998973290E+02  0.28495117752E+02  0.12734902758E+03  0.14240305305E+03  0.00000000000E+00 0. -1.
        -12    1    6    6    0    0 -0.24349481896E+02  0.12947344824E+02  0.10339030567E+03  0.10700507611E+03  0.00000000000E+00 0.  1.
</event>
<event>
12    1  0.8406581E-002  0.1788848E+03  0.7818608E-02  0.1169158E+00
         21   -1    0    0  501  502  0.00000000000E+00  0.00000000000E+00  0.26638378110E+03  0.26638378110E+03  0.00000000000E+00 0.  1.
         21   -1    0    0  502  503 -0.00000000000E+00 -0.00000000000E+00 -0.52958049575E+03  0.52958049575E+03  0.00000000000E+00 0. -1.
         -6    2    1    2    0  503  0.25306423180E+02 -0.39895327561E+02 -0.48176859093E+03  0.51352237987E+03  0.17138321740E+03 0.  0.
        -24    2    3    3    0    0 -0.87724751809E+00  0.30581220635E+02 -0.36156150344E+03  0.37166201775E+03  0.80436024594E+02 0.  0.
          6    2    1    2  501    0 -0.25306423180E+02  0.39895327561E+02  0.21857187628E+03  0.28244189699E+03  0.17253320799E+03 0.  0.
         24    2    5    5    0    0 -0.68486394875E+02 -0.89167442966E+00  0.81705764265E+02  0.13316861705E+03  0.79792651829E+02 0.  0.
          5    1    5    5  501    0  0.43179971694E+02  0.40787001991E+02  0.13686611201E+03  0.14927327994E+03  0.47000000000E+01 0. -1.
        -13    1    6    6    0    0 -0.24935331122E+02 -0.34738812517E+02  0.60475792114E+02  0.74066708210E+02  0.00000000000E+00 0.  1.
         14    1    6    6    0    0 -0.43551063752E+02  0.33847138087E+02  0.21229972151E+02  0.59101908837E+02  0.00000000000E+00 0. -1.
         -5    1    3    3    0  503  0.26183670698E+02 -0.70476548196E+02 -0.12020708749E+03  0.14186036212E+03  0.47000000000E+01 0.  1.
         13    1    4    4    0    0  0.31358376917E+02 -0.47756362075E+01 -0.21901215263E+03  0.22129726050E+03  0.00000000000E+00 0. -1.
        -14    1    4    4    0    0 -0.32235624435E+02  0.35356856842E+02 -0.14254935081E+03  0.15036475725E+03  0.00000000000E+00 0.  1.
</event>
<event>
12    1  0.8406581E-002  0.1761781E+03  0.7818608E-02  0.1171586E+00
         21   -1    0    0  501  502  0.00000000000E+00  0.00000000000E+00  0.10102399239E+03  0.10102399239E+03  0.00000000000E+00 0. -1.
         21   -1    0    0  502  503 -0.00000000000E+00 -0.00000000000E+00 -0.61503776130E+03  0.61503776130E+03  0.00000000000E+00 0. -1.
         -6    2    1    2    0  503 -0.99252989474E+01 -0.36190551406E+02 -0.51033310202E+03  0.53984524835E+03  0.17200217899E+03 0.  0.
        -24    2    3    3    0    0 -0.14072456765E+02  0.23782344672E+01 -0.48826422850E+03  0.49496902591E+03  0.79929279650E+02 0.  0.
          6    2    1    2  501    0  0.99252989474E+01  0.36190551406E+02 -0.36806668864E+01  0.17621650534E+03  0.17213495251E+03 0.  0.
         24    2    5    5    0    0 -0.52230626877E+02  0.27901507785E+02  0.28573894679E+02  0.10554462903E+03  0.82563119727E+02 0.  0.
          5    1    5    5  501    0  0.62155925825E+02  0.82890436207E+01 -0.32254561565E+02  0.70671876309E+02  0.47000000000E+01 0. -1.
        -11    1    6    6    0    0 -0.30811064175E+02 -0.21566972456E+02 -0.10404750886E+02  0.39021978647E+02  0.00000000000E+00 0.  1.
         12    1    6    6    0    0 -0.21419562702E+02  0.49468480242E+02  0.38978645564E+02  0.66522650382E+02  0.00000000000E+00 0. -1.
         -5    1    3    3    0  503  0.41471578180E+01 -0.38568785873E+02 -0.22068873527E+02  0.44876222440E+02  0.47000000000E+01 0.  1.
         13    1    4    4    0    0 -0.27494274666E+02  0.32724020259E+02 -0.18390341447E+03  0.18880482646E+03  0.00000000000E+00 0. -1.
        -14    1    4    4    0    0  0.13421817900E+02 -0.30345785792E+02 -0.30436081402E+03  0.30616419945E+03  0.00000000000E+00 0.  1.
</event>
<event>
12    1  0.8406581E-002  0.2088950E+03  0.7818608E-02  0.1142478E+00
         21   -1    0    0  501  502  0.00000000000E+00  0.00000000000E+00  0.25599622625E+03  0.25599622625E+03  0.00000000000E+00 0.  1.
         21   -1    0    0  502  503 -0.00000000000E+00 -0.00000000000E+00 -0.56741336614E+03  0.56741336614E+03  0.00000000000E+00 0.  1.
         -6    2    1    2    0  503 -0.68727075025E+02 -0.96173897392E+02 -0.50014347657E+03  0.54201534371E+03  0.17223329026E+03 0.  0.
        -24    2    3    3    0    0  0.26511245417E+02 -0.28193441615E+02 -0.17655150282E+03  0.19788522947E+03  0.80563109488E+02 0.  0.
          6    2    1    2  501    0  0.68727075025E+02  0.96173897392E+02  0.18872633669E+03  0.28139424869E+03  0.17202402058E+03 0.  0.
         24    2    5    5    0    0 -0.10566605701E+02  0.62782930661E+02  0.64093807525E+02  0.12987592707E+03  0.93308042153E+02 0.  0.
          5    1    5    5  501    0  0.79293680726E+02  0.33390966731E+02  0.12463252916E+03  0.15151832162E+03  0.47000000000E+01 0. -1.
        -11    1    6    6    0    0  0.33941793918E+02  0.49721836267E+02  0.14405897885E+02  0.61901827679E+02  0.00000000000E+00 0.  1.
         12    1    6    6    0    0 -0.44508399619E+02  0.13061094394E+02  0.49687909639E+02  0.67974099389E+02  0.00000000000E+00 0. -1.
         -5    1    3    3    0  503 -0.95238320442E+02 -0.67980455777E+02 -0.32359197375E+03  0.34413011424E+03  0.47000000000E+01 0.  1.
         13    1    4    4    0    0  0.40090525251E+02  0.77130833935E+01 -0.44604824851E+02  0.60467613400E+02  0.00000000000E+00 0. -1.
        -14    1    4    4    0    0 -0.13579279834E+02 -0.35906525008E+02 -0.13194667797E+03  0.13741761607E+03  0.00000000000E+00 0.  1.
</event>
<event>
12    1  0.8406581E-002  0.2399634E+03  0.7818608E-02  0.1120364E+00
         21   -1    0    0  501  502  0.00000000000E+00  0.00000000000E+00  0.51539402909E+03  0.51539402909E+03  0.00000000000E+00 0.  1.
         21   -1    0    0  502  503 -0.00000000000E+00 -0.00000000000E+00 -0.13072050192E+03  0.13072050192E+03  0.00000000000E+00 0. -1.
         -6    2    1    2    0  503  0.20441943090E+02  0.16190788054E+03  0.63272054525E+02  0.24501437736E+03  0.17145453453E+03 0.  0.
        -24    2    3    3    0    0 -0.18782911220E+02  0.12287240211E+02  0.26464482713E+02  0.85948942552E+02  0.78632549587E+02 0.  0.
          6    2    1    2  501    0 -0.20441943090E+02 -0.16190788054E+03  0.32140147265E+03  0.40110015365E+03  0.17592723444E+03 0.  0.
         24    2    5    5    0    0  0.14662390669E+02 -0.13941115711E+03  0.32065681265E+03  0.35913515237E+03  0.80664798648E+02 0.  0.
          5    1    5    5  501    0 -0.35104333760E+02 -0.22496723433E+02  0.74465999965E+00  0.41965001280E+02  0.47000000000E+01 0. -1.
        -11    1    6    6    0    0 -0.56484174822E+01 -0.10749307976E+03  0.15179423087E+03  0.18608641901E+03  0.00000000000E+00 0.  1.
         12    1    6    6    0    0  0.20310808151E+02 -0.31918077347E+02  0.16886258178E+03  0.17304873336E+03  0.00000000000E+00 0. -1.
         -5    1    3    3    0  503  0.39224854310E+02  0.14962064033E+03  0.36807571812E+02  0.15906543481E+03  0.47000000000E+01 0.  1.
         11    1    4    4    0    0 -0.90038213650E+01  0.39628592602E+02 -0.74350253623E+01  0.41313118412E+02  0.00000000000E+00 0. -1.
        -12    1    4    4    0    0 -0.97790898548E+01 -0.27341352390E+02  0.33899508076E+02  0.44635824140E+02  0.00000000000E+00 0.  1.
</event>
<event>
12    1  0.8406581E-002  0.2948789E+03  0.7818608E-02  0.1087931E+00
         21   -1    0    0  503  502  0.00000000000E+00  0.00000000000E+00  0.76492815632E+03  0.76492815632E+03  0.00000000000E+00 0. -1.
         21   -1    0    0  501  503 -0.00000000000E+00 -0.00000000000E+00 -0.11437308602E+03  0.11437308602E+03  0.00000000000E+00 0.  1.
          6    2    1    2  501    0 -0.25097570308E+02  0.23735662765E+03  0.36692506175E+03  0.47073086034E+03  0.17316317508E+03 0.  0.
         24    2    3    3    0    0  0.53419960904E+02  0.12702146260E+03  0.19000300222E+03  0.24788033531E+03  0.79720609614E+02 0.  0.
         -6    2    1    2    0  502  0.25097570308E+02 -0.23735662765E+03  0.28363000854E+03  0.40857038200E+03  0.17180139284E+03 0.  0.
        -24    2    5    5    0    0 -0.15440740750E+01 -0.10601774363E+03  0.22791253454E+03  0.26335947821E+03  0.78561728812E+02 0.  0.
          5    1    3    3  501    0 -0.78517531212E+02  0.11033516505E+03  0.17692205953E+03  0.22285052503E+03  0.47000000000E+01 0. -1.
        -11    1    4    4    0    0  0.20977583265E+02  0.10926464949E+03  0.96318850410E+02  0.14716026492E+03  0.00000000000E+00 0.  1.
         12    1    4    4    0    0  0.32442377639E+02  0.17756813110E+02  0.93684151809E+02  0.10072007039E+03  0.00000000000E+00 0. -1.
         -5    1    5    5    0  502  0.26641644383E+02 -0.13133888402E+03  0.55717473997E+02  0.14521090379E+03  0.47000000000E+01 0.  1.
         13    1    6    6    0    0 -0.48991815003E+01 -0.11776992163E+03  0.21713045739E+03  0.24706151450E+03  0.00000000000E+00 0. -1.
        -14    1    6    6    0    0  0.33551074253E+01  0.11752177998E+02  0.10782077154E+02  0.16297963716E+02  0.00000000000E+00 0.  1.
</event>
<event>
12    1  0.8406581E-002  0.1829439E+03  0.7818608E-02  0.1165739E+00
         21   -1    0    0  503  502  0.00000000000E+00  0.00000000000E+00  0.30188394500E+02  0.30188394500E+02  0.00000000000E+00 0.  1.
         21   -1    0    0  501  503 -0.00000000000E+00 -0.00000000000E+00 -0.11465589994E+04  0.11465589994E+04  0.00000000000E+00 0.  1.
          6    2    1    2  501    0  0.63358724767E+02  0.14700252648E+02 -0.68470269603E+03  0.70791304182E+03  0.16760867340E+03 0.  0.
         24    2    3    3    0    0  0.90693778184E+02  0.47560677346E+02 -0.42891754071E+03  0.44853850888E+03  0.82031443900E+02 0.  0.
         -6    2    1    2    0  502 -0.63358724767E+02 -0.14700252648E+02 -0.43166790887E+03  0.46883435208E+03  0.17099134688E+03 0.  0.
        -24    2    5    5    0    0 -0.28549131177E+02 -0.25269887466E+02 -0.94263893424E+02  0.12944227111E+03  0.80099936598E+02 0.  0.
          5    1    3    3  501    0 -0.27335053417E+02 -0.32860424698E+02 -0.25578515531E+03  0.25937453294E+03  0.47000000000E+01 0. -1.
        -11    1    4    4    0    0  0.82432578713E+02  0.69278779265E+02 -0.36370514759E+03  0.37931004953E+03  0.00000000000E+00 0.  1.
         12    1    4    4    0    0  0.82611994717E+01 -0.21718101920E+02 -0.65212393122E+02  0.69228459353E+02  0.00000000000E+00 0. -1.
         -5    1    5    5    0  502 -0.34809593591E+02  0.10569634818E+02 -0.33740401544E+03  0.33939208097E+03  0.47000000000E+01 0.  1.
         11    1    6    6    0    0  0.19782361913E+02 -0.10642690120E+01 -0.65047914502E+02  0.67997835940E+02  0.00000000000E+00 0. -1.
        -12    1    6    6    0    0 -0.48331493090E+02 -0.24205618454E+02 -0.29215978922E+02  0.61444435170E+02  0.00000000000E+00 0.  1.
</event>
<event>
12    1  0.8406581E-002  0.3077414E+03  0.7818608E-02  0.1081571E+00
         21   -1    0    0  503  502  0.00000000000E+00  0.00000000000E+00  0.43458155271E+03  0.43458155271E+03  0.00000000000E+00 0. -1.
         21   -1    0    0  501  503 -0.00000000000E+00 -0.00000000000E+00 -0.38463015533E+03  0.38463015533E+03  0.00000000000E+00 0.  1.
          6    2    1    2  501    0  0.10483605924E+03 -0.23172687369E+03 -0.24536130164E+03  0.39269753792E+03  0.17123447268E+03 0.  0.
         24    2    3    3    0    0  0.16000495041E+02 -0.87118391852E+02 -0.33633399082E+02  0.12130452915E+03  0.75749278657E+02 0.  0.
         -6    2    1    2    0  502 -0.10483605924E+03  0.23172687369E+03  0.29531269902E+03  0.42651417012E+03  0.17325358235E+03 0.  0.
        -24    2    5    5    0    0 -0.10117073905E+01  0.56696743132E+02  0.13835947752E+03  0.16947050383E+03  0.79758149509E+02 0.  0.
          5    1    3    3  501    0  0.88835564200E+02 -0.14460848184E+03 -0.21172790256E+03  0.27139300877E+03  0.47000000000E+01 0. -1.
        -13    1    4    4    0    0 -0.11210008652E+02 -0.12330898730E+02 -0.38110624730E+02  0.41594892412E+02  0.00000000000E+00 0.  1.
         14    1    4    4    0    0  0.27210503693E+02 -0.74787493122E+02  0.44772256482E+01  0.79709636733E+02  0.00000000000E+00 0. -1.
         -5    1    5    5    0  502 -0.10382435185E+03  0.17503013056E+03  0.15695322150E+03  0.25704366629E+03  0.47000000000E+01 0.  1.
         13    1    6    6    0    0 -0.32876264606E+02  0.34387842116E+01  0.68277126546E+02  0.75858025420E+02  0.00000000000E+00 0. -1.
        -14    1    6    6    0    0  0.31864557215E+02  0.53257958920E+02  0.70082350978E+02  0.93612478407E+02  0.00000000000E+00 0.  1.
</event>
<event>
12    1  0.8406581E-002  0.1721230E+03  0.7818608E-02  0.1176076E+00
         21   -1    0    0  501  502  0.00000000000E+00  0.00000000000E+00  0.13051022560E+04  0.13051022560E+04  0.00000000000E+00 0. -1.
         21   -1    0    0  502  503 -0.00000000000E+00 -0.00000000000E+00 -0.12746648397E+03  0.12746648397E+03  0.00000000000E+00 0. -1.
         -6    2    1    2    0  503  0.30224341382E+01  0.13865435181E+02 -0.60730779465E+02  0.18252276081E+03  0.17153700836E+03 0.  0.
        -24    2    3    3    0    0  0.61515951286E+02 -0.16490952773E+02 -0.36648788586E+02  0.11220182422E+03  0.84793583878E+02 0.  0.
          6    2    1    2  501    0 -0.30224341382E+01 -0.13865435181E+02  0.12383665515E+04  0.12500459792E+04  0.16988775335E+03 0.  0.
         24    2    5    5    0    0  0.39392554923E+02  0.20991427020E+02  0.45518135011E+03  0.46492485359E+03  0.83502362875E+02 0.  0.
          5    1    5    5  501    0 -0.42414989061E+02 -0.34856862201E+02  0.78318520141E+03  0.78512112559E+03  0.47000000000E+01 0. -1.
        -13    1    6    6    0    0  0.14338739347E+02  0.18374246733E+02  0.25657366646E+02  0.34662845415E+02  0.00000000000E+00 0.  1.
         14    1    6    6    0    0  0.25053815576E+02  0.26171802874E+01  0.42952398347E+03  0.43026200818E+03  0.00000000000E+00 0. -1.
         -5    1    3    3    0  503 -0.58493517148E+02  0.30356387954E+02 -0.24081990879E+02  0.70320936588E+02  0.47000000000E+01 0.  1.
         11    1    4    4    0    0 -0.12561587761E+02  0.29944556263E+01 -0.33091416757E+02  0.35521854042E+02  0.00000000000E+00 0. -1.
        -12    1    4    4    0    0  0.74077539047E+02 -0.19485408399E+02 -0.35573718294E+01  0.76679970176E+02  0.00000000000E+00 0.  1.
</event>
<event>
12    1  0.8406581E-002  0.2014896E+03  0.7818608E-02  0.1149814E+00
         21   -1    0    0  501  502  0.00000000000E+00  0.00000000000E+00  0.23027837900E+03  0.23027837900E+03  0.00000000000E+00 0.  1.
         21   -1    0    0  502  503 -0.00000000000E+00 -0.00000000000E+00 -0.17220589480E+03  0.17220589480E+03  0.00000000000E+00 0. -1.
         -6    2    1    2    0  503  0.92097140180E+02  0.43699505369E+02  0.47142123606E+02  0.20693095905E+03  0.17380020712E+03 0.  0.
        -24    2    3    3    0    0  0.13146063230E+03  0.19011740862E+02  0.36117316262E+02  0.15894547577E+03  0.79472382621E+02 0.  0.
          6    2    1    2  501    0 -0.92097140180E+02 -0.43699505369E+02  0.10930360594E+02  0.19555331476E+03  0.16652356029E+03 0.  0.
         24    2    5    5    0    0 -0.70536346475E+02 -0.12816544475E+02  0.67973136317E+02  0.12703621207E+03  0.79863708472E+02 0.  0.
          5    1    5    5  501    0 -0.21560793705E+02 -0.30882960894E+02 -0.57042775723E+02  0.68517102690E+02  0.47000000000E+01 0. -1.
        -11    1    6    6    0    0 -0.42677966470E+02  0.75730207819E+01 -0.75494091946E+01  0.43997193603E+02  0.00000000000E+00 0.  1.
         12    1    6    6    0    0 -0.27858380005E+02 -0.20389565257E+02  0.75522545512E+02  0.83039018470E+02  0.00000000000E+00 0. -1.
         -5    1    3    3    0  503 -0.39363492118E+02  0.24687764507E+02  0.11024807344E+02  0.47985483274E+02  0.47000000000E+01 0.  1.
         13    1    4    4    0    0  0.64487208610E+02  0.44511827124E+02  0.38367095485E+02  0.87246414506E+02  0.00000000000E+00 0. -1.
        -14    1    4    4    0    0  0.66973423688E+02 -0.25500086261E+02 -0.22497792227E+01  0.71699061266E+02  0.00000000000E+00 0.  1.
</event>
<event>
12    1  0.8406581E-002  0.1801979E+03  0.7818608E-02  0.1168149E+00
         21   -1    0    0  503  502  0.00000000000E+00  0.00000000000E+00  0.42057941612E+03  0.42057941612E+03  0.00000000000E+00 0.  1.
         21   -1    0    0  501  503 -0.00000000000E+00 -0.00000000000E+00 -0.17034239888E+03  0.17034239888E+03  0.00000000000E+00 0.  1.
          6    2    1    2  501    0  0.15317057014E+02 -0.56523038041E+02 -0.94802971551E+02  0.20166113061E+03  0.16807778591E+03 0.  0.
         24    2    3    3    0    0  0.66688407698E+02 -0.69885203337E+02 -0.71454730636E+02  0.14348215256E+03  0.78422345073E+02 0.  0.
         -6    2    1    2    0  502 -0.15317057014E+02  0.56523038041E+02  0.34503998879E+03  0.38926068439E+03  0.17041660859E+03 0.  0.
        -24    2    5    5    0    0 -0.59352715672E+02  0.67129849273E+02  0.30758918377E+03  0.33030055825E+03  0.80362872564E+02 0.  0.
          5    1    3    3  501    0 -0.51371350684E+02  0.13362165296E+02 -0.23348240915E+02  0.58178978045E+02  0.47000000000E+01 0. -1.
        -13    1    4    4    0    0  0.42266097280E+02 -0.84509888042E+02 -0.45149101787E+02  0.10472242142E+03  0.00000000000E+00 0.  1.
         14    1    4    4    0    0  0.24422310418E+02  0.14624684706E+02 -0.26305628849E+02  0.38759731140E+02  0.00000000000E+00 0. -1.
         -5    1    5    5    0  502  0.44035658658E+02 -0.10606811231E+02  0.37450805019E+02  0.58960126141E+02  0.47000000000E+01 0.  1.
         13    1    6    6    0    0  0.35762603043E+00  0.18593833091E+02  0.67627740176E+01  0.19788725017E+02  0.00000000000E+00 0. -1.
        -14    1    6    6    0    0 -0.59710341702E+02  0.48536016182E+02  0.30082640975E+03  0.31051183324E+03  0.00000000000E+00 0.  1.
</event>
<event>
12    1  0.8406581E-002  0.2630456E+03  0.7818608E-02  0.1105495E+00
         21   -1    0    0  501  502  0.00000000000E+00  0.00000000000E+00  0.42908404630E+03  0.42908404630E+03  0.00000000000E+00 0.  1.
         21   -1    0    0  502  503 -0.00000000000E+00 -0.00000000000E+00 -0.19431812164E+03  0.19431812164E+03  0.00000000000E+00 0. -1.
         -6    2    1    2    0  503  0.19104307969E+03  0.51768137214E+02 -0.12737260687E+02  0.26222243266E+03  0.17152541517E+03 0.  0.
        -24    2    3    3    0    0  0.50565546036E+02 -0.20996315281E+02  0.34951087811E+02  0.96920068513E+02  0.71931922261E+02 0.  0.
          6    2    1    2  501    0 -0.19104307969E+03 -0.51768137214E+02  0.24750318535E+03  0.36117973528E+03  0.17325003921E+03 0.  0.
         24    2    5    5    0    0 -0.49025284941E+02 -0.26066728626E+02  0.13103016601E+03  0.17565973456E+03  0.10297808038E+03 0.  0.
          5    1    5    5  501    0 -0.14201779475E+03 -0.25701408588E+02  0.11647301934E+03  0.18552000071E+03  0.47000000000E+01 0. -1.
        -11    1    6    6    0    0 -0.15528319704E+02  0.35207427070E+02  0.17273780529E+02  0.42179084005E+02  0.00000000000E+00 0.  1.
         12    1    6    6    0    0 -0.33496965237E+02 -0.61274155696E+02  0.11375638548E+03  0.13348065056E+03  0.00000000000E+00 0. -1.
         -5    1    3    3    0  503  0.14047753366E+03  0.72764452495E+02 -0.47688348498E+02  0.16530236415E+03  0.47000000000E+01 0.  1.
         11    1    4    4    0    0  0.19469438425E+02 -0.24903588966E+02 -0.17266559175E+02  0.36019187133E+02  0.00000000000E+00 0. -1.
        -12    1    4    4    0    0  0.31096107611E+02  0.39072736852E+01  0.52217646986E+02  0.60900881381E+02  0.00000000000E+00 0.  1.
</event>
<event>
12    1  0.8406581E-002  0.1772721E+03  0.7818608E-02  0.1170866E+00
         21   -1    0    0  503  502  0.00000000000E+00  0.00000000000E+00  0.15889707681E+03  0.15889707681E+03  0.00000000000E+00 0. -1.
         21   -1    0    0  501  503 -0.00000000000E+00 -0.00000000000E+00 -0.19903733636E+03  0.19903733636E+03  0.00000000000E+00 0. -1.
          6    2    1    2  501    0  0.16081875286E+02  0.30724296109E+02  0.21550072249E+01  0.17568657408E+03  0.17221648926E+03 0.  0.
         24    2    3    3    0    0  0.35299192109E+01  0.11921695641E+02  0.67195222435E+02  0.10666911991E+03  0.81905531363E+02 0.  0.
         -6    2    1    2    0  502 -0.16081875286E+02 -0.30724296109E+02 -0.42295266783E+02  0.18224783909E+03  0.17384699070E+03 0.  0.
        -24    2    5    5    0    0 -0.44273985979E+02 -0.76939400486E+02 -0.45793951332E+02  0.12779637656E+03  0.79718070107E+02 0.  0.
          5    1    3    3  501    0  0.12551956075E+02  0.18802600468E+02 -0.65040215210E+02  0.69017454171E+02  0.47000000000E+01 0. -1.
        -11    1    4    4    0    0 -0.35189088559E+02  0.23116728474E+02  0.28859724114E+02  0.51044478300E+02  0.00000000000E+00 0.  1.
         12    1    4    4    0    0  0.38719007770E+02 -0.11195032833E+02  0.38335498321E+02  0.55624641611E+02  0.00000000000E+00 0. -1.
         -5    1    5    5    0  502  0.28192110693E+02  0.46215104377E+02  0.34986845482E+01  0.54451462529E+02  0.47000000000E+01 0.  1.
         13    1    6    6    0    0 -0.58981101519E+02 -0.57296503997E+02 -0.78419676753E+01  0.82602398051E+02  0.00000000000E+00 0. -1.
        -14    1    6    6    0    0  0.14707115540E+02 -0.19642896489E+02 -0.37951983656E+02  0.45193978509E+02  0.00000000000E+00 0.  1.
</event>
<event>
12    1  0.8406581E-002  0.3282286E+03  0.7818608E-02  0.1071984E+00
         21   -1    0    0  503  502  0.00000000000E+00  0.00000000000E+00  0.72348016902E+03  0.72348016902E+03  0.00000000000E+00 0. -1.
         21   -1    0    0  501  503 -0.00000000000E+00 -0.00000000000E+00 -0.16711741767E+03  0.16711741767E+03  0.00000000000E+00 0. -1.
          6    2    1    2  501    0 -0.10613693236E+03  0.25785078049E+03  0.13001441904E+03  0.35253914173E+03  0.17212792884E+03 0.  0.
         24    2    3    3    0    0 -0.99638114990E+02  0.13675211191E+03  0.19725332271E+02  0.18854860903E+03  0.80824471301E+02 0.  0.
         -6    2    1    2    0  502  0.10613693236E+03 -0.25785078049E+03  0.42634833232E+03  0.53805844496E+03  0.17315286980E+03 0.  0.
        -24    2    5    5    0    0  0.40000150136E+02 -0.11457054577E+03  0.10335083160E+03  0.17854102523E+03  0.80430599450E+02 0.  0.
          5    1    3    3  501    0 -0.64988173661E+01  0.12109866857E+03  0.11028908677E+03  0.16399053270E+03  0.47000000000E+01 0. -1.
        -13    1    4    4    0    0 -0.12006611968E+02  0.84662091696E+02  0.66152830105E+01  0.85764739087E+02  0.00000000000E+00 0.  1.
         14    1    4    4    0    0 -0.87631503023E+02  0.52090020218E+02  0.13110049260E+02  0.10278386994E+03  0.00000000000E+00 0. -1.
         -5    1    5    5    0  502  0.66136782221E+02 -0.14328023471E+03  0.32299750072E+03  0.35951741974E+03  0.47000000000E+01 0.  1.
         11    1    6    6    0    0  0.54461596731E+02 -0.36393652450E+02  0.38794201485E+02  0.76128532930E+02  0.00000000000E+00 0. -1.
        -12    1    6    6    0    0 -0.14461446596E+02 -0.78176893322E+02  0.64556630111E+02  0.10241249230E+03  0.00000000000E+00 0.  1.
</event>
<event>
12    1  0.8406581E-002  0.2210132E+03  0.7818608E-02  0.1133410E+00
         21   -1    0    0  501  502  0.00000000000E+00  0.00000000000E+00  0.20040927704E+03  0.20040927704E+03  0.00000000000E+00 0.  1.
         21   -1    0    0  502  503 -0.00000000000E+00 -0.00000000000E+00 -0.25850137696E+03  0.25850137696E+03  0.00000000000E+00 0.  1.
         -6    2    1    2    0  503 -0.76145258481E+02  0.11368852689E+03 -0.86977288423E+02  0.23751185321E+03  0.17356166103E+03 0.  0.
        -24    2    3    3    0    0 -0.47243652451E+02 -0.90667787102E+01  0.11873855248E+02  0.77206499311E+02  0.59208833161E+02 0.  0.
          6    2    1    2  501    0  0.76145258481E+02 -0.11368852689E+03  0.28885188499E+02  0.22139880078E+03  0.17163884565E+03 0.  0.
         24    2    5    5    0    0  0.41609145187E+01 -0.64279850936E+02 -0.40097091825E+02  0.11002731415E+03  0.79680741969E+02 0.  0.
          5    1    5    5  501    0  0.71984343962E+02 -0.49408675957E+02  0.68982280324E+02  0.11137148663E+03  0.47000000000E+01 0. -1.
        -13    1    6    6    0    0  0.31970346122E+02 -0.48811951906E+02  0.61653170406E+00  0.58353147228E+02  0.00000000000E+00 0.  1.
         14    1    6    6    0    0 -0.27809431603E+02 -0.15467899030E+02 -0.40713623529E+02  0.51674166924E+02  0.00000000000E+00 0. -1.
         -5    1    3    3    0  503 -0.28901606029E+02  0.12275530560E+03 -0.98851143672E+02  0.16030535390E+03  0.47000000000E+01 0.  1.
         11    1    4    4    0    0  0.10554486110E+02 -0.12774262854E+02 -0.42117240417E+01  0.17097297679E+02  0.00000000000E+00 0. -1.
        -12    1    4    4    0    0 -0.57798138561E+02  0.37074841443E+01  0.16085579290E+02  0.60109201632E+02  0.00000000000E+00 0.  1.
</event>
<event>
12    1  0.8406581E-002  0.1749667E+03  0.7818608E-02  0.1173217E+00
         21   -1    0    0  501  502  0.00000000000E+00  0.00000000000E+00  0.18982107353E+02  0.18982107353E+02  0.00000000000E+00 0. -1.
         21   -1    0    0  502  503 -0.00000000000E+00 -0.00000000000E+00 -0.16216133036E+04  0.16216133036E+04  0.00000000000E+00 0. -1.
         -6    2    1    2    0  503  0.40247699402E+01 -0.81988402940E+01 -0.69474876611E+03  0.71600692819E+03  0.17293540254E+03 0.  0.
        -24    2    3    3    0    0  0.42039942870E+02 -0.37109027189E+02 -0.61801217920E+03  0.62549976798E+03  0.78526870604E+02 0.  0.
          6    2    1    2  501    0 -0.40247699402E+01  0.81988402940E+01 -0.90788243011E+03  0.92458848273E+03  0.17472817674E+03 0.  0.
         24    2    5    5    0    0 -0.37974914423E+02 -0.53426634647E+02 -0.57747958564E+03  0.58674467103E+03  0.80561391109E+02 0.  0.
          5    1    5    5  501    0  0.33950144483E+02  0.61625474941E+02 -0.33040284447E+03  0.33784381170E+03  0.47000000000E+01 0. -1.
        -11    1    6    6    0    0 -0.32132526281E+02 -0.52098903558E+02 -0.19863000840E+03  0.20784772127E+03  0.00000000000E+00 0.  1.
         12    1    6    6    0    0 -0.58423881420E+01 -0.13277310888E+01 -0.37884957724E+03  0.37889694976E+03  0.00000000000E+00 0. -1.
         -5    1    3    3    0  503 -0.38015172929E+02  0.28910186895E+02 -0.76736586911E+02  0.90507160214E+02  0.47000000000E+01 0.  1.
         11    1    4    4    0    0 -0.12548696828E+02 -0.63443092959E+01 -0.21401297674E+02  0.25607334782E+02  0.00000000000E+00 0. -1.
        -12    1    4    4    0    0  0.54588639698E+02 -0.30764717893E+02 -0.59661088152E+03  0.59989243320E+03  0.00000000000E+00 0.  1.
</event>
<event>
12    1  0.8406581E-002  0.3482967E+03  0.7818608E-02  0.1063327E+00
         21   -1    0    0  501  502  0.00000000000E+00  0.00000000000E+00  0.53373352558E+03  0.53373352558E+03  0.00000000000E+00 0. -1.
         21   -1    0    0  502  503 -0.00000000000E+00 -0.00000000000E+00 -0.97921022387E+03  0.97921022387E+03  0.00000000000E+00 0. -1.
         -6    2    1    2    0  503  0.28931382941E+03 -0.87740116980E+02 -0.88565124920E+03  0.95163791485E+03  0.17273032672E+03 0.  0.
        -24    2    3    3    0    0  0.30078977797E+03 -0.92119515892E+02 -0.87876504805E+03  0.93679250154E+03  0.79948017665E+02 0.  0.
          6    2    1    2  501    0 -0.28931382941E+03  0.87740116980E+02  0.44017455091E+03  0.56130583459E+03  0.17294445542E+03 0.  0.
         24    2    5    5    0    0 -0.13556687419E+03 -0.24355293238E+02  0.20307673126E+03  0.25726476283E+03  0.77288043906E+02 0.  0.
          5    1    5    5  501    0 -0.15374695522E+03  0.11209541022E+03  0.23709781965E+03  0.30404107176E+03  0.47000000000E+01 0. -1.
        -13    1    6    6    0    0 -0.29195797659E+02  0.11369249288E+02  0.81920959727E+01  0.32384639364E+02  0.00000000000E+00 0.  1.
         14    1    6    6    0    0 -0.10637107653E+03 -0.35724542526E+02  0.19488463529E+03  0.22488012347E+03  0.00000000000E+00 0. -1.
         -5    1    3    3    0  503 -0.11475948561E+02  0.43793989125E+01 -0.68862011487E+01  0.14845413314E+02  0.47000000000E+01 0.  1.
         13    1    4    4    0    0  0.24296823619E+03 -0.73105752860E+02 -0.59970222307E+03  0.65116877325E+03  0.00000000000E+00 0. -1.
        -14    1    4    4    0    0  0.57821541787E+02 -0.19013763032E+02 -0.27906282497E+03  0.28562372829E+03  0.00000000000E+00 0.  1.
</event>
<event>
12    1  0.8406581E-002  0.1960109E+03  0.7818608E-02  0.1154092E+00
         21   -1    0    0  503  502  0.00000000000E+00  0.00000000000E+00  0.21782202727E+03  0.21782202727E+03  0.00000000000E+00 0.  1.
         21   -1    0    0  501  503 -0.00000000000E+00 -0.00000000000E+00 -0.18864619480E+03  0.18864619480E+03  0.00000000000E+00 0. -1.
          6    2    1    2  501    0  0.66000836221E+02 -0.67443183330E+02  0.74134201140E+02  0.20956179387E+03  0.17180096714E+03 0.  0.
         24    2    3    3    0    0  0.46464288014E+02 -0.56539682758E+02 -0.13520905985E+02  0.11897442805E+03  0.92824748019E+02 0.  0.
         -6    2    1    2    0  502 -0.66000836221E+02  0.67443183330E+02 -0.44958368667E+02  0.19690642820E+03  0.16687178669E+03 0.  0.
        -24    2    5    5    0    0 -0.17562154934E+02  0.42403202062E+02 -0.87355070185E+02  0.12767582220E+03  0.81016951668E+02 0.  0.
          5    1    3    3  501    0  0.19536548207E+02 -0.10903500572E+02  0.87655107125E+02  0.90587365817E+02  0.47000000000E+01 0. -1.
        -11    1    4    4    0    0 -0.10861224628E+02 -0.52458941212E+01  0.28766923884E+02  0.31193292794E+02  0.00000000000E+00 0.  1.
         12    1    4    4    0    0  0.57325512642E+02 -0.51293788636E+02 -0.42287829869E+02  0.87781135259E+02  0.00000000000E+00 0. -1.
         -5    1    5    5    0  502 -0.48438681287E+02  0.25039981268E+02  0.42396701518E+02  0.69230605994E+02  0.47000000000E+01 0.  1.
         13    1    6    6    0    0 -0.39025510507E+02  0.16500284258E+01 -0.14870988395E+02  0.41795446642E+02  0.00000000000E+00 0. -1.
        -14    1    6    6    0    0  0.21463355573E+02  0.40753173636E+02 -0.72484081790E+02  0.85880375562E+02  0.00000000000E+00 0.  1.
</event>
<event>
12    1  0.8406581E-002  0.2192765E+03  0.7818608E-02  0.1135802E+00
         21   -1    0    0  501  502  0.00000000000E+00  0.00000000000E+00  0.12434093436E+04  0.12434093436E+04  0.00000000000E+00 0. -1.
         21   -1    0    0  502  503 -0.00000000000E+00 -0.00000000000E+00 -0.37407954439E+02  0.37407954439E+02  0.00000000000E+00 0.  1.
         -6    2    1    2    0  503 -0.14040806358E+02  0.13472011516E+03  0.58662046888E+03  0.62376713932E+03  0.16314170503E+03 0.  0.
        -24    2    3    3    0    0  0.29023814224E+02  0.13343016403E+03  0.52573740532E+03  0.54903386060E+03  0.79952299989E+02 0.  0.
          6    2    1    2  501    0  0.14040806358E+02 -0.13472011516E+03  0.61938092033E+03  0.65705015876E+03  0.17243994024E+03 0.  0.
         24    2    5    5    0    0  0.44157256503E+02 -0.12256043493E+03  0.32821598251E+03  0.36404167867E+03  0.88485530562E+02 0.  0.
          5    1    5    5  501    0 -0.30116450145E+02 -0.12159680228E+02  0.29116493782E+03  0.29300848009E+03  0.47000000000E+01 0. -1.
        -11    1    6    6    0    0  0.27441825835E+02 -0.50269834670E+02  0.49758968485E+02  0.75868735508E+02  0.00000000000E+00 0.  1.
         12    1    6    6    0    0  0.16715430668E+02 -0.72290600261E+02  0.27845701403E+03  0.28817294316E+03  0.00000000000E+00 0. -1.
         -5    1    3    3    0  503 -0.43064620582E+02  0.12899511322E+01  0.60883063559E+02  0.74733278719E+02  0.47000000000E+01 0.  1.
         13    1    4    4    0    0  0.63522943665E+01  0.11707208881E+03  0.30890498206E+03  0.33040658826E+03  0.00000000000E+00 0. -1.
        -14    1    4    4    0    0  0.22671519858E+02  0.16358075217E+02  0.21683242326E+03  0.21862727235E+03  0.00000000000E+00 0.  1.
</event>
<event>
12    1  0.8406581E-002  0.1820164E+03  0.7818608E-02  0.1166755E+00
         21   -1    0    0  501  502  0.00000000000E+00  0.00000000000E+00  0.14115301808E+03  0.14115301808E+03  0.00000000000E+00 0. -1.
         21   -1    0    0  502  503 -0.00000000000E+00 -0.00000000000E+00 -0.27488787232E+03  0.27488787232E+03  0.00000000000E+00 0. -1.
         -6    2    1    2    0  503 -0.42888672334E+02 -0.38107872739E+02 -0.15037243200E+03  0.23326568019E+03  0.16884715299E+03 0.  0.
        -24    2    3    3    0    0  0.84003334040E+01 -0.12212973791E+02 -0.15557264525E+03  0.17538442141E+03  0.79606061274E+02 0.  0.
          6    2    1    2  501    0  0.42888672334E+02  0.38107872739E+02  0.16637577762E+02  0.18277521021E+03  0.17273772111E+03 0.  0.
         24    2    5    5    0    0  0.57881285457E+02  0.74037882619E+02 -0.26534940772E+02  0.12445111215E+03  0.77150015967E+02 0.  0.
          5    1    5    5  501    0 -0.14992613123E+02 -0.35930009879E+02  0.43172518533E+02  0.58324098062E+02  0.47000000000E+01 0. -1.
        -13    1    6    6    0    0  0.12228117729E+01  0.49096672802E+02 -0.37230726451E+02  0.61628772022E+02  0.00000000000E+00 0.  1.
         14    1    6    6    0    0  0.56658473684E+02  0.24941209817E+02  0.10695785680E+02  0.62822340124E+02  0.00000000000E+00 0. -1.
         -5    1    3    3    0  503 -0.51289005738E+02 -0.25894898948E+02  0.52002132552E+01  0.57881258789E+02  0.47000000000E+01 0.  1.
         11    1    4    4    0    0  0.19514130016E+02 -0.30492986345E+02 -0.27305632271E+02  0.45345573546E+02  0.00000000000E+00 0. -1.
        -12    1    4    4    0    0 -0.11113796612E+02  0.18280012554E+02 -0.12826701298E+03  0.13003884786E+03  0.00000000000E+00 0.  1.
</event>
<event>
12    1  0.8406581E-002  0.2450046E+03  0.7818608E-02  0.1116639E+00
         21   -1    0    0  503  502  0.00000000000E+00  0.00000000000E+00  0.53545485855E+03  0.53545485855E+03  0.00000000000E+00 0. -1.
         21   -1    0    0  501  503 -0.00000000000E+00 -0.00000000000E+00 -0.30179336686E+03  0.30179336686E+03  0.00000000000E+00 0. -1.
          6    2    1    2  501    0  0.19700489608E+02 -0.17330296179E+03 -0.21531504974E+03  0.32617147798E+03  0.17206172307E+03 0.  0.
         24    2    3    3    0    0  0.28175387726E+02 -0.15004684016E+03 -0.83548014678E+02  0.19201741497E+03  0.81132670248E+02 0.  0.
         -6    2    1    2    0  502 -0.19700489608E+02  0.17330296179E+03  0.44897654142E+03  0.51107674744E+03  0.17087270457E+03 0.  0.
        -24    2    5    5    0    0 -0.57287497299E+02  0.18023884180E+03  0.36520788771E+03  0.41888039760E+03  0.79473824665E+02 0.  0.
          5    1    3    3  501    0 -0.84748981180E+01 -0.23256121630E+02 -0.13176703506E+03  0.13415406300E+03  0.47000000000E+01 0. -1.
        -11    1    4    4    0    0  0.13234115552E+02 -0.11130477139E+02  0.13469412820E+02  0.21919270460E+02  0.00000000000E+00 0.  1.
         12    1    4    4    0    0  0.14941272173E+02 -0.13891636302E+03 -0.97017427497E+02  0.17009814451E+03  0.00000000000E+00 0. -1.
         -5    1    5    5    0  502  0.37587007691E+02 -0.69358800110E+01  0.83768653706E+02  0.92196349833E+02  0.47000000000E+01 0.  1.
         11    1    6    6    0    0 -0.52486754199E+02  0.13085161592E+03  0.18883241443E+03  0.23565798415E+03  0.00000000000E+00 0. -1.
        -12    1    6    6    0    0 -0.48007430994E+01  0.49387225880E+02  0.17637547328E+03  0.18322241345E+03  0.00000000000E+00 0.  1.
</event>
<event>
12    1  0.8406581E-002  0.3603478E+03  0.7818608E-02  0.1058551E+00
         21   -1    0    0  503  502  0.00000000000E+00  0.00000000000E+00  0.13546859658E+03  0.13546859658E+03  0.00000000000E+00 0.  1.
         21   -1    0    0  501  503 -0.00000000000E+00 -0.00000000000E+00 -0.10690624548E+04  0.10690624548E+04  0.00000000000E+00 0. -1.
          6    2    1    2  501    0 -0.14479972653E+03  0.28050059575E+03 -0.27007060607E+03  0.44947232608E+03  0.17157999483E+03 0.  0.
         24    2    3    3    0    0 -0.23069424991E+02  0.16933547892E+03 -0.10407476352E+03  0.21547946453E+03  0.79957116262E+02 0.  0.
         -6    2    1    2    0  502  0.14479972653E+03 -0.28050059575E+03 -0.66352325214E+03  0.75505872529E+03  0.17379018238E+03 0.  0.
        -24    2    5    5    0    0  0.70566772351E+02 -0.20712256908E+03 -0.31697871670E+03  0.39310559114E+03  0.78594344315E+02 0.  0.
          5    1    3    3  501    0 -0.12173030154E+03  0.11116511684E+03 -0.16599584254E+03  0.23399286155E+03  0.47000000000E+01 0. -1.
        -13    1    4    4    0    0 -0.36127335513E+02  0.38474126907E+02 -0.98285031173E+01  0.53684655964E+02  0.00000000000E+00 0.  1.
         14    1    4    4    0    0  0.13057910522E+02  0.13086135201E+03 -0.94246260407E+02  0.16179480856E+03  0.00000000000E+00 0. -1.
         -5    1    5    5    0  502  0.74232954177E+02 -0.73378026671E+02 -0.34654453544E+03  0.36195313416E+03  0.47000000000E+01 0.  1.
         11    1    6    6    0    0  0.51325989330E+02 -0.83009559851E+02 -0.19482738706E+03  0.21790515128E+03  0.00000000000E+00 0. -1.
        -12    1    6    6    0    0  0.19240783021E+02 -0.12411300923E+03 -0.12215132964E+03  0.17520043986E+03  0.00000000000E+00 0.  1.
</event>
<event>
12    1  0.8406581E-002  0.2083912E+03  0.7818608E-02  0.1145227E+00
         21   -1    0    0  501  502  0.00000000000E+00  0.00000000000E+00  0.74290893474E+03  0.74290893474E+03  0.00000000000E+00 0. -1.
         21   -1    0    0  502  503 -0.00000000000E+00 -0.00000000000E+00 -0.84826854460E+02  0.84826854460E+02  0.00000000000E+00 0. -1.
         -6    2    1    2    0  503  0.95599870633E+02  0.86267912117E+01  0.90876432020E+02  0.22734424585E+03  0.18496789838E+03 0.  0.
        -24    2    3    3    0    0  0.12577249948E+03 -0.23553714043E+02  0.31944222510E+02  0.15358065207E+03  0.78696151540E+02 0.  0.
          6    2    1    2  501    0 -0.95599870633E+02 -0.86267912117E+01  0.56720564826E+03  0.60039154335E+03  0.17185459296E+03 0.  0.
         24    2    5    5    0    0 -0.43348462888E+02 -0.21371489949E+02  0.51989679687E+03  0.52860815824E+03  0.82450444231E+02 0.  0.
          5    1    5    5  501    0 -0.52251407745E+02  0.12744698737E+02  0.47308851391E+02  0.71783385105E+02  0.47000000000E+01 0. -1.
        -11    1    6    6    0    0 -0.43581931680E+02  0.12550072246E+02  0.13917651262E+03  0.14637961179E+03  0.00000000000E+00 0.  1.
         12    1    6    6    0    0  0.23346879165E+00 -0.33921562195E+02  0.38072028425E+03  0.38222854646E+03  0.00000000000E+00 0. -1.
         -5    1    3    3    0  503 -0.30172628844E+02  0.32180505254E+02  0.58932209510E+02  0.73763593781E+02  0.47000000000E+01 0.  1.
         11    1    4    4    0    0  0.73212357137E+02 -0.51660982054E+02  0.27868231567E+02  0.93837863547E+02  0.00000000000E+00 0. -1.
        -12    1    4    4    0    0  0.52560142340E+02  0.28107268011E+02  0.40759909434E+01  0.59742788519E+02  0.00000000000E+00 0.  1.
</event>
<event>
12    1  0.8406581E-002  0.2270034E+03  0.7818608E-02  0.1128796E+00
         21   -1    0    0  501  502  0.00000000000E+00  0.00000000000E+00  0.29491454030E+03  0.29491454030E+03  0.00000000000E+00 0. -1.
         21   -1    0    0  502  503 -0.00000000000E+00 -0.00000000000E+00 -0.24932140245E+03  0.24932140245E+03  0.00000000000E+00 0.  1.
         -6    2    1    2    0  503 -0.13857938452E+03 -0.54005922809E+02 -0.12617226441E+03  0.25957144058E+03  0.17128049201E+03 0.  0.
        -24    2    3    3    0    0 -0.33602775581E+02  0.31769353852E+02 -0.49006982276E+02  0.10351357542E+03  0.78580771270E+02 0.  0.
          6    2    1    2  501    0  0.13857938452E+03  0.54005922809E+02  0.17176540227E+03  0.28466450217E+03  0.17149239012E+03 0.  0.
         24    2    5    5    0    0  0.87801444308E+02  0.97351645817E+01  0.18115246380E+03  0.21648454786E+03  0.79028332057E+02 0.  0.
          5    1    5    5  501    0  0.50777940210E+02  0.44270758227E+02 -0.93870615341E+01  0.68179954314E+02  0.47000000000E+01 0. -1.
        -13    1    6    6    0    0  0.19845765856E+02 -0.32639557365E+02  0.52119859012E+02  0.64619461703E+02  0.00000000000E+00 0.  1.
         14    1    6    6    0    0  0.67955678452E+02  0.42374721947E+02  0.12903260479E+03  0.15186508616E+03  0.00000000000E+00 0. -1.
         -5    1    3    3    0  503 -0.10497660894E+03 -0.85775276661E+02 -0.77165282137E+02  0.15605786516E+03  0.47000000000E+01 0.  1.
         11    1    4    4    0    0 -0.57953985584E+02  0.32923723101E+02 -0.33251736018E+02  0.74487005150E+02  0.00000000000E+00 0. -1.
        -12    1    4    4    0    0  0.24351210004E+02 -0.11543692484E+01 -0.15755246258E+02  0.29026570270E+02  0.00000000000E+00 0.  1.
</event>
<event>
12    1  0.8406581E-002  0.1735560E+03  0.7818608E-02  0.1174627E+00
         21   -1    0    0  501  502  0.00000000000E+00  0.00000000000E+00  0.68582265284E+02  0.68582265284E+02  0.00000000000E+00 0.  1.
         21   -1    0    0  502  503 -0.00000000000E+00 -0.00000000000E+00 -0.43488431844E+03  0.43488431844E+03  0.00000000000E+00 0.  1.
         -6    2    1    2    0  503  0.95045604436E+00  0.49034828944E+01 -0.18345426588E+03  0.25136540049E+03  0.17176771927E+03 0.  0.
        -24    2    3    3    0    0  0.45434003695E+02  0.60543593952E+02 -0.68171950484E+02  0.11576779648E+03  0.54999930996E+02 0.  0.
          6    2    1    2  501    0 -0.95045604436E+00 -0.49034828944E+01 -0.18284778728E+03  0.25210118324E+03  0.17348413692E+03 0.  0.
         24    2    5    5    0    0 -0.23884882465E+02  0.53550213759E+02 -0.70139565635E+02  0.12299635840E+03  0.82282637959E+02 0.  0.
          5    1    5    5  501    0  0.22934426420E+02 -0.58453696653E+02 -0.11270822165E+03  0.12910482483E+03  0.47000000000E+01 0. -1.
        -13    1    6    6    0    0 -0.20522921681E+02  0.66912772312E+02 -0.22672852318E+02  0.73570154581E+02  0.00000000000E+00 0.  1.
         14    1    6    6    0    0 -0.33619607840E+01 -0.13362558553E+02 -0.47466713316E+02  0.49426203824E+02  0.00000000000E+00 0. -1.
         -5    1    3    3    0  503 -0.44483547650E+02 -0.55640111057E+02 -0.11528231539E+03  0.13559760401E+03  0.47000000000E+01 0.  1.
         11    1    4    4    0    0  0.84755591743E+01  0.17770916878E+02  0.77104191182E+01  0.21144530096E+02  0.00000000000E+00 0. -1.
        -12    1    4    4    0    0  0.36958444521E+02  0.42772677074E+02 -0.75882369603E+02  0.94623266388E+02  0.00000000000E+00 0.  1.
</event>
<event>
12    1  0.8406581E-002  0.2406430E+03  0.7818608E-02  0.1119640E+00
         21   -1    0    0  503  502  0.00000000000E+00  0.00000000000E+00  0.15364158737E+03  0.15364158737E+03  0.00000000000E+00 0.  1.
         21   -1    0    0  501  503 -0.00000000000E+00 -0.00000000000E+00 -0.41990044210E+03  0.41990044210E+03  0.00000000000E+00 0. -1.
          6    2    1    2  501    0 -0.89944995749E+00  0.16643205456E+03 -0.22800911976E+03  0.33150750773E+03  0.17380630367E+03 0.  0.
         24    2    3    3    0    0  0.27859634228E+02  0.97866607769E+02 -0.48185723832E+02  0.13686206304E+03  0.77815989258E+02 0.  0.
         -6    2    1    2    0  502  0.89944995749E+00 -0.16643205456E+03 -0.38249734976E+02  0.24203452173E+03  0.17151451743E+03 0.  0.
        -24    2    5    5    0    0  0.23206944912E+02 -0.98747166693E+02 -0.86654267847E+02  0.15575615144E+03  0.80383153427E+02 0.  0.
          5    1    3    3  501    0 -0.28759084185E+02  0.68565446793E+02 -0.17982339592E+03  0.19464544469E+03  0.47000000000E+01 0. -1.
        -11    1    4    4    0    0  0.11134175391E+02  0.61923517178E+01  0.18364272874E+02  0.22350874695E+02  0.00000000000E+00 0.  1.
         12    1    4    4    0    0  0.16725458837E+02  0.91674256051E+02 -0.66549996706E+02  0.11451118835E+03  0.00000000000E+00 0. -1.
         -5    1    5    5    0  502 -0.22307494955E+02 -0.67684887869E+02  0.48404532871E+02  0.86278370287E+02  0.47000000000E+01 0.  1.
         11    1    6    6    0    0  0.22538653445E+02 -0.25139353018E+02 -0.73629692981E+02  0.81001911446E+02  0.00000000000E+00 0. -1.
        -12    1    6    6    0    0  0.66829146713E+00 -0.73607813674E+02 -0.13024574865E+02  0.74754239999E+02  0.00000000000E+00 0.  1.
</event>
<event>
12    1  0.8406581E-002  0.4642011E+03  0.7818608E-02  0.1023583E+00
         21   -1    0    0  503  502  0.00000000000E+00  0.00000000000E+00  0.73110465961E+03  0.73110465961E+03  0.00000000000E+00 0. -1.
         21   -1    0    0  501  503 -0.00000000000E+00 -0.00000000000E+00 -0.29644590430E+03  0.29644590430E+03  0.00000000000E+00 0.  1.
          6    2    1    2  501    0  0.42029752981E+03 -0.97285016724E+02  0.17698860107E+03  0.49663011347E+03  0.17088626818E+03 0.  0.
         24    2    3    3    0    0  0.20287392633E+03 -0.15709026944E+02  0.24897969114E+02  0.21899489275E+03  0.77034087713E+02 0.  0.
         -6    2    1    2    0  502 -0.42029752981E+03  0.97285016724E+02  0.25767015424E+03  0.53092045044E+03  0.17137160871E+03 0.  0.
        -24    2    5    5    0    0 -0.19588088780E+03  0.90543172333E+02  0.18497419717E+03  0.29488004321E+03  0.78558245913E+02 0.  0.
          5    1    3    3  501    0  0.21742360347E+03 -0.81575989780E+02  0.15209063196E+03  0.27763522072E+03  0.47000000000E+01 0. -1.
        -13    1    4    4    0    0  0.20596544508E+03 -0.15836486596E+02  0.34025788991E+02  0.20935690386E+03  0.00000000000E+00 0.  1.
         14    1    4    4    0    0 -0.30915187494E+01  0.12745965185E+00 -0.91278198772E+01  0.96379888904E+01  0.00000000000E+00 0. -1.
         -5    1    5    5    0  502 -0.22441664200E+03  0.67418443907E+01  0.72695957070E+02  0.23604040724E+03  0.47000000000E+01 0. -1.
         11    1    6    6    0    0 -0.77866279868E+02  0.78616423595E+02  0.97783359429E+02  0.14766612672E+03  0.00000000000E+00 0. -1.
        -12    1    6    6    0    0 -0.11801460794E+03  0.11926748738E+02  0.87190837739E+02  0.14721391649E+03  0.00000000000E+00 0.  1.
</event>
<event>
12    1  0.8406581E-002  0.4525321E+03  0.7818608E-02  0.1026996E+00
         21   -1    0    0  503  502  0.00000000000E+00  0.00000000000E+00  0.23757014526E+03  0.23757014526E+03  0.00000000000E+00 0.  1.
         21   -1    0    0  501  503 -0.00000000000E+00 -0.00000000000E+00 -0.12986320698E+04  0.12986320698E+04  0.00000000000E+00 0. -1.
          6    2    1    2  501    0 -0.32389073586E+03  0.26489321235E+03 -0.97638902928E+03  0.10761602221E+04  0.17237071769E+03 0.  0.
         24    2    3    3    0    0 -0.28416055896E+03  0.25972887347E+03 -0.75602082581E+03  0.85213033018E+03  0.79701314796E+02 0.  0.
         -6    2    1    2    0  502  0.32389073586E+03 -0.26489321235E+03 -0.84672895292E+02  0.46004199304E+03  0.17145119842E+03 0.  0.
        -24    2    5    5    0    0  0.16103213666E+03 -0.21303407659E+03 -0.28746808969E+02  0.28014727264E+03  0.79631956642E+02 0.  0.
          5    1    3    3  501    0 -0.39730176898E+02  0.51643388826E+01 -0.22036820347E+03  0.22402989187E+03  0.47000000000E+01 0. -1.
        -13    1    4    4    0    0 -0.24641588558E+03  0.20419052208E+03 -0.56084179380E+03  0.64572290934E+03  0.00000000000E+00 0.  1.
         14    1    4    4    0    0 -0.37744673384E+02  0.55538351384E+02 -0.19517903201E+03  0.20640742085E+03  0.00000000000E+00 0. -1.
         -5    1    5    5    0  502  0.16285859920E+03 -0.51859135762E+02 -0.55926086323E+02  0.17989472040E+03  0.47000000000E+01 0.  1.
         11    1    6    6    0    0  0.25184329895E+02 -0.49920787240E+02 -0.38109950647E+02  0.67666120099E+02  0.00000000000E+00 0. -1.
        -12    1    6    6    0    0  0.13584780676E+03 -0.16311328935E+03  0.93631416779E+01  0.21248115254E+03  0.00000000000E+00 0.  1.
</event>
<event>
12    1  0.8406581E-002  0.2136099E+03  0.7818608E-02  0.1138806E+00
         21   -1    0    0  503  502  0.00000000000E+00  0.00000000000E+00  0.52395745082E+02  0.52395745082E+02  0.00000000000E+00 0. -1.
         21   -1    0    0  501  503 -0.00000000000E+00 -0.00000000000E+00 -0.91760543614E+03  0.91760543614E+03  0.00000000000E+00 0. -1.
          6    2    1    2  501    0 -0.13261089055E+02 -0.12724255399E+03 -0.54338433937E+03  0.58373605557E+03  0.17063035564E+03 0.  0.
         24    2    3    3    0    0 -0.25001084734E+02 -0.19635147208E+02 -0.12440472336E+03  0.15097377657E+03  0.79410029422E+02 0.  0.
         -6    2    1    2    0  502  0.13261089055E+02  0.12724255399E+03 -0.32182535169E+03  0.38626512566E+03  0.17106333997E+03 0.  0.
        -24    2    5    5    0    0  0.73688633321E+02  0.95555834094E+02 -0.23303961888E+03  0.27419134338E+03  0.79451222179E+02 0.  0.
          5    1    3    3  501    0  0.11739995679E+02 -0.10760740678E+03 -0.41897961601E+03  0.43276227900E+03  0.47000000000E+01 0. -1.
        -13    1    4    4    0    0  0.34058712142E+01  0.25660824852E+02 -0.70271820029E+02  0.74887960187E+02  0.00000000000E+00 0.  1.
         14    1    4    4    0    0 -0.28406955948E+02 -0.45295972060E+02 -0.54132903331E+02  0.76085816380E+02  0.00000000000E+00 0. -1.
         -5    1    5    5    0  502 -0.60427544266E+02  0.31686719896E+02 -0.88785732810E+02  0.11207378228E+03  0.47000000000E+01 0.  1.
         11    1    6    6    0    0  0.27187740165E+02  0.50773787689E+02 -0.38648085279E+02  0.69360112654E+02  0.00000000000E+00 0. -1.
        -12    1    6    6    0    0  0.46500893156E+02  0.44782046405E+02 -0.19439153360E+03  0.20483123072E+03  0.00000000000E+00 0.  1.
</event>
<event>
12    1  0.8406581E-002  0.2059324E+03  0.7818608E-02  0.1145579E+00
         21   -1    0    0  501  502  0.00000000000E+00  0.00000000000E+00  0.22112928285E+04  0.22112928285E+04  0.00000000000E+00 0.  1.
         21   -1    0    0  502  503 -0.00000000000E+00 -0.00000000000E+00 -0.45205847756E+02  0.45205847756E+02  0.00000000000E+00 0.  1.
         -6    2    1    2    0  503 -0.60518163459E+02  0.86925780476E+02  0.21733588443E+03  0.29689693355E+03  0.17232052423E+03 0.  0.
        -24    2    3    3    0    0 -0.54799248795E+02 -0.20839207713E+02  0.79500229398E+02  0.12177767001E+03  0.71219970464E+02 0.  0.
          6    2    1    2  501    0  0.60518163459E+02 -0.86925780476E+02  0.19487510963E+04  0.19596017427E+04  0.17660581871E+03 0.  0.
         24    2    5    5    0    0  0.73969918193E+02 -0.15132892996E+02  0.15748917729E+04  0.15786449839E+04  0.78328382453E+02 0.  0.
          5    1    5    5  501    0 -0.13451754734E+02 -0.71792887480E+02  0.37385932341E+03  0.38095675883E+03  0.47000000000E+01 0. -1.
        -11    1    6    6    0    0  0.11353850882E+02 -0.37485219513E+02  0.77764716906E+03  0.77863288600E+03  0.00000000000E+00 0.  1.
         12    1    6    6    0    0  0.62616067310E+02  0.22352326517E+02  0.79724460384E+03  0.80001209787E+03  0.00000000000E+00 0. -1.
         -5    1    3    3    0  503 -0.57189146639E+01  0.10776498819E+03  0.13783565503E+03  0.17511926354E+03  0.47000000000E+01 0.  1.
         11    1    4    4    0    0 -0.64937700889E+02 -0.15204701261E+02  0.85725458090E+02  0.10861372888E+03  0.00000000000E+00 0. -1.
        -12    1    4    4    0    0  0.10138452094E+02 -0.56345064515E+01 -0.62252286920E+01  0.13163941130E+02  0.00000000000E+00 0.  1.
</event>
<event>
12    1  0.8406581E-002  0.2755609E+03  0.7818608E-02  0.1098201E+00
         21   -1    0    0  501  502  0.00000000000E+00  0.00000000000E+00  0.32947340417E+03  0.32947340417E+03  0.00000000000E+00 0. -1.
         21   -1    0    0  502  503 -0.00000000000E+00 -0.00000000000E+00 -0.27067924026E+03  0.27067924026E+03  0.00000000000E+00 0.  1.
         -6    2    1    2    0  503 -0.17705093320E+03  0.12259245615E+03 -0.86773587880E+02  0.28890046926E+03  0.17192405979E+03 0.  0.
        -24    2    3    3    0    0 -0.33210078200E+02  0.94004723527E+02 -0.26973345344E+02  0.13045297313E+03  0.79690774239E+02 0.  0.
          6    2    1    2  501    0  0.17705093320E+03 -0.12259245615E+03  0.14556775179E+03  0.31125217516E+03  0.17120748504E+03 0.  0.
         24    2    5    5    0    0  0.12784542479E+03 -0.10851792159E+03  0.27954746578E+02  0.18290037901E+03  0.67457311240E+02 0.  0.
          5    1    5    5  501    0  0.49205508410E+02 -0.14074534555E+02  0.11761300521E+03  0.12835179615E+03  0.47000000000E+01 0. -1.
        -13    1    6    6    0    0  0.30803565025E+02 -0.16879342311E+02 -0.20777589971E+02  0.40810293555E+02  0.00000000000E+00 0.  1.
         14    1    6    6    0    0  0.97041859765E+02 -0.91638579279E+02  0.48732336549E+02  0.14209008545E+03  0.00000000000E+00 0. -1.
         -5    1    3    3    0  503 -0.14384085500E+03  0.28587732618E+02 -0.59800242535E+02  0.15844749613E+03  0.47000000000E+01 0.  1.
         13    1    4    4    0    0 -0.97991459372E+01  0.79659729406E+01  0.24451232452E+02  0.27519861090E+02  0.00000000000E+00 0. -1.
        -14    1    4    4    0    0 -0.23410932263E+02  0.86038750587E+02 -0.51424577796E+02  0.10293311204E+03  0.00000000000E+00 0.  1.
</event>
<event>
12    1  0.8406581E-002  0.1944435E+03  0.7818608E-02  0.1155254E+00
         21   -1    0    0  501  502  0.00000000000E+00  0.00000000000E+00  0.15992080742E+03  0.15992080742E+03  0.00000000000E+00 0.  1.
         21   -1    0    0  502  503 -0.00000000000E+00 -0.00000000000E+00 -0.38488785160E+03  0.38488785160E+03  0.00000000000E+00 0.  1.
         -6    2    1    2    0  503  0.52166546914E+02  0.63558194854E+02 -0.28455199218E+03  0.34464200379E+03  0.17620238866E+03 0.  0.
        -24    2    3    3    0    0  0.81523925597E+02  0.66251365297E+02 -0.12286916399E+03  0.18022626311E+03  0.79682373249E+02 0.  0.
          6    2    1    2  501    0 -0.52166546914E+02 -0.63558194854E+02  0.59584947997E+02  0.20016665523E+03  0.17249733647E+03 0.  0.
         24    2    5    5    0    0 -0.69972306763E+02 -0.10094895025E+03  0.30142858806E+02  0.14913685718E+03  0.79034144284E+02 0.  0.
          5    1    5    5  501    0  0.17805759850E+02  0.37390755395E+02  0.29442089191E+02  0.51029798048E+02  0.47000000000E+01 0. -1.
        -13    1    6    6    0    0 -0.25994244181E+02 -0.29845926737E+02  0.49443391016E+02  0.63333474470E+02  0.00000000000E+00 0.  1.
         14    1    6    6    0    0 -0.43978062583E+02 -0.71103023512E+02 -0.19300532210E+02  0.85803382711E+02  0.00000000000E+00 0. -1.
         -5    1    3    3    0  503 -0.29357378684E+02 -0.26931704426E+01 -0.16168282819E+03  0.16441574068E+03  0.47000000000E+01 0.  1.
         13    1    4    4    0    0  0.72744125557E+02  0.22107452258E+02 -0.10943905500E+03  0.13325672219E+03  0.00000000000E+00 0. -1.
        -14    1    4    4    0    0  0.87798000408E+01  0.44143913038E+02 -0.13430108988E+02  0.46969540923E+02  0.00000000000E+00 0.  1.
</event>
<event>
12    1  0.8406581E-002  0.1753216E+03  0.7818608E-02  0.1172463E+00
         21   -1    0    0  503  502  0.00000000000E+00  0.00000000000E+00  0.18319475393E+03  0.18319475393E+03  0.00000000000E+00 0. -1.
         21   -1    0    0  501  503 -0.00000000000E+00 -0.00000000000E+00 -0.25146424713E+03  0.25146424713E+03  0.00000000000E+00 0. -1.
          6    2    1    2  501    0 -0.28436667881E+02 -0.36043700926E+01 -0.15964224697E+03  0.23695554812E+03  0.17274446215E+03 0.  0.
         24    2    3    3    0    0  0.26187850732E+02  0.10085025942E+02 -0.15892129131E+03  0.18044141383E+03  0.80719363963E+02 0.  0.
         -6    2    1    2    0  502  0.28436667881E+02  0.36043700926E+01  0.91372753768E+02  0.19770345294E+03  0.17296253816E+03 0.  0.
        -24    2    5    5    0    0  0.82144329181E+01 -0.88239471990E+01 -0.19284633048E+02  0.84431439116E+02  0.81310712007E+02 0.  0.
          5    1    3    3  501    0 -0.54624518613E+02 -0.13689396035E+02 -0.72095566120E+00  0.56514134290E+02  0.47000000000E+01 0. -1.
        -13    1    4    4    0    0  0.45703784283E+02  0.31547690248E+02 -0.91345281914E+02  0.10690207288E+03  0.00000000000E+00 0.  1.
         14    1    4    4    0    0 -0.19515933552E+02 -0.21462664305E+02 -0.67576009395E+02  0.73539340949E+02  0.00000000000E+00 0. -1.
         -5    1    5    5    0  502  0.20222234963E+02  0.12428317292E+02  0.11065738682E+03  0.11327201382E+03  0.47000000000E+01 0.  1.
         11    1    6    6    0    0  0.11461490171E+02  0.35437026413E+02 -0.13777841360E+02  0.39711176141E+02  0.00000000000E+00 0. -1.
        -12    1    6    6    0    0 -0.32470572527E+01 -0.44260973612E+02 -0.55067916878E+01  0.44720262975E+02  0.00000000000E+00 0.  1.
</event>
<event>
12    1  0.8406581E-002  0.2607683E+03  0.7818608E-02  0.1107261E+00
         21   -1    0    0  501  502  0.00000000000E+00  0.00000000000E+00  0.31256450798E+03  0.31256450798E+03  0.00000000000E+00 0. -1.
         21   -1    0    0  502  503 -0.00000000000E+00 -0.00000000000E+00 -0.24030191654E+03  0.24030191654E+03  0.00000000000E+00 0.  1.
         -6    2    1    2    0  503 -0.19509558523E+03 -0.30432827286E+02 -0.54919358885E+02  0.26273653480E+03  0.16439557898E+03 0.  0.
        -24    2    3    3    0    0 -0.17030193648E+03 -0.37071037075E+01 -0.92506772292E+02  0.21016379505E+03  0.81208531828E+02 0.  0.
          6    2    1    2  501    0  0.19509558523E+03  0.30432827286E+02  0.12718195033E+03  0.29012988972E+03  0.17032809536E+03 0.  0.
         24    2    5    5    0    0  0.16162505207E+03 -0.33062650751E+02  0.11649211746E+03  0.21740908907E+03  0.80501566734E+02 0.  0.
          5    1    5    5  501    0  0.33470533156E+02  0.63495478038E+02  0.10689832863E+02  0.72720800653E+02  0.47000000000E+01 0. -1.
        -13    1    6    6    0    0  0.14489034092E+03 -0.10186926021E+01  0.77812420736E+02  0.16446586712E+03  0.00000000000E+00 0.  1.
         14    1    6    6    0    0  0.16734711148E+02 -0.32043958149E+02  0.38679696728E+02  0.52943221947E+02  0.00000000000E+00 0. -1.
         -5    1    3    3    0  503 -0.24793648743E+02 -0.26725723579E+02  0.37587413407E+02  0.52572739756E+02  0.47000000000E+01 0.  1.
         13    1    4    4    0    0 -0.18328342835E+02 -0.15875172641E+02  0.10231840257E+02  0.26318051078E+02  0.00000000000E+00 0. -1.
        -14    1    4    4    0    0 -0.15197359365E+03  0.12168068934E+02 -0.10273861255E+03  0.18384574397E+03  0.00000000000E+00 0.  1.
</event>
<event>
12    1  0.8406581E-002  0.3240966E+03  0.7818608E-02  0.1073853E+00
         21   -1    0    0  501  502  0.00000000000E+00  0.00000000000E+00  0.31977315053E+03  0.31977315053E+03  0.00000000000E+00 0. -1.
         21   -1    0    0  502  503 -0.00000000000E+00 -0.00000000000E+00 -0.33681798914E+03  0.33681798914E+03  0.00000000000E+00 0.  1.
         -6    2    1    2    0  503 -0.53599444703E+01 -0.27474388714E+03 -0.62189188524E+02  0.33000923452E+03  0.17183034417E+03 0.  0.
        -24    2    3    3    0    0  0.61582943491E+02 -0.12741477012E+03 -0.36257711468E+02  0.16605268397E+03  0.78942318416E+02 0.  0.
          6    2    1    2  501    0  0.53599444703E+01  0.27474388714E+03  0.45144349915E+02  0.32658190514E+03  0.17060127758E+03 0.  0.
         24    2    5    5    0    0  0.15182625052E+02  0.45518663252E+02  0.17663134607E+02  0.95458571153E+02  0.80609501144E+02 0.  0.
          5    1    5    5  501    0 -0.98226805815E+01  0.22922522389E+03  0.27481215308E+02  0.23112333399E+03  0.47000000000E+01 0. -1.
        -11    1    6    6    0    0  0.17195845963E+02  0.59732583978E+02 -0.11258653500E+02  0.63169897781E+02  0.00000000000E+00 0.  1.
         12    1    6    6    0    0 -0.20132209109E+01 -0.14213920726E+02  0.28921788106E+02  0.32288673372E+02  0.00000000000E+00 0. -1.
         -5    1    3    3    0  503 -0.66942887961E+02 -0.14732911701E+03 -0.25931477055E+02  0.16395655056E+03  0.47000000000E+01 0.  1.
         13    1    4    4    0    0  0.14359763605E+02 -0.54427239390E+02  0.23039889101E+02  0.60822394627E+02  0.00000000000E+00 0. -1.
        -14    1    4    4    0    0  0.47223179886E+02 -0.72987530735E+02 -0.59297600570E+02  0.10523028934E+03  0.00000000000E+00 0.  1.
</event>
<event>
12    1  0.8406581E-002  0.2032132E+03  0.7818608E-02  0.1147083E+00
         21   -1    0    0  501  502  0.00000000000E+00  0.00000000000E+00  0.23170726298E+03  0.23170726298E+03  0.00000000000E+00 0.  1.
         21   -1    0    0  502  503 -0.00000000000E+00 -0.00000000000E+00 -0.17988055680E+03  0.17988055680E+03  0.00000000000E+00 0.  1.
         -6    2    1    2    0  503 -0.75898968546E+02  0.76842112976E+02  0.54938529882E+01  0.20328743341E+03  0.17213434988E+03 0.  0.
        -24    2    3    3    0    0 -0.11662532050E+03  0.58140942708E+02  0.22877542636E+02  0.15498989539E+03  0.80725777279E+02 0.  0.
          6    2    1    2  501    0  0.75898968546E+02 -0.76842112976E+02  0.46332853192E+02  0.20830038637E+03  0.17197951600E+03 0.  0.
         24    2    5    5    0    0  0.10918982137E+03 -0.18835730496E+02  0.33978532378E+02  0.14012604711E+03  0.78762723300E+02 0.  0.
          5    1    5    5  501    0 -0.33290852825E+02 -0.58006382480E+02  0.12354320814E+02  0.68174339256E+02  0.47000000000E+01 0. -1.
        -11    1    6    6    0    0  0.48292239125E+02  0.82916131813E+01 -0.21391048461E+02  0.53464644048E+02  0.00000000000E+00 0.  1.
         12    1    6    6    0    0  0.60897582245E+02 -0.27127343677E+02  0.55369580839E+02  0.86661403062E+02  0.00000000000E+00 0. -1.
         -5    1    3    3    0  503  0.40726351950E+02  0.18701170268E+02 -0.17383689648E+02  0.48297538015E+02  0.47000000000E+01 0.  1.
         13    1    4    4    0    0 -0.20666992572E+02  0.53221165933E+02  0.11430581456E+02  0.58226070429E+02  0.00000000000E+00 0. -1.
        -14    1    4    4    0    0 -0.95958327924E+02  0.49197767752E+01  0.11446961181E+02  0.96763824965E+02  0.00000000000E+00 0.  1.
</event>
<event>
12    1  0.8406581E-002  0.1992281E+03  0.7818608E-02  0.1150437E+00
         21   -1    0    0  503  502  0.00000000000E+00  0.00000000000E+00  0.47139555246E+03  0.47139555246E+03  0.00000000000E+00 0. -1.
         21   -1    0    0  501  503 -0.00000000000E+00 -0.00000000000E+00 -0.14422897771E+03  0.14422897771E+03  0.00000000000E+00 0. -1.
          6    2    1    2  501    0  0.99609822303E+02  0.94043823823E+01 -0.35197769654E+02  0.20210336927E+03  0.17203583864E+03 0.  0.
         24    2    3    3    0    0  0.21029554307E+02  0.58008132578E+02 -0.42691021271E+02  0.10928407240E+03  0.79456274671E+02 0.  0.
         -6    2    1    2    0  502 -0.99609822303E+02 -0.94043823823E+01  0.36236434440E+03  0.41352116090E+03  0.17228253920E+03 0.  0.
        -24    2    5    5    0    0 -0.92291828109E+02 -0.29146203976E+02  0.37067412843E+03  0.39040330915E+03  0.75154185293E+02 0.  0.
          5    1    3    3  501    0  0.78580267996E+02 -0.48603750195E+02  0.74932516162E+01  0.92819296869E+02  0.47000000000E+01 0. -1.
        -11    1    4    4    0    0  0.31351427029E+02  0.71763780693E+02 -0.20026168458E+02  0.80833159157E+02  0.00000000000E+00 0.  1.
         12    1    4    4    0    0 -0.10321872723E+02 -0.13755648116E+02 -0.22664852813E+02  0.28450913247E+02  0.00000000000E+00 0. -1.
         -5    1    5    5    0  502 -0.73179941934E+01  0.19741821594E+02 -0.83097840292E+01  0.23117851748E+02  0.47000000000E+01 0.  1.
         13    1    6    6    0    0 -0.76926214555E+02  0.88161770175E+01  0.19052838440E+03  0.20566096549E+03  0.00000000000E+00 0. -1.
        -14    1    6    6    0    0 -0.15365613555E+02 -0.37962380993E+02  0.18014574403E+03  0.18474234366E+03  0.00000000000E+00 0.  1.
</event>
<event>
12    1  0.8406581E-002  0.2226725E+03  0.7818608E-02  0.1133298E+00
         21   -1    0    0  503  502  0.00000000000E+00  0.00000000000E+00  0.46026685086E+03  0.46026685086E+03  0.00000000000E+00 0.  1.
         21   -1    0    0  501  503 -0.00000000000E+00 -0.00000000000E+00 -0.10998280086E+03  0.10998280086E+03  0.00000000000E+00 0. -1.
          6    2    1    2  501    0  0.12715481582E+03 -0.24148677092E+02  0.11232802908E+03  0.24940057649E+03  0.18119480027E+03 0.  0.
         24    2    3    3    0    0  0.36260650276E+02  0.54971257886E+02  0.51851580644E+02  0.11448873766E+03  0.77989811405E+02 0.  0.
         -6    2    1    2    0  502 -0.12715481582E+03  0.24148677092E+02  0.23795602092E+03  0.32084907524E+03  0.17195800476E+03 0.  0.
        -24    2    5    5    0    0 -0.99637961654E+02  0.66136605061E+02  0.10515267503E+03  0.17879633139E+03  0.81297411517E+02 0.  0.
          5    1    3    3  501    0  0.90894165541E+02 -0.79119934979E+02  0.60476448437E+02  0.13491183883E+03  0.47000000000E+01 0. -1.
        -13    1    4    4    0    0  0.46036847952E+02  0.63136100609E+02  0.20699602607E+02  0.80833360178E+02  0.00000000000E+00 0.  1.
         14    1    4    4    0    0 -0.97761976763E+01 -0.81648427225E+01  0.31151978037E+02  0.33655377480E+02  0.00000000000E+00 0. -1.
         -5    1    5    5    0  502 -0.27516854163E+02 -0.41987927968E+02  0.13280334588E+03  0.14205274385E+03  0.47000000000E+01 0.  1.
         13    1    6    6    0    0 -0.10164357352E+03  0.27439975680E+02  0.83745597709E+02  0.13452766793E+03  0.00000000000E+00 0. -1.
        -14    1    6    6    0    0  0.20056118700E+01  0.38696629380E+02  0.21407077325E+02  0.44268663454E+02  0.00000000000E+00 0.  1.
</event>
<event>
12    1  0.8406581E-002  0.1827779E+03  0.7818608E-02  0.1167614E+00
         21   -1    0    0  501  502  0.00000000000E+00  0.00000000000E+00  0.45507401121E+03  0.45507401121E+03  0.00000000000E+00 0.  1.
         21   -1    0    0  502  503 -0.00000000000E+00 -0.00000000000E+00 -0.76332328279E+02  0.76332328279E+02  0.00000000000E+00 0.  1.
         -6    2    1    2    0  503  0.14375881564E+02  0.18330464221E+02  0.10446763224E+03  0.20180960773E+03  0.17108757903E+03 0.  0.
        -24    2    3    3    0    0  0.55512637272E+02  0.61181055701E+01  0.10439513392E+02  0.98345838668E+02  0.80273510144E+02 0.  0.
          6    2    1    2  501    0 -0.14375881564E+02 -0.18330464221E+02  0.27427405069E+03  0.32959673176E+03  0.18128728255E+03 0.  0.
         24    2    5    5    0    0 -0.84644783005E+01  0.62657437835E+02  0.15224997883E+03  0.18294766398E+03  0.79323324387E+02 0.  0.
          5    1    5    5  501    0 -0.59114032632E+01 -0.80987902056E+02  0.12202407186E+03  0.14664906778E+03  0.47000000000E+01 0. -1.
        -11    1    6    6    0    0  0.27941470687E+02  0.57400809975E+02  0.85114767192E+02  0.10639596968E+03  0.00000000000E+00 0.  1.
         12    1    6    6    0    0 -0.36405948987E+02  0.52566278606E+01  0.67135211637E+02  0.76551694296E+02  0.00000000000E+00 0. -1.
         -5    1    3    3    0  503 -0.41136755708E+02  0.12212358651E+02  0.94028118850E+02  0.10346376906E+03  0.47000000000E+01 0.  1.
         11    1    4    4    0    0  0.48048827428E+02  0.21210316586E+02  0.38844449988E+02  0.65325788490E+02  0.00000000000E+00 0. -1.
        -12    1    4    4    0    0  0.74638098433E+01 -0.15092211016E+02 -0.28404936597E+02  0.33020050179E+02  0.00000000000E+00 0.  1.
</event>
<event>
12    1  0.8406581E-002  0.4499640E+03  0.7818608E-02  0.1027807E+00
         21   -1    0    0  503  502  0.00000000000E+00  0.00000000000E+00  0.22149711845E+03  0.22149711845E+03  0.00000000000E+00 0.  1.
         21   -1    0    0  501  503 -0.00000000000E+00 -0.00000000000E+00 -0.93541038247E+03  0.93541038247E+03  0.00000000000E+00 0.  1.
          6    2    1    2  501    0  0.35595707164E+03  0.21135947224E+03 -0.26594685423E+03  0.52268091063E+03  0.17632169949E+03 0.  0.
         24    2    3    3    0    0  0.26639247722E+03  0.19268982377E+03 -0.26727449519E+03  0.43106090748E+03  0.79268720648E+02 0.  0.
         -6    2    1    2    0  502 -0.35595707164E+03 -0.21135947224E+03 -0.44796640979E+03  0.63422659030E+03  0.17375615150E+03 0.  0.
        -24    2    5    5    0    0 -0.35625859899E+03 -0.19192475528E+03 -0.37099951575E+03  0.55470431718E+03  0.79378446530E+02 0.  0.
          5    1    3    3  501    0  0.89564594419E+02  0.18669648465E+02  0.13276409626E+01  0.91620003153E+02  0.47000000000E+01 0. -1.
        -11    1    4    4    0    0  0.26191230853E+03  0.16786508451E+03 -0.23383105959E+03  0.38917053895E+03  0.00000000000E+00 0.  1.
         12    1    4    4    0    0  0.44801686890E+01  0.24824739260E+02 -0.33443435596E+02  0.41890368527E+02  0.00000000000E+00 0. -1.
         -5    1    5    5    0  502  0.30152735833E+00 -0.19434716962E+02 -0.76966894043E+02  0.79522273112E+02  0.47000000000E+01 0.  1.
         11    1    6    6    0    0 -0.67134296670E+02 -0.69544221964E+02 -0.10991959400E+03  0.14637530442E+03  0.00000000000E+00 0. -1.
        -12    1    6    6    0    0 -0.28912430232E+03 -0.12238053331E+03 -0.26107992174E+03  0.40832901276E+03  0.00000000000E+00 0.  1.
</event>
<event>
12    1  0.8406581E-002  0.2172458E+03  0.7818608E-02  0.1136492E+00
         21   -1    0    0  503  502  0.00000000000E+00  0.00000000000E+00  0.77728627764E+02  0.77728627764E+02  0.00000000000E+00 0. -1.
         21   -1    0    0  501  503 -0.00000000000E+00 -0.00000000000E+00 -0.86939407196E+03  0.86939407196E+03  0.00000000000E+00 0. -1.
          6    2    1    2  501    0 -0.93843618274E+02 -0.87170357961E+02 -0.13010420971E+03  0.25080451368E+03  0.17196075919E+03 0.  0.
         24    2    3    3    0    0 -0.70772843034E+02 -0.51460384610E+02 -0.15852121331E+03  0.19945201656E+03  0.83637105071E+02 0.  0.
         -6    2    1    2    0  502  0.93843618274E+02  0.87170357961E+02 -0.66156123449E+03  0.69631818604E+03  0.17547208676E+03 0.  0.
        -24    2    5    5    0    0  0.90065889714E+02  0.10037631815E+03 -0.34010200518E+03  0.37453130823E+03  0.80106536474E+02 0.  0.
          5    1    3    3  501    0 -0.23070775240E+02 -0.35709973351E+02  0.28417003605E+02  0.51352497124E+02  0.47000000000E+01 0. -1.
        -11    1    4    4    0    0 -0.59722752407E+02 -0.73269861357E+02 -0.13933703493E+03  0.16837484682E+03  0.00000000000E+00 0.  1.
         12    1    4    4    0    0 -0.11050090627E+02  0.21809476747E+02 -0.19184178377E+02  0.31077169737E+02  0.00000000000E+00 0. -1.
         -5    1    5    5    0  502  0.37777285606E+01 -0.13205960192E+02 -0.32145922931E+03  0.32178687780E+03  0.47000000000E+01 0.  1.
         11    1    6    6    0    0  0.22656145066E+02  0.51060481828E+02 -0.22795074489E+03  0.23469558115E+03  0.00000000000E+00 0. -1.
        -12    1    6    6    0    0  0.67409744648E+02  0.49315836326E+02 -0.11215126028E+03  0.13983572709E+03  0.00000000000E+00 0.  1.
</event>
<event>
12    1  0.8406581E-002  0.1959884E+03  0.7818608E-02  0.1153482E+00
         21   -1    0    0  501  502  0.00000000000E+00  0.00000000000E+00  0.92856341922E+03  0.92856341922E+03  0.00000000000E+00 0.  1.
         21   -1    0    0  502  503 -0.00000000000E+00 -0.00000000000E+00 -0.47662457429E+02  0.47662457429E+02  0.00000000000E+00 0. -1.
         -6    2    1    2    0  503 -0.40832122383E+02  0.81371615637E+02  0.25742410049E+03  0.32267032907E+03  0.17193129937E+03 0.  0.
        -24    2    3    3    0    0 -0.60749453295E+02  0.20729058175E+02  0.23194018890E+03  0.25378100047E+03  0.80550326138E+02 0.  0.
          6    2    1    2  501    0  0.40832122383E+02 -0.81371615637E+02  0.62347686131E+03  0.65355554758E+03  0.17355937064E+03 0.  0.
         24    2    5    5    0    0  0.67212750476E+02 -0.21551826251E+02  0.51953106868E+03  0.53066876006E+03  0.81943679108E+02 0.  0.
          5    1    5    5  501    0 -0.26380628092E+02 -0.59819789386E+02  0.10394579263E+03  0.12288678752E+03  0.47000000000E+01 0. -1.
        -11    1    6    6    0    0 -0.17498234580E+02 -0.12561119965E+02  0.14361856985E+03  0.14522487236E+03  0.00000000000E+00 0.  1.
         12    1    6    6    0    0  0.84710985056E+02 -0.89907062861E+01  0.37591249883E+03  0.38544388770E+03  0.00000000000E+00 0. -1.
         -5    1    3    3    0  503  0.19917330911E+02  0.60642557462E+02  0.25483911585E+02  0.68889328606E+02  0.47000000000E+01 0.  1.
         13    1    4    4    0    0 -0.75374192312E+02  0.83086110806E+01  0.13390523081E+03  0.15388603811E+03  0.00000000000E+00 0. -1.
        -14    1    4    4    0    0  0.14624739017E+02  0.12420447095E+02  0.98034958089E+02  0.99894962360E+02  0.00000000000E+00 0.  1.
</event>
<event>
12    1  0.8406581E-002  0.1882266E+03  0.7818608E-02  0.1160108E+00
         21   -1    0    0  503  502  0.00000000000E+00  0.00000000000E+00  0.46963160786E+02  0.46963160786E+02  0.00000000000E+00 0. -1.
         21   -1    0    0  501  503 -0.00000000000E+00 -0.00000000000E+00 -0.10745284177E+04  0.10745284177E+04  0.00000000000E+00 0. -1.
          6    2    1    2  501    0 -0.17491376692E+02  0.75110855587E+02 -0.82000459140E+03  0.84129400074E+03  0.17152398337E+03 0.  0.
         24    2    3    3    0    0 -0.31955572359E+02  0.98096380354E+01 -0.19927424394E+03  0.21695297515E+03  0.78999883075E+02 0.  0.
         -6    2    1    2    0  502  0.17491376692E+02 -0.75110855587E+02 -0.20756066547E+03  0.28019757771E+03  0.17170225338E+03 0.  0.
        -24    2    5    5    0    0 -0.54436487409E+02 -0.56641707079E+02 -0.14741426419E+03  0.18451891411E+03  0.78387819432E+02 0.  0.
          5    1    3    3  501    0  0.14464195667E+02  0.65301217552E+02 -0.62073034746E+03  0.62434102558E+03  0.47000000000E+01 0. -1.
        -11    1    4    4    0    0  0.68879024418E+00 -0.19838789249E+02 -0.92884890448E+01  0.21916387011E+02  0.00000000000E+00 0.  1.
         12    1    4    4    0    0 -0.32644362603E+02  0.29648427285E+02 -0.18998575489E+03  0.19503658814E+03  0.00000000000E+00 0. -1.
         -5    1    5    5    0  502  0.71927864101E+02 -0.18469148508E+02 -0.60146401278E+02  0.95678663595E+02  0.47000000000E+01 0.  1.
         11    1    6    6    0    0 -0.20366802946E+02 -0.51744389651E+02 -0.32167604308E+02  0.64242067911E+02  0.00000000000E+00 0. -1.
        -12    1    6    6    0    0 -0.34069684463E+02 -0.48973174286E+01 -0.11524665989E+03  0.12027684620E+03  0.00000000000E+00 0.  1.
</event>
<event>
12    1  0.8406581E-002  0.2345442E+03  0.7818608E-02  0.1123675E+00
         21   -1    0    0  501  502  0.00000000000E+00  0.00000000000E+00  0.67933960040E+03  0.67933960040E+03  0.00000000000E+00 0.  1.
         21   -1    0    0  502  503 -0.00000000000E+00 -0.00000000000E+00 -0.10662922331E+03  0.10662922331E+03  0.00000000000E+00 0.  1.
         -6    2    1    2    0  503 -0.12920645996E+03  0.93207943067E+02  0.91630498036E+02  0.25075967796E+03  0.17059378058E+03 0.  0.
        -24    2    3    3    0    0 -0.10076494739E+03 -0.69914780835E+01  0.48110106337E+02  0.13777756376E+03  0.80409075079E+02 0.  0.
          6    2    1    2  501    0  0.12920645996E+03 -0.93207943067E+02  0.48107987906E+03  0.53520914574E+03  0.17213061816E+03 0.  0.
         24    2    5    5    0    0  0.84272131162E+01 -0.30817808226E+02  0.14731330948E+03  0.17478943435E+03  0.88483783743E+02 0.  0.
          5    1    5    5  501    0  0.12077924685E+03 -0.62390134841E+02  0.33376656958E+03  0.36041971140E+03  0.47000000000E+01 0. -1.
        -11    1    6    6    0    0  0.41104932366E+02  0.94502851671E+01  0.63579699636E+02  0.76297454481E+02  0.00000000000E+00 0.  1.
         12    1    6    6    0    0 -0.32677719249E+02 -0.40268093393E+02  0.83733609844E+02  0.98491979869E+02  0.00000000000E+00 0. -1.
         -5    1    3    3    0  503 -0.28441512577E+02  0.10019942115E+03  0.43520391699E+02  0.11298211420E+03  0.47000000000E+01 0.  1.
         13    1    4    4    0    0 -0.61459788158E+01  0.10008139827E+02  0.39557213461E+02  0.41263895299E+02  0.00000000000E+00 0. -1.
        -14    1    4    4    0    0 -0.94618968571E+02 -0.16999617911E+02  0.85528928760E+01  0.96513668457E+02  0.00000000000E+00 0.  1.
</event>
<event>
12    1  0.8406581E-002  0.2137148E+03  0.7818608E-02  0.1138779E+00
         21   -1    0    0  503  502  0.00000000000E+00  0.00000000000E+00  0.28438571281E+03  0.28438571281E+03  0.00000000000E+00 0.  1.
         21   -1    0    0  501  503 -0.00000000000E+00 -0.00000000000E+00 -0.25031036436E+03  0.25031036436E+03  0.00000000000E+00 0.  1.
          6    2    1    2  501    0 -0.10671611063E+03 -0.67471557251E+02 -0.14341091499E+03  0.25737270171E+03  0.17243340089E+03 0.  0.
         24    2    3    3    0    0 -0.43881024279E+02 -0.27110907704E+02  0.27819726695E+00  0.95366895986E+02  0.80213601390E+02 0.  0.
         -6    2    1    2    0  502  0.10671611063E+03  0.67471557251E+02  0.17748626343E+03  0.27732337546E+03  0.17165704635E+03 0.  0.
        -24    2    5    5    0    0  0.15073032314E+02 -0.14990177759E-01  0.13258684638E+03  0.15488589942E+03  0.78633157634E+02 0.  0.
          5    1    3    3  501    0 -0.62835086347E+02 -0.40360649547E+02 -0.14368911225E+03  0.16200580573E+03  0.47000000000E+01 0. -1.
        -13    1    4    4    0    0 -0.13668995872E+02 -0.16811666288E+02 -0.39084654581E+02  0.44688743496E+02  0.00000000000E+00 0.  1.
         14    1    4    4    0    0 -0.30212028407E+02 -0.10299241416E+02  0.39362851848E+02  0.50678152490E+02  0.00000000000E+00 0. -1.
         -5    1    5    5    0  502  0.91643078312E+02  0.67486547429E+02  0.44899417057E+02  0.12243747604E+03  0.47000000000E+01 0.  1.
         13    1    6    6    0    0 -0.90163180801E+01 -0.13277318242E+02 -0.31807061822E+01  0.16361481083E+02  0.00000000000E+00 0. -1.
        -14    1    6    6    0    0  0.24089350394E+02  0.13262328064E+02  0.13576755256E+03  0.13852441834E+03  0.00000000000E+00 0.  1.
</event>
<event>
12    1  0.8406581E-002  0.2198059E+03  0.7818608E-02  0.1135115E+00
         21   -1    0    0  503  502  0.00000000000E+00  0.00000000000E+00  0.61772399750E+02  0.61772399750E+02  0.00000000000E+00 0. -1.
         21   -1    0    0  501  503 -0.00000000000E+00 -0.00000000000E+00 -0.10823072818E+04  0.10823072818E+04  0.00000000000E+00 0. -1.
          6    2    1    2  501    0  0.10260291109E+03  0.80774824887E+02 -0.81677020110E+03  0.84435533134E+03  0.16961849679E+03 0.  0.
         24    2    3    3    0    0  0.10002811750E+03  0.66078360711E+02 -0.81603529373E+03  0.82869500854E+03  0.80310911565E+02 0.  0.
         -6    2    1    2    0  502 -0.10260291109E+03 -0.80774824887E+02 -0.20376468092E+03  0.29972435018E+03  0.17681264435E+03 0.  0.
        -24    2    5    5    0    0 -0.86055303073E+02 -0.56425892172E+01 -0.18758256284E+03  0.22096759102E+03  0.78753440562E+02 0.  0.
          5    1    3    3  501    0  0.25747935960E+01  0.14696464176E+02 -0.73490736899E+00  0.15660322799E+02  0.47000000000E+01 0. -1.
        -13    1    4    4    0    0  0.70885165118E+02  0.60083262778E+02 -0.36372634541E+03  0.37540852341E+03  0.00000000000E+00 0.  1.
         14    1    4    4    0    0  0.29142952378E+02  0.59950979326E+01 -0.45230894832E+03  0.45328648513E+03  0.00000000000E+00 0. -1.
         -5    1    5    5    0  502 -0.16547608018E+02 -0.75132235669E+02 -0.16182118079E+02  0.78756759160E+02  0.47000000000E+01 0.  1.
         13    1    6    6    0    0 -0.71843789467E+02 -0.20642954974E+02 -0.72811439405E+02  0.10435117337E+03  0.00000000000E+00 0. -1.
        -14    1    6    6    0    0 -0.14211513606E+02  0.15000365757E+02 -0.11477112344E+03  0.11661641766E+03  0.00000000000E+00 0.  1.
</event>
<event>
12    1  0.8406581E-002  0.2405367E+03  0.7818608E-02  0.1119489E+00
         21   -1    0    0  503  502  0.00000000000E+00  0.00000000000E+00  0.93366874048E+02  0.93366874048E+02  0.00000000000E+00 0. -1.
         21   -1    0    0  501  503 -0.00000000000E+00 -0.00000000000E+00 -0.71563906795E+03  0.71563906795E+03  0.00000000000E+00 0. -1.
          6    2    1    2  501    0  0.12155422610E+03  0.11660683942E+03 -0.46007271539E+03  0.51915779805E+03  0.17171293179E+03 0.  0.
         24    2    3    3    0    0  0.65342185605E+02  0.10281398350E+03 -0.17834902309E+03  0.23151154799E+03  0.83360100718E+02 0.  0.
         -6    2    1    2    0  502 -0.12155422610E+03 -0.11660683942E+03 -0.16219947852E+03  0.28984814395E+03  0.17126205312E+03 0.  0.
        -24    2    5    5    0    0 -0.56142457132E+01 -0.89446891851E+02 -0.71555999214E+02  0.14012148585E+03  0.80507785698E+02 0.  0.
          5    1    3    3  501    0  0.56212040498E+02  0.13792855926E+02 -0.28172369230E+03  0.28764625006E+03  0.47000000000E+01 0. -1.
        -13    1    4    4    0    0  0.57940354239E+02  0.16022097189E+02 -0.81178067751E+02  0.10101322157E+03  0.00000000000E+00 0.  1.
         14    1    4    4    0    0  0.74018313659E+01  0.86791886310E+02 -0.97170955342E+02  0.13049832642E+03  0.00000000000E+00 0. -1.
         -5    1    5    5    0  502 -0.11593998039E+03 -0.27159947573E+02 -0.90643479302E+02  0.14972665810E+03  0.47000000000E+01 0.  1.
         11    1    6    6    0    0 -0.26231891700E+02 -0.53114226348E+02 -0.23510864249E+01  0.59285418022E+02  0.00000000000E+00 0. -1.
        -12    1    6    6    0    0  0.20617645986E+02 -0.36332665503E+02 -0.69204912789E+02  0.80836067833E+02  0.00000000000E+00 0.  1.
</event>
<event>
12    1  0.8406581E-002  0.2298672E+03  0.7818608E-02  0.1126875E+00
         21   -1    0    0  501  502  0.00000000000E+00  0.00000000000E+00  0.17460715710E+03  0.17460715710E+03  0.00000000000E+00 0. -1.
         21   -1    0    0  502  503 -0.00000000000E+00 -0.00000000000E+00 -0.31248392830E+03  0.31248392830E+03  0.00000000000E+00 0.  1.
         -6    2    1    2    0  503  0.60655415341E+02 -0.13916693819E+03 -0.11459758248E+03  0.25684925735E+03  0.17260480583E+03 0.  0.
        -24    2    3    3    0    0  0.39957180462E+02 -0.33535870292E+02  0.54969129675E+01  0.95507640684E+02  0.79813924288E+02 0.  0.
          6    2    1    2  501    0 -0.60655415341E+02  0.13916693819E+03 -0.23279188720E+02  0.23024182805E+03  0.17153093791E+03 0.  0.
         24    2    5    5    0    0  0.17229336418E+02  0.75268236789E+02  0.30949111455E+02  0.11573472287E+03  0.80464408744E+02 0.  0.
          5    1    5    5  501    0 -0.77884751759E+02  0.63898701404E+02 -0.54228300175E+02  0.11450710518E+03  0.47000000000E+01 0. -1.
        -13    1    6    6    0    0 -0.32477419735E+02  0.31967195217E+02  0.11400159300E+02  0.46974972004E+02  0.00000000000E+00 0.  1.
         14    1    6    6    0    0  0.49706756153E+02  0.43301041571E+02  0.19548952155E+02  0.68759750863E+02  0.00000000000E+00 0. -1.
         -5    1    3    3    0  503  0.20698234879E+02 -0.10563106790E+03 -0.12009449544E+03  0.16134161667E+03  0.47000000000E+01 0.  1.
         11    1    4    4    0    0  0.29430193049E+02 -0.58362803917E+02 -0.70929252130E+01  0.65746959869E+02  0.00000000000E+00 0. -1.
        -12    1    4    4    0    0  0.10526987413E+02  0.24826933625E+02  0.12589838180E+02  0.29760680816E+02  0.00000000000E+00 0.  1.
</event>
<event>
12    1  0.8406581E-002  0.2139862E+03  0.7818608E-02  0.1138599E+00
         21   -1    0    0  503  502  0.00000000000E+00  0.00000000000E+00  0.82056008953E+02  0.82056008953E+02  0.00000000000E+00 0. -1.
         21   -1    0    0  501  503 -0.00000000000E+00 -0.00000000000E+00 -0.74026205941E+03  0.74026205941E+03  0.00000000000E+00 0.  1.
          6    2    1    2  501    0  0.12563640370E+03 -0.25736865445E+02 -0.53378273847E+03  0.57478778341E+03  0.17032349187E+03 0.  0.
         24    2    3    3    0    0  0.15088881535E+03 -0.14149650799E+02 -0.50946261710E+03  0.53756539578E+03  0.80353900332E+02 0.  0.
         -6    2    1    2    0  502 -0.12563640370E+03  0.25736865445E+02 -0.12442331198E+03  0.24753028495E+03  0.17129853831E+03 0.  0.
        -24    2    5    5    0    0 -0.14283389277E+03  0.49149255795E+02 -0.67804926428E+02  0.18372099696E+03  0.79616119006E+02 0.  0.
          5    1    3    3  501    0 -0.25252411647E+02 -0.11587214646E+02 -0.24320121372E+02  0.37222387629E+02  0.47000000000E+01 0. -1.
        -13    1    4    4    0    0  0.37494976275E+02  0.29271180171E+02 -0.18831539971E+03  0.19423018562E+03  0.00000000000E+00 0.  1.
         14    1    4    4    0    0  0.11339383907E+03 -0.43420830970E+02 -0.32114721739E+03  0.34333521016E+03  0.00000000000E+00 0. -1.
         -5    1    5    5    0  502  0.17197489069E+02 -0.23412390350E+02 -0.56618385552E+02  0.63809287998E+02  0.47000000000E+01 0.  1.
         11    1    6    6    0    0 -0.31017888701E+01 -0.79854336497E+01  0.10587037836E+02  0.13618869811E+02  0.00000000000E+00 0. -1.
        -12    1    6    6    0    0 -0.13973210390E+03  0.57134689445E+02 -0.78391964264E+02  0.17010212715E+03  0.00000000000E+00 0.  1.
</event>
<event>
12    1  0.8406581E-002  0.2036218E+03  0.7818608E-02  0.1146779E+00
         21   -1    0    0  503  502  0.00000000000E+00  0.00000000000E+00  0.14561474262E+04  0.14561474262E+04  0.00000000000E+00 0. -1.
         21   -1    0    0  501  503 -0.00000000000E+00 -0.00000000000E+00 -0.28631149012E+02  0.28631149012E+02  0.00000000000E+00 0.  1.
          6    2    1    2  501    0 -0.81843174784E+02  0.71649108798E+02  0.65250928511E+03  0.68354238094E+03  0.17213343468E+03 0.  0.
         24    2    3    3    0    0 -0.10857741177E+03  0.67615726393E+02  0.36731417281E+03  0.39703002574E+03  0.79700683749E+02 0.  0.
         -6    2    1    2    0  502  0.81843174784E+02 -0.71649108798E+02  0.77500699208E+03  0.80123619427E+03  0.17178970049E+03 0.  0.
        -24    2    5    5    0    0  0.19462715798E+02 -0.13299054652E+02  0.60710886019E+03  0.61280073271E+03  0.79924387588E+02 0.  0.
          5    1    3    3  501    0  0.26734236990E+02  0.40333824043E+01  0.28519511231E+03  0.28651235520E+03  0.47000000000E+01 0. -1.
        -11    1    4    4    0    0 -0.15043831974E+02 -0.92572195395E+01  0.11242271849E+02  0.20938043614E+02  0.00000000000E+00 0.  1.
         12    1    4    4    0    0 -0.93533579800E+02  0.76872945933E+02  0.35607190096E+03  0.37609198213E+03  0.00000000000E+00 0. -1.
         -5    1    5    5    0  502  0.62380458986E+02 -0.58350054146E+02  0.16789813189E+03  0.18843546156E+03  0.47000000000E+01 0.  1.
         11    1    6    6    0    0  0.20740456969E+02 -0.42425734807E+02  0.24430524930E+03  0.24882757959E+03  0.00000000000E+00 0. -1.
        -12    1    6    6    0    0 -0.12777411704E+01  0.29126680155E+02  0.36280361088E+03  0.36397315312E+03  0.00000000000E+00 0.  1.
</event>
<event>
12    1  0.8406581E-002  0.2081248E+03  0.7818608E-02  0.1143491E+00
         21   -1    0    0  501  502  0.00000000000E+00  0.00000000000E+00  0.64380294372E+02  0.64380294372E+02  0.00000000000E+00 0. -1.
         21   -1    0    0  502  503 -0.00000000000E+00 -0.00000000000E+00 -0.10820074433E+04  0.10820074433E+04  0.00000000000E+00 0. -1.
         -6    2    1    2    0  503 -0.35770738711E+01 -0.11424907318E+03 -0.86588562004E+03  0.89054693001E+03  0.17392608019E+03 0.  0.
        -24    2    3    3    0    0 -0.42663670365E+02 -0.13588830542E+03 -0.67782594594E+03  0.69719608460E+03  0.79677770242E+02 0.  0.
          6    2    1    2  501    0  0.35770738711E+01  0.11424907318E+03 -0.15174152887E+03  0.25584080765E+03  0.17135746583E+03 0.  0.
         24    2    5    5    0    0  0.42610480547E+02  0.35201701331E+02 -0.23827442491E+02  0.10041816668E+03  0.80381890708E+02 0.  0.
          5    1    5    5  501    0 -0.39033406676E+02  0.79047371844E+02 -0.12791408638E+03  0.15542264097E+03  0.47000000000E+01 0. -1.
        -13    1    6    6    0    0  0.66490547748E+02  0.27898614821E+02 -0.21961979255E+02  0.75376748282E+02  0.00000000000E+00 0.  1.
         14    1    6    6    0    0 -0.23880067201E+02  0.73030865103E+01 -0.18654632360E+01  0.25041418394E+02  0.00000000000E+00 0. -1.
         -5    1    3    3    0  503  0.39086596494E+02  0.21639232241E+02 -0.18805967410E+03  0.19335084541E+03  0.47000000000E+01 0.  1.
         13    1    4    4    0    0 -0.15819379790E+02 -0.95260207366E+02 -0.27548597684E+03  0.29191999472E+03  0.00000000000E+00 0. -1.
        -14    1    4    4    0    0 -0.26844290575E+02 -0.40628098051E+02 -0.40233996910E+03  0.40527608987E+03  0.00000000000E+00 0.  1.
</event>
<event>
12    1  0.8406581E-002  0.1818662E+03  0.7818608E-02  0.1166525E+00
         21   -1    0    0  503  502  0.00000000000E+00  0.00000000000E+00  0.22159904405E+03  0.22159904405E+03  0.00000000000E+00 0. -1.
         21   -1    0    0  501  503 -0.00000000000E+00 -0.00000000000E+00 -0.14981066724E+03  0.14981066724E+03  0.00000000000E+00 0. -1.
          6    2    1    2  501    0  0.52573425163E+02  0.13957824143E+02  0.59158944938E+02  0.19124617855E+03  0.17354115983E+03 0.  0.
         24    2    3    3    0    0  0.26115830674E+02  0.47413028923E+02  0.97658694655E+02  0.13359571661E+03  0.73352320567E+02 0.  0.
         -6    2    1    2    0  502 -0.52573425163E+02 -0.13957824143E+02  0.12629431878E+02  0.18016353274E+03  0.17129100996E+03 0.  0.
        -24    2    5    5    0    0  0.27655583455E+02  0.19915696638E+02 -0.34023565786E+02  0.81255992965E+02  0.65448201619E+02 0.  0.
          5    1    3    3  501    0  0.26457594489E+02 -0.33455204781E+02 -0.38499749717E+02  0.57650461935E+02  0.47000000000E+01 0. -1.
        -11    1    4    4    0    0  0.43816890297E+02  0.55879985495E+02  0.82135967604E+02  0.10857628576E+03  0.00000000000E+00 0.  1.
         12    1    4    4    0    0 -0.17701059624E+02 -0.84669565720E+01  0.15522727051E+02  0.25019430859E+02  0.00000000000E+00 0. -1.
         -5    1    5    5    0  502 -0.80229008618E+02 -0.33873520781E+02  0.46652997664E+02  0.98907539778E+02  0.47000000000E+01 0.  1.
         13    1    6    6    0    0  0.17989561092E+02  0.21353600405E+02  0.14705192801E+02  0.31556984232E+02  0.00000000000E+00 0. -1.
        -14    1    6    6    0    0  0.96660223632E+01 -0.14379037666E+01 -0.48728758587E+02  0.49699008733E+02  0.00000000000E+00 0.  1.
</event>
<event>
12    1  0.8406581E-002  0.2414860E+03  0.7818608E-02  0.1118903E+00
         21   -1    0    0  503  502  0.00000000000E+00  0.00000000000E+00  0.13048680741E+03  0.13048680741E+03  0.00000000000E+00 0. -1.
         21   -1    0    0  501  503 -0.00000000000E+00 -0.00000000000E+00 -0.44586044064E+03  0.44586044064E+03  0.00000000000E+00 0. -1.
          6    2    1    2  501    0  0.16578958922E+03  0.32121110671E+02 -0.15542866177E+03  0.28669591038E+03  0.17180955294E+03 0.  0.
         24    2    3    3    0    0  0.14688049287E+03  0.73230651958E+02 -0.12760663230E+03  0.23336952260E+03  0.10602487396E+03 0.  0.
         -6    2    1    2    0  502 -0.16578958922E+03 -0.32121110671E+02 -0.15994497145E+03  0.28965133767E+03  0.17261966828E+03 0.  0.
        -24    2    5    5    0    0 -0.19327755789E+02 -0.28787925224E+02 -0.81564244948E+02  0.12343519205E+03  0.85913990715E+02 0.  0.
          5    1    3    3  501    0  0.18909096347E+02 -0.41109541286E+02 -0.27822029470E+02  0.53326387777E+02  0.47000000000E+01 0. -1.
        -13    1    4    4    0    0  0.48194300609E+02 -0.23621798578E+02 -0.56334099375E+02  0.77808808831E+02  0.00000000000E+00 0.  1.
         14    1    4    4    0    0  0.98686192265E+02  0.96852450536E+02 -0.71272532927E+02  0.15556071377E+03  0.00000000000E+00 0. -1.
         -5    1    5    5    0  502 -0.14646183343E+03 -0.33331854472E+01 -0.78380726505E+02  0.16621614562E+03  0.47000000000E+01 0.  1.
         11    1    6    6    0    0 -0.53445170575E+02 -0.13279740514E+02 -0.51337157930E+02  0.75287725097E+02  0.00000000000E+00 0. -1.
        -12    1    6    6    0    0  0.34117414786E+02 -0.15508184710E+02 -0.30227087018E+02  0.48147466956E+02  0.00000000000E+00 0.  1.
</event>
<event>
12    1  0.8406581E-002  0.2384208E+03  0.7818608E-02  0.1120920E+00
         21   -1    0    0  501  502  0.00000000000E+00  0.00000000000E+00  0.31432161525E+03  0.31432161525E+03  0.00000000000E+00 0.  1.
         21   -1    0    0  502  503 -0.00000000000E+00 -0.00000000000E+00 -0.59771064069E+03  0.59771064069E+03  0.00000000000E+00 0. -1.
         -6    2    1    2    0  503 -0.57114364618E+02  0.15399848184E+03 -0.52270676966E+03  0.57451443957E+03  0.17282040147E+03 0.  0.
        -24    2    3    3    0    0 -0.37003596237E+02  0.17520844464E+02 -0.29355351725E+03  0.30700015658E+03  0.79994890641E+02 0.  0.
          6    2    1    2  501    0  0.57114364618E+02 -0.15399848184E+03  0.23931774422E+03  0.33751781637E+03  0.17224317292E+03 0.  0.
         24    2    5    5    0    0  0.95629234368E+02 -0.81065172905E+02  0.11393560306E+03  0.18736644586E+03  0.80052174654E+02 0.  0.
          5    1    5    5  501    0 -0.38514869750E+02 -0.72933308933E+02  0.12538214116E+03  0.15015137051E+03  0.47000000000E+01 0. -1.
        -11    1    6    6    0    0  0.35249364316E+02 -0.69173509532E+02  0.95598928824E+02  0.12315294271E+03  0.00000000000E+00 0.  1.
         12    1    6    6    0    0  0.60379870052E+02 -0.11891663373E+02  0.18336674236E+02  0.64213503154E+02  0.00000000000E+00 0. -1.
         -5    1    3    3    0  503 -0.20110768380E+02  0.13647763737E+03 -0.22915325242E+03  0.26751428298E+03  0.47000000000E+01 0.  1.
         13    1    4    4    0    0 -0.40244121596E+02  0.44369703960E+02 -0.23481273832E+03  0.24233299823E+03  0.00000000000E+00 0. -1.
        -14    1    4    4    0    0  0.32405253591E+01 -0.26848859495E+02 -0.58740778924E+02  0.64667158352E+02  0.00000000000E+00 0.  1.
</event>
<event>
12    1  0.8406581E-002  0.1828329E+03  0.7818608E-02  0.1165697E+00
         21   -1    0    0  503  502  0.00000000000E+00  0.00000000000E+00  0.85750254164E+03  0.85750254164E+03  0.00000000000E+00 0. -1.
         21   -1    0    0  501  503 -0.00000000000E+00 -0.00000000000E+00 -0.71939555158E+02  0.71939555158E+02  0.00000000000E+00 0. -1.
          6    2    1    2  501    0 -0.65325078360E+01  0.61020483935E+02  0.77143756559E+02  0.19844145546E+03  0.17222566286E+03 0.  0.
         24    2    3    3    0    0 -0.27130354832E+02  0.31096874787E+02  0.11495109546E+03  0.14579947069E+03  0.79628258383E+02 0.  0.
         -6    2    1    2    0  502  0.65325078360E+01 -0.61020483935E+02  0.70841922992E+03  0.73100064134E+03  0.16952273948E+03 0.  0.
        -24    2    5    5    0    0  0.67765877044E+02 -0.46861483536E+02  0.36944322149E+03  0.38621545156E+03  0.76719413395E+02 0.  0.
          5    1    3    3  501    0  0.20597846996E+02  0.29923609148E+02 -0.37807338897E+02  0.52641984763E+02  0.47000000000E+01 0. -1.
        -11    1    4    4    0    0 -0.12953113449E+02 -0.26053007252E+02  0.25389837217E+02  0.38615879749E+02  0.00000000000E+00 0.  1.
         12    1    4    4    0    0 -0.14177241383E+02  0.57149882039E+02  0.89561258239E+02  0.10718359094E+03  0.00000000000E+00 0. -1.
         -5    1    5    5    0  502 -0.61233369208E+02 -0.14159000399E+02  0.33897600843E+03  0.34478518978E+03  0.47000000000E+01 0.  1.
         11    1    6    6    0    0  0.13495373578E+02 -0.55559308446E+02  0.20541488319E+03  0.21322344172E+03  0.00000000000E+00 0. -1.
        -12    1    6    6    0    0  0.54270503466E+02  0.86978249098E+01  0.16402833829E+03  0.17299200984E+03  0.00000000000E+00 0.  1.
</event>
<event>
12    1  0.8406581E-002  0.1791997E+03  0.7818608E-02  0.1168611E+00
         21   -1    0    0  503  502  0.00000000000E+00  0.00000000000E+00  0.34051885744E+03  0.34051885744E+03  0.00000000000E+00 0.  1.
         21   -1    0    0  501  503 -0.00000000000E+00 -0.00000000000E+00 -0.10363602170E+03  0.10363602170E+03  0.00000000000E+00 0.  1.
          6    2    1    2  501    0  0.16168673543E+02 -0.46745806353E+02  0.51522851118E+02  0.18633547421E+03  0.17210377202E+03 0.  0.
         24    2    3    3    0    0  0.26397011176E+02  0.36782550482E+02  0.59322470255E+01  0.90511685575E+02  0.78149954906E+02 0.  0.
         -6    2    1    2    0  502 -0.16168673543E+02  0.46745806353E+02  0.18535998462E+03  0.25781940494E+03  0.17223799014E+03 0.  0.
        -24    2    5    5    0    0  0.10771207310E+02 -0.20770047710E+02  0.15803310762E+03  0.18001840278E+03  0.82974384279E+02 0.  0.
          5    1    3    3  501    0 -0.10228337633E+02 -0.83528356836E+02  0.45590604093E+02  0.95823788633E+02  0.47000000000E+01 0. -1.
        -13    1    4    4    0    0  0.26995124719E+02  0.37428906512E+02  0.37173419229E+02  0.59258104075E+02  0.00000000000E+00 0.  1.
         14    1    4    4    0    0 -0.59811354345E+00 -0.64635602981E+00 -0.31241172204E+02  0.31253581500E+02  0.00000000000E+00 0. -1.
         -5    1    5    5    0  502 -0.26939880853E+02  0.67515854064E+02  0.27326877001E+02  0.77801002159E+02  0.47000000000E+01 0.  1.
         11    1    6    6    0    0  0.23739858334E+02  0.22622657346E+02  0.10639282311E+03  0.11133192853E+03  0.00000000000E+00 0. -1.
        -12    1    6    6    0    0 -0.12968651024E+02 -0.43392705056E+02  0.51640284504E+02  0.68686474252E+02  0.00000000000E+00 0.  1.
</event>
<event>
12    1  0.8406581E-002  0.2237600E+03  0.7818608E-02  0.1131173E+00
         21   -1    0    0  503  502  0.00000000000E+00  0.00000000000E+00  0.41370410464E+03  0.41370410464E+03  0.00000000000E+00 0. -1.
         21   -1    0    0  501  503 -0.00000000000E+00 -0.00000000000E+00 -0.20142160037E+03  0.20142160037E+03  0.00000000000E+00 0. -1.
          6    2    1    2  501    0 -0.12960365437E+03  0.59540993394E+02 -0.88344838410E+02  0.24056878189E+03  0.17241314111E+03 0.  0.
         24    2    3    3    0    0 -0.78011312616E+02 -0.34632913049E+02 -0.43516082449E+02  0.12411191544E+03  0.78898127735E+02 0.  0.
         -6    2    1    2    0  502  0.12960365437E+03 -0.59540993394E+02  0.30062734267E+03  0.37455692312E+03  0.17197049855E+03 0.  0.
        -24    2    5    5    0    0  0.96199118510E+02 -0.56707086776E+02  0.31079264506E+03  0.33921123858E+03  0.77474073501E+02 0.  0.
          5    1    3    3  501    0 -0.51592341756E+02  0.94173906443E+02 -0.44828755961E+02  0.11645686645E+03  0.47000000000E+01 0. -1.
        -13    1    4    4    0    0 -0.42901998676E+02 -0.24547508846E+02  0.17969752620E+02  0.52593475738E+02  0.00000000000E+00 0.  1.
         14    1    4    4    0    0 -0.35109313940E+02 -0.10085404204E+02 -0.61485835069E+02  0.71518439702E+02  0.00000000000E+00 0. -1.
         -5    1    5    5    0  502  0.33404535863E+02 -0.28339066176E+01 -0.10165302385E+02  0.35345684539E+02  0.47000000000E+01 0.  1.
         13    1    6    6    0    0  0.34642502622E+01 -0.21669543238E+02  0.13356344130E+02  0.25689726790E+02  0.00000000000E+00 0. -1.
        -14    1    6    6    0    0  0.92734868247E+02 -0.35037543538E+02  0.29743630093E+03  0.31352151179E+03  0.00000000000E+00 0.  1.
</event>
<event>
12    1  0.8406581E-002  0.1962748E+03  0.7818608E-02  0.1153086E+00
         21   -1    0    0  503  502  0.00000000000E+00  0.00000000000E+00  0.52041608105E+03  0.52041608105E+03  0.00000000000E+00 0. -1.
         21   -1    0    0  501  503 -0.00000000000E+00 -0.00000000000E+00 -0.28372395997E+03  0.28372395997E+03  0.00000000000E+00 0. -1.
          6    2    1    2  501    0 -0.17839368131E+02  0.92121156371E+02 -0.22749347241E+03  0.30046145299E+03  0.17239273256E+03 0.  0.
         24    2    3    3    0    0  0.31512585239E+02  0.88188158818E+01 -0.55012746323E+02  0.10260649070E+03  0.80192737414E+02 0.  0.
         -6    2    1    2    0  502  0.17839368131E+02 -0.92121156371E+02  0.46418559349E+03  0.50367858804E+03  0.17152056535E+03 0.  0.
        -24    2    5    5    0    0  0.18622105251E+02  0.63913770030E+01  0.82037003486E+02  0.10900788131E+03  0.69029093446E+02 0.  0.
          5    1    3    3  501    0 -0.49351953370E+02  0.83302340489E+02 -0.17248072608E+03  0.19785496229E+03  0.47000000000E+01 0. -1.
        -13    1    4    4    0    0  0.49433956484E+02  0.29392244500E+02 -0.46698027226E+02  0.74083235872E+02  0.00000000000E+00 0.  1.
         14    1    4    4    0    0 -0.17921371245E+02 -0.20573428618E+02 -0.83147190966E+01  0.28523254829E+02  0.00000000000E+00 0. -1.
         -5    1    5    5    0  502 -0.78273712029E+00 -0.98512533374E+02  0.38214859000E+03  0.39467070673E+03  0.47000000000E+01 0.  1.
         11    1    6    6    0    0  0.21955204466E+02 -0.65438731596E+01  0.90393562817E+02  0.93251538742E+02  0.00000000000E+00 0. -1.
        -12    1    6    6    0    0 -0.33330992153E+01  0.12935250163E+02 -0.83565593309E+01  0.15756342564E+02  0.00000000000E+00 0.  1.
</event>
<event>
12    1  0.8406581E-002  0.2309335E+03  0.7818608E-02  0.1126140E+00
         21   -1    0    0  503  502  0.00000000000E+00  0.00000000000E+00  0.15912059574E+03  0.15912059574E+03  0.00000000000E+00 0. -1.
         21   -1    0    0  501  503 -0.00000000000E+00 -0.00000000000E+00 -0.13330780716E+04  0.13330780716E+04  0.00000000000E+00 0. -1.
          6    2    1    2  501    0 -0.15300295239E+03  0.13404837465E+02 -0.12326421806E+04  0.12539253336E+04  0.17126705411E+03 0.  0.
         24    2    3    3    0    0 -0.10053141276E+03 -0.36314678439E+01 -0.41711064890E+03  0.43651645959E+03  0.80284329452E+02 0.  0.
         -6    2    1    2    0  502  0.15300295239E+03 -0.13404837465E+02  0.58684704774E+02  0.23827333367E+03  0.17245490383E+03 0.  0.
        -24    2    5    5    0    0  0.11397451440E+03  0.10184575546E+01  0.10692191088E+03  0.17439713728E+03  0.77400512129E+02 0.  0.
          5    1    3    3  501    0 -0.52471539630E+02  0.17036305309E+02 -0.81553153169E+03  0.81740887404E+03  0.47000000000E+01 0. -1.
        -13    1    4    4    0    0 -0.82247822271E+02 -0.35595587660E+02 -0.25544413494E+03  0.27070917274E+03  0.00000000000E+00 0.  1.
         14    1    4    4    0    0 -0.18283590490E+02  0.31964119816E+02 -0.16166651396E+03  0.16580728685E+03  0.00000000000E+00 0. -1.
         -5    1    5    5    0  502  0.39028437995E+02 -0.14423295020E+02 -0.48237206111E+02  0.63876196387E+02  0.47000000000E+01 0.  1.
         11    1    6    6    0    0  0.36371368608E+02  0.20701033210E+02  0.13108653941E+01  0.41870366591E+02  0.00000000000E+00 0. -1.
        -12    1    6    6    0    0  0.77603145789E+02 -0.19682575655E+02  0.10561104549E+03  0.13252677069E+03  0.00000000000E+00 0.  1.
</event>
<event>
12    1  0.8406581E-002  0.2031240E+03  0.7818608E-02  0.1147266E+00
         21   -1    0    0  503  502  0.00000000000E+00  0.00000000000E+00  0.11590606301E+03  0.11590606301E+03  0.00000000000E+00 0.  1.
         21   -1    0    0  501  503 -0.00000000000E+00 -0.00000000000E+00 -0.46219233106E+03  0.46219233106E+03  0.00000000000E+00 0.  1.
          6    2    1    2  501    0 -0.86582944055E+02  0.63786060880E+02 -0.31267890275E+03  0.37286385846E+03  0.17231974047E+03 0.  0.
         24    2    3    3    0    0  0.57630032043E+01  0.74576172995E+02 -0.14788125364E+03  0.18359009998E+03  0.79004062232E+02 0.  0.
         -6    2    1    2    0  502  0.86582944055E+02 -0.63786060880E+02 -0.33607365303E+02  0.20523453561E+03  0.17154151638E+03 0.  0.
        -24    2    5    5    0    0  0.12745668561E+03 -0.45157556389E+02 -0.18290336321E+02  0.15754401972E+03  0.78747508792E+02 0.  0.
          5    1    3    3  501    0 -0.92345947259E+02 -0.10790112116E+02 -0.16479764911E+03  0.18927375848E+03  0.47000000000E+01 0. -1.
        -13    1    4    4    0    0 -0.34498617384E+02  0.52064544322E+02 -0.90663293328E+02  0.11009406948E+03  0.00000000000E+00 0.  1.
         14    1    4    4    0    0  0.40261620588E+02  0.22511628673E+02 -0.57217960310E+02  0.73496030505E+02  0.00000000000E+00 0. -1.
         -5    1    5    5    0  502 -0.40873741560E+02 -0.18628504491E+02 -0.15317028982E+02  0.47690515887E+02  0.47000000000E+01 0.  1.
         13    1    6    6    0    0  0.45235267314E+02 -0.45278376201E+02 -0.36005992054E+02  0.73435633204E+02  0.00000000000E+00 0. -1.
        -14    1    6    6    0    0  0.82221418301E+02  0.12081981207E+00  0.17715655733E+02  0.84108386519E+02  0.00000000000E+00 0.  1.
</event>
<event>
12    1  0.8406581E-002  0.2116150E+03  0.7818608E-02  0.1140346E+00
         21   -1    0    0  503  502  0.00000000000E+00  0.00000000000E+00  0.59001237572E+03  0.59001237572E+03  0.00000000000E+00 0.  1.
         21   -1    0    0  501  503 -0.00000000000E+00 -0.00000000000E+00 -0.81795004539E+02  0.81795004539E+02  0.00000000000E+00 0. -1.
          6    2    1    2  501    0 -0.79950952220E+00  0.12322466485E+03  0.34488382138E+03  0.40448967378E+03  0.17170349064E+03 0.  0.
         24    2    3    3    0    0 -0.15742194510E+02  0.10769722628E+03  0.35551833803E+03  0.38000359349E+03  0.78504351190E+02 0.  0.
         -6    2    1    2    0  502  0.79950952220E+00 -0.12322466485E+03  0.16333354981E+03  0.26731770649E+03  0.17203473622E+03 0.  0.
        -24    2    5    5    0    0 -0.10547115134E+01  0.66932651940E+01  0.47570491005E+02  0.93233581804E+02  0.79897665462E+02 0.  0.
          5    1    3    3  501    0  0.14942684988E+02  0.15527438572E+02 -0.10634516650E+02  0.24486080283E+02  0.47000000000E+01 0. -1.
        -13    1    4    4    0    0  0.25186229088E+02  0.64773502043E+02  0.24387677526E+03  0.25358595035E+03  0.00000000000E+00 0.  1.
         14    1    4    4    0    0 -0.40928423599E+02  0.42923724239E+02  0.11164156277E+03  0.12641764314E+03  0.00000000000E+00 0. -1.
         -5    1    5    5    0  502  0.18542210356E+01 -0.12991793005E+03  0.11576305880E+03  0.17408412468E+03  0.47000000000E+01 0.  1.
         11    1    6    6    0    0 -0.33138306829E+02  0.26370177402E+02  0.28443389458E+02  0.51015292213E+02  0.00000000000E+00 0. -1.
        -12    1    6    6    0    0  0.32083595315E+02 -0.19676912208E+02  0.19127101547E+02  0.42218289591E+02  0.00000000000E+00 0.  1.
</event>
<event>
12    1  0.8406581E-002  0.2460006E+03  0.7818608E-02  0.1116110E+00
         21   -1    0    0  501  502  0.00000000000E+00  0.00000000000E+00  0.10015985806E+03  0.10015985806E+03  0.00000000000E+00 0.  1.
         21   -1    0    0  502  503 -0.00000000000E+00 -0.00000000000E+00 -0.11349159387E+04  0.11349159387E+04  0.00000000000E+00 0. -1.
         -6    2    1    2    0  503 -0.17279395948E+03  0.24241703841E+02 -0.94031527065E+03  0.97156984860E+03  0.17120090492E+03 0.  0.
        -24    2    3    3    0    0 -0.19079225616E+03  0.48718013319E+02 -0.84123467311E+03  0.86782938774E+03  0.81712552029E+02 0.  0.
          6    2    1    2  501    0  0.17279395948E+03 -0.24241703841E+02 -0.94440809990E+02  0.26350594817E+03  0.17340964648E+03 0.  0.
         24    2    5    5    0    0  0.81870633926E+02  0.36832215607E+02 -0.96126368594E+02  0.15386104006E+03  0.79834379209E+02 0.  0.
          5    1    5    5  501    0  0.90923325556E+02 -0.61073919448E+02  0.16855586041E+01  0.10964490811E+03  0.47000000000E+01 0. -1.
        -11    1    6    6    0    0  0.31361220580E+02  0.29601038263E+02  0.20965822797E+01  0.43175725585E+02  0.00000000000E+00 0.  1.
         12    1    6    6    0    0  0.50509413346E+02  0.72311773437E+01 -0.98222950874E+02  0.11068531448E+03  0.00000000000E+00 0. -1.
         -5    1    3    3    0  503  0.17998296674E+02 -0.24476309478E+02 -0.99080597545E+02  0.10374046086E+03  0.47000000000E+01 0.  1.
         13    1    4    4    0    0 -0.62124258200E+02  0.12081261621E+02 -0.44828535451E+03  0.45273075819E+03  0.00000000000E+00 0. -1.
        -14    1    4    4    0    0 -0.12866799796E+03  0.36636751698E+02 -0.39294931860E+03  0.41509862956E+03  0.00000000000E+00 0.  1.
</event>
<event>
12    1  0.8406581E-002  0.1960801E+03  0.7818608E-02  0.1153946E+00
         21   -1    0    0  501  502  0.00000000000E+00  0.00000000000E+00  0.42651934657E+02  0.42651934657E+02  0.00000000000E+00 0. -1.
         21   -1    0    0  502  503 -0.00000000000E+00 -0.00000000000E+00 -0.88653389314E+03  0.88653389314E+03  0.00000000000E+00 0. -1.
         -6    2    1    2    0  503  0.36426458791E+02  0.83249241590E+02 -0.45330936898E+03  0.49389957745E+03  0.17375294377E+03 0.  0.
        -24    2    3    3    0    0 -0.48852008730E+01  0.32898613529E+02 -0.90390845425E+02  0.12515334531E+03  0.79916650000E+02 0.  0.
          6    2    1    2  501    0 -0.36426458791E+02 -0.83249241590E+02 -0.39057258950E+03  0.43528625035E+03  0.16932173206E+03 0.  0.
         24    2    5    5    0    0  0.38710556943E+02 -0.72758767938E+02 -0.22927029731E+03  0.25697152679E+03  0.81713834954E+02 0.  0.
          5    1    5    5  501    0 -0.75137015734E+02 -0.10490473652E+02 -0.16130229219E+03  0.17831472355E+03  0.47000000000E+01 0. -1.
        -11    1    6    6    0    0  0.46183525486E+02 -0.78997758617E+01 -0.64367979381E+02  0.79615081829E+02  0.00000000000E+00 0.  1.
         12    1    6    6    0    0 -0.74729685427E+01 -0.64858992076E+02 -0.16490231793E+03  0.17735644497E+03  0.00000000000E+00 0. -1.
         -5    1    3    3    0  503  0.41311659664E+02  0.50350628061E+02 -0.36291852356E+03  0.36874623213E+03  0.47000000000E+01 0.  1.
         13    1    4    4    0    0  0.32279561059E+02  0.21135109123E+02 -0.72786712531E+02  0.82380631345E+02  0.00000000000E+00 0. -1.
        -14    1    4    4    0    0 -0.37164761932E+02  0.11763504406E+02 -0.17604132894E+02  0.42772713970E+02  0.00000000000E+00 0.  1.
</event>
<event>
12    1  0.8406581E-002  0.2074066E+03  0.7818608E-02  0.1143905E+00
         21   -1    0    0  501  502  0.00000000000E+00  0.00000000000E+00  0.27378340306E+03  0.27378340306E+03  0.00000000000E+00 0.  1.
         21   -1    0    0  502  503 -0.00000000000E+00 -0.00000000000E+00 -0.24058157651E+03  0.24058157651E+03  0.00000000000E+00 0. -1.
         -6    2    1    2    0  503 -0.11112305553E+03 -0.30191657994E+02 -0.13575191962E+03  0.24788315949E+03  0.17250393443E+03 0.  0.
        -24    2    3    3    0    0 -0.70519394810E+02 -0.51401927667E+02 -0.15778396118E+03  0.19683383374E+03  0.78947048624E+02 0.  0.
          6    2    1    2  501    0  0.11112305553E+03  0.30191657994E+02  0.16895374617E+03  0.26648182009E+03  0.17090149914E+03 0.  0.
         24    2    5    5    0    0  0.14288876362E+03  0.67306116649E+01  0.15058201969E+03  0.22267438648E+03  0.80289711918E+02 0.  0.
          5    1    5    5  501    0 -0.31765708087E+02  0.23461046329E+02  0.18371726486E+02  0.43807433607E+02  0.47000000000E+01 0. -1.
        -13    1    6    6    0    0  0.51237834958E+02  0.41580064383E+02  0.60619639085E+02  0.89604453729E+02  0.00000000000E+00 0.  1.
         14    1    6    6    0    0  0.91650928663E+02 -0.34849452718E+02  0.89962380602E+02  0.13306993275E+03  0.00000000000E+00 0. -1.
         -5    1    3    3    0  503 -0.40603660724E+02  0.21210269673E+02  0.22032041562E+02  0.51049325747E+02  0.47000000000E+01 0.  1.
         13    1    4    4    0    0 -0.75114095445E+02 -0.54611654545E+02 -0.91698780448E+02  0.13051140365E+03  0.00000000000E+00 0. -1.
        -14    1    4    4    0    0  0.45947006353E+01  0.32097268786E+01 -0.66085180737E+02  0.66322430094E+02  0.00000000000E+00 0.  1.
</event>
<event>
12    1  0.8406581E-002  0.1969876E+03  0.7818608E-02  0.1152881E+00
         21   -1    0    0  501  502  0.00000000000E+00  0.00000000000E+00  0.34111702064E+03  0.34111702064E+03  0.00000000000E+00 0. -1.
         21   -1    0    0  502  503 -0.00000000000E+00 -0.00000000000E+00 -0.12832036255E+03  0.12832036255E+03  0.00000000000E+00 0.  1.
         -6    2    1    2    0  503 -0.83286133699E+02  0.39689004237E+02  0.22647123429E+02  0.19564738720E+03  0.17103570035E+03 0.  0.
        -24    2    3    3    0    0 -0.16415855202E+02  0.59458058043E+02  0.58562950824E+02  0.11706948768E+03  0.80441934143E+02 0.  0.
          6    2    1    2  501    0  0.83286133699E+02 -0.39689004237E+02  0.19014953466E+03  0.27378999599E+03  0.17404688808E+03 0.  0.
         24    2    5    5    0    0  0.78974108393E+02 -0.34706225578E+02  0.21642930577E+03  0.24629203216E+03  0.79854172207E+02 0.  0.
          5    1    5    5  501    0  0.43120253063E+01 -0.49827786595E+01 -0.26279771111E+02  0.27497963835E+02  0.47000000000E+01 0. -1.
        -13    1    6    6    0    0  0.30246472970E+02 -0.25000406167E+02  0.20722192221E+02  0.44376555590E+02  0.00000000000E+00 0.  1.
         14    1    6    6    0    0  0.48727635423E+02 -0.97058194108E+01  0.19570711355E+03  0.20191547657E+03  0.00000000000E+00 0. -1.
         -5    1    3    3    0  503 -0.66870278497E+02 -0.19769053805E+02 -0.35915827395E+02  0.78577899514E+02  0.47000000000E+01 0.  1.
         11    1    4    4    0    0  0.23178504976E+02  0.56182994617E+02  0.27854205135E+02  0.66855281921E+02  0.00000000000E+00 0. -1.
        -12    1    4    4    0    0 -0.39594360178E+02  0.32750634251E+01  0.30708745689E+02  0.50214205760E+02  0.00000000000E+00 0.  1.
</event>
<event>
12    1  0.8406581E-002  0.1831876E+03  0.7818608E-02  0.1166709E+00
         21   -1    0    0  501  502  0.00000000000E+00  0.00000000000E+00  0.17727446907E+03  0.17727446907E+03  0.00000000000E+00 0.  1.
         21   -1    0    0  502  503 -0.00000000000E+00 -0.00000000000E+00 -0.41078494044E+03  0.41078494044E+03  0.00000000000E+00 0.  1.
         -6    2    1    2    0  503 -0.90074548644E+01 -0.27492751101E+02 -0.33545828917E+03  0.37841435575E+03  0.17270835319E+03 0.  0.
        -24    2    3    3    0    0 -0.50106480548E+02 -0.52301926392E+02 -0.29862496823E+03  0.31772326396E+03  0.80777781087E+02 0.  0.
          6    2    1    2  501    0  0.90074548644E+01  0.27492751101E+02  0.10194781780E+03  0.20964505376E+03  0.18088865472E+03 0.  0.
         24    2    5    5    0    0  0.74427516459E+02 -0.18169401556E+01  0.42292412739E+02  0.11626572085E+03  0.78653119409E+02 0.  0.
          5    1    5    5  501    0 -0.65420061595E+02  0.29309691257E+02  0.59655405060E+02  0.93379332904E+02  0.47000000000E+01 0. -1.
        -11    1    6    6    0    0  0.81585248790E+02 -0.12703225682E+02  0.12188027900E+02  0.83463002504E+02  0.00000000000E+00 0.  1.
         12    1    6    6    0    0 -0.71577323313E+01  0.10886285526E+02  0.30104384839E+02  0.32802718351E+02  0.00000000000E+00 0. -1.
         -5    1    3    3    0  503  0.41099025683E+02  0.24809175291E+02 -0.36833320939E+02  0.60691091785E+02  0.47000000000E+01 0.  1.
         11    1    4    4    0    0 -0.11041479156E+02  0.17465318011E+02 -0.23876176075E+02  0.31575677018E+02  0.00000000000E+00 0. -1.
        -12    1    4    4    0    0 -0.39065001391E+02 -0.69767244403E+02 -0.27474879215E+03  0.28614758695E+03  0.00000000000E+00 0.  1.
</event>
<event>
12    1  0.8406581E-002  0.1732049E+03  0.7818608E-02  0.1174750E+00
         21   -1    0    0  501  502  0.00000000000E+00  0.00000000000E+00  0.13791057558E+04  0.13791057558E+04  0.00000000000E+00 0.  1.
         21   -1    0    0  502  503 -0.00000000000E+00 -0.00000000000E+00 -0.21833427286E+03  0.21833427286E+03  0.00000000000E+00 0.  1.
         -6    2    1    2    0  503  0.53816437895E+01  0.46488610517E+01 -0.17756130777E+03  0.24804832616E+03  0.17305889199E+03 0.  0.
        -24    2    3    3    0    0  0.16150082667E+02  0.55750842944E+02 -0.54417380607E+02  0.11420555039E+03  0.81930914614E+02 0.  0.
          6    2    1    2  501    0 -0.53816437895E+01 -0.46488610517E+01  0.13383327907E+04  0.13493917025E+04  0.17225775474E+03 0.  0.
         24    2    5    5    0    0 -0.39355664530E+02 -0.43636847924E+02  0.11397776805E+04  0.11441588616E+04  0.80952434796E+02 0.  0.
          5    1    5    5  501    0  0.33974020741E+02  0.38987986872E+02  0.19855511021E+03  0.20523284093E+03  0.47000000000E+01 0. -1.
        -13    1    6    6    0    0 -0.14333015976E+02 -0.64838866569E+02  0.82904105005E+03  0.83169620453E+03  0.00000000000E+00 0.  1.
         14    1    6    6    0    0 -0.25022648554E+02  0.21202018645E+02  0.31073663046E+03  0.31246265704E+03  0.00000000000E+00 0. -1.
         -5    1    3    3    0  503 -0.10768438877E+02 -0.51101981893E+02 -0.12314392716E+03  0.13384277577E+03  0.47000000000E+01 0.  1.
         11    1    4    4    0    0 -0.30830593044E+02  0.40331035190E+02 -0.24002663729E+02  0.56153768645E+02  0.00000000000E+00 0. -1.
        -12    1    4    4    0    0  0.46980675711E+02  0.15419807754E+02 -0.30414716878E+02  0.58051781748E+02  0.00000000000E+00 0.  1.
</event>
<event>
12    1  0.8406581E-002  0.2078824E+03  0.7818608E-02  0.1143403E+00
         21   -1    0    0  503  502  0.00000000000E+00  0.00000000000E+00  0.30212638454E+03  0.30212638454E+03  0.00000000000E+00 0. -1.
         21   -1    0    0  501  503 -0.00000000000E+00 -0.00000000000E+00 -0.18430828499E+03  0.18430828499E+03  0.00000000000E+00 0. -1.
          6    2    1    2  501    0 -0.10187089325E+03  0.56285783597E+02 -0.56975068744E+02  0.21483249523E+03  0.17135073453E+03 0.  0.
         24    2    3    3    0    0 -0.13621838837E+03  0.25672859134E+02 -0.31932731784E+02  0.16223867235E+03  0.78020141119E+02 0.  0.
         -6    2    1    2    0  502  0.10187089325E+03 -0.56285783597E+02  0.17479316829E+03  0.27160217429E+03  0.17224784781E+03 0.  0.
        -24    2    5    5    0    0  0.58070886125E+01 -0.74189091154E+02  0.10418031389E+03  0.15094958133E+03  0.79965584954E+02 0.  0.
          5    1    3    3  501    0  0.34347495121E+02  0.30612924463E+02 -0.25042336960E+02  0.52593822886E+02  0.47000000000E+01 0. -1.
        -11    1    4    4    0    0 -0.64420735017E+02 -0.25004669031E+02 -0.11205149144E+01  0.69112373184E+02  0.00000000000E+00 0.  1.
         12    1    4    4    0    0 -0.71797653353E+02  0.50677528164E+02 -0.30812216869E+02  0.93126299165E+02  0.00000000000E+00 0. -1.
         -5    1    5    5    0  502  0.96063804636E+02  0.17903307557E+02  0.70612854402E+02  0.12065259297E+03  0.47000000000E+01 0.  1.
         11    1    6    6    0    0  0.14131902723E+02 -0.81559399526E+02  0.52348919600E+02  0.97939040780E+02  0.00000000000E+00 0. -1.
        -12    1    6    6    0    0 -0.83248141103E+01  0.73703083721E+01  0.51831394285E+02  0.53010540547E+02  0.00000000000E+00 0.  1.
</event>
<event>
12    1  0.8406581E-002  0.2791777E+03  0.7818608E-02  0.1096267E+00
         21   -1    0    0  501  502  0.00000000000E+00  0.00000000000E+00  0.29810282624E+03  0.29810282624E+03  0.00000000000E+00 0. -1.
         21   -1    0    0  502  503 -0.00000000000E+00 -0.00000000000E+00 -0.27229220816E+03  0.27229220816E+03  0.00000000000E+00 0.  1.
         -6    2    1    2    0  503  0.69919966920E+02 -0.20680503569E+03 -0.46211665145E+02  0.28297647062E+03  0.17402022976E+03 0.  0.
        -24    2    3    3    0    0 -0.24983760827E+01 -0.43691906632E+02 -0.52747554105E+02  0.10432844482E+03  0.78656820090E+02 0.  0.
          6    2    1    2  501    0 -0.69919966920E+02  0.20680503569E+03  0.72022283220E+02  0.28741856379E+03  0.17252564148E+03 0.  0.
         24    2    5    5    0    0 -0.16436834842E+02  0.14106148844E+03 -0.20638311546E+02  0.16175737151E+03  0.74639093469E+02 0.  0.
          5    1    5    5  501    0 -0.53483132078E+02  0.65743547255E+02  0.92660594765E+02  0.12566119228E+03  0.47000000000E+01 0. -1.
        -13    1    6    6    0    0  0.13228353723E+02 -0.13531696491E+01  0.46842857043E+01  0.14098331209E+02  0.00000000000E+00 0.  1.
         14    1    6    6    0    0 -0.29665188565E+02  0.14241465809E+03 -0.25322597250E+02  0.14765904030E+03  0.00000000000E+00 0. -1.
         -5    1    3    3    0  503  0.72418343003E+02 -0.16311312906E+03  0.65358889602E+01  0.17864802579E+03  0.47000000000E+01 0.  1.
         13    1    4    4    0    0  0.19987960107E+01 -0.22461337854E+02  0.18927055274E+02  0.29440453547E+02  0.00000000000E+00 0. -1.
        -14    1    4    4    0    0 -0.44971720933E+01 -0.21230568778E+02 -0.71674609380E+02  0.74887991275E+02  0.00000000000E+00 0.  1.
</event>
<event>
12    1  0.8406581E-002  0.1996439E+03  0.7818608E-02  0.1150283E+00
         21   -1    0    0  503  502  0.00000000000E+00  0.00000000000E+00  0.24845635356E+03  0.24845635356E+03  0.00000000000E+00 0. -1.
         21   -1    0    0  501  503 -0.00000000000E+00 -0.00000000000E+00 -0.17383078155E+03  0.17383078155E+03  0.00000000000E+00 0.  1.
          6    2    1    2  501    0 -0.37068075403E+02  0.92779856368E+02 -0.23209034258E+02  0.20098841028E+03  0.17284541600E+03 0.  0.
         24    2    3    3    0    0 -0.42607886463E+02  0.10856698634E+03 -0.66366775555E+02  0.15446310949E+03  0.76498894015E+02 0.  0.
         -6    2    1    2    0  502  0.37068075403E+02 -0.92779856368E+02  0.97834606275E+02  0.22129872483E+03  0.17152076103E+03 0.  0.
        -24    2    5    5    0    0 -0.32349920884E+02 -0.13447112699E+02  0.60312049772E+02  0.10930508808E+03  0.84158877790E+02 0.  0.
          5    1    3    3  501    0  0.55398110599E+01 -0.15787129971E+02  0.43157741297E+02  0.46525300785E+02  0.47000000000E+01 0. -1.
        -11    1    4    4    0    0 -0.36808639752E+02  0.16655394470E+02 -0.43912975633E+02  0.59670994246E+02  0.00000000000E+00 0.  1.
         12    1    4    4    0    0 -0.57992467103E+01  0.91911591869E+02 -0.22453799922E+02  0.94792115248E+02  0.00000000000E+00 0. -1.
         -5    1    5    5    0  502  0.69417996287E+02 -0.79332743669E+02  0.37522556503E+02  0.11199363675E+03  0.47000000000E+01 0.  1.
         11    1    6    6    0    0 -0.31542151970E+02 -0.34655293050E+02  0.71365814820E+02  0.85375501241E+02  0.00000000000E+00 0. -1.
        -12    1    6    6    0    0 -0.80776891371E+00  0.21208180351E+02 -0.11053765048E+02  0.23929586836E+02  0.00000000000E+00 0.  1.
</event>
<event>
12    1  0.8406581E-002  0.2226061E+03  0.7818608E-02  0.1131957E+00
         21   -1    0    0  501  502  0.00000000000E+00  0.00000000000E+00  0.33594501109E+03  0.33594501109E+03  0.00000000000E+00 0. -1.
         21   -1    0    0  502  503 -0.00000000000E+00 -0.00000000000E+00 -0.16438233350E+03  0.16438233350E+03  0.00000000000E+00 0. -1.
         -6    2    1    2    0  503  0.14136697195E+03  0.42554319560E+01  0.16595918971E+03  0.27765075312E+03  0.17188588830E+03 0.  0.
        -24    2    3    3    0    0  0.16805678720E+03  0.19156736651E+02  0.16599879623E+03  0.24672363414E+03  0.68606756302E+02 0.  0.
          6    2    1    2  501    0 -0.14136697195E+03 -0.42554319560E+01  0.56034878819E+01  0.22267659148E+03  0.17190327472E+03 0.  0.
         24    2    5    5    0    0 -0.94983542007E+02  0.31573561067E+02  0.60815164127E+02  0.14201954896E+03  0.80326241594E+02 0.  0.
          5    1    5    5  501    0 -0.46383429944E+02 -0.35828993023E+02 -0.55211676246E+02  0.80657042521E+02  0.47000000000E+01 0. -1.
        -11    1    6    6    0    0 -0.70158688762E+02  0.57856994085E+02  0.34327204151E+02  0.97200978998E+02  0.00000000000E+00 0.  1.
         12    1    6    6    0    0 -0.24824853245E+02 -0.26283433017E+02  0.26487959976E+02  0.44818569963E+02  0.00000000000E+00 0. -1.
         -5    1    3    3    0  503 -0.26689815247E+02 -0.14901304695E+02 -0.39606519196E-01  0.30927118977E+02  0.47000000000E+01 0.  1.
         11    1    4    4    0    0  0.71371834592E+02 -0.25613312858E+02  0.74026214034E+02  0.10597103818E+03  0.00000000000E+00 0. -1.
        -12    1    4    4    0    0  0.96684952607E+02  0.44770049509E+02  0.91972582194E+02  0.14075259596E+03  0.00000000000E+00 0.  1.
</event>
<event>
12    1  0.8406581E-002  0.2967169E+03  0.7818608E-02  0.1087228E+00
         21   -1    0    0  503  502  0.00000000000E+00  0.00000000000E+00  0.26869779822E+03  0.26869779822E+03  0.00000000000E+00 0.  1.
         21   -1    0    0  501  503 -0.00000000000E+00 -0.00000000000E+00 -0.58464171461E+03  0.58464171461E+03  0.00000000000E+00 0. -1.
          6    2    1    2  501    0  0.36298060337E+02  0.23872105230E+03 -0.44204676237E+03  0.53093786204E+03  0.16788205153E+03 0.  0.
         24    2    3    3    0    0  0.24490180263E+02  0.65852376771E+02 -0.25335866660E+03  0.27471863462E+03  0.79645526003E+02 0.  0.
         -6    2    1    2    0  502 -0.36298060337E+02 -0.23872105230E+03  0.12610284599E+03  0.32240165079E+03  0.17244015387E+03 0.  0.
        -24    2    5    5    0    0 -0.76098189208E+02 -0.22875670133E+03  0.95418500085E+02  0.27095305866E+03  0.78678504285E+02 0.  0.
          5    1    3    3  501    0  0.11807880074E+02  0.17286867553E+03 -0.18868809577E+03  0.25621922742E+03  0.47000000000E+01 0. -1.
        -13    1    4    4    0    0 -0.23958940716E+02  0.47608862681E+01 -0.33625092901E+02  0.41561325182E+02  0.00000000000E+00 0.  1.
         14    1    4    4    0    0  0.48449120979E+02  0.61091490503E+02 -0.21973357370E+03  0.23315730944E+03  0.00000000000E+00 0. -1.
         -5    1    5    5    0  502  0.39800128871E+02 -0.99643509782E+01  0.30684345905E+02  0.51448592130E+02  0.47000000000E+01 0.  1.
         11    1    6    6    0    0  0.15538325816E+02 -0.45374608246E+02  0.10736304617E+02  0.49148376164E+02  0.00000000000E+00 0. -1.
        -12    1    6    6    0    0 -0.91636515025E+02 -0.18338209308E+03  0.84682195468E+02  0.22180468250E+03  0.00000000000E+00 0.  1.
</event>
<event>
12    1  0.8406581E-002  0.2253518E+03  0.7818608E-02  0.1130708E+00
         21   -1    0    0  501  502  0.00000000000E+00  0.00000000000E+00  0.72236490415E+02  0.72236490415E+02  0.00000000000E+00 0.  1.
         21   -1    0    0  502  503 -0.00000000000E+00 -0.00000000000E+00 -0.76550381974E+03  0.76550381974E+03  0.00000000000E+00 0.  1.
         -6    2    1    2    0  503  0.10973728188E+03 -0.80214492889E+02 -0.47512139049E+03  0.52409863980E+03  0.17453484649E+03 0.  0.
        -24    2    3    3    0    0 -0.11835071754E+01  0.57132736957E+01 -0.17752700380E+03  0.19505227300E+03  0.80594726500E+02 0.  0.
          6    2    1    2  501    0 -0.10973728188E+03  0.80214492889E+02 -0.21814593884E+03  0.31364167035E+03  0.17974095484E+03 0.  0.
         24    2    5    5    0    0 -0.12523320375E+03  0.78152376678E+02 -0.23589104501E+03  0.28953037195E+03  0.79950621421E+02 0.  0.
          5    1    5    5  501    0  0.15495921867E+02  0.20621162112E+01  0.17745106170E+02  0.24111298405E+02  0.47000000000E+01 0. -1.
        -13    1    6    6    0    0 -0.99419568977E+02  0.19072916799E+02 -0.12078159499E+03  0.15759511585E+03  0.00000000000E+00 0.  1.
         14    1    6    6    0    0 -0.25813634771E+02  0.59079459878E+02 -0.11510945001E+03  0.13193525610E+03  0.00000000000E+00 0. -1.
         -5    1    3    3    0  503  0.11092078906E+03 -0.85927766584E+02 -0.29759438669E+03  0.32904636680E+03  0.47000000000E+01 0.  1.
         11    1    4    4    0    0  0.73537821441E+01  0.10637368045E+02  0.37836434143E+01  0.13473962604E+02  0.00000000000E+00 0. -1.
        -12    1    4    4    0    0 -0.85372893196E+01 -0.49240943497E+01 -0.18131064721E+03  0.18157831040E+03  0.00000000000E+00 0.  1.
</event>
<event>
12    1  0.8406581E-002  0.2168380E+03  0.7818608E-02  0.1136311E+00
         21   -1    0    0  501  502  0.00000000000E+00  0.00000000000E+00  0.83020245318E+02  0.83020245318E+02  0.00000000000E+00 0.  1.
         21   -1    0    0  502  503 -0.00000000000E+00 -0.00000000000E+00 -0.57998217162E+03  0.57998217162E+03  0.00000000000E+00 0.  1.
         -6    2    1    2    0  503  0.10232538722E+03  0.79541549705E+02 -0.30067961706E+03  0.37071143581E+03  0.17384301402E+03 0.  0.
        -24    2    3    3    0    0  0.61228458622E+02  0.56252454635E+02 -0.30247849286E+03  0.32320706292E+03  0.77822259542E+02 0.  0.
          6    2    1    2  501    0 -0.10232538722E+03 -0.79541549705E+02 -0.19628230924E+03  0.29229098113E+03  0.17352213037E+03 0.  0.
         24    2    5    5    0    0 -0.11947400647E+03 -0.73027374833E+02 -0.21279305278E+03  0.26716720219E+03  0.80562987271E+02 0.  0.
          5    1    5    5  501    0  0.17148619243E+02 -0.65141748717E+01  0.16510743537E+02  0.25123778942E+02  0.47000000000E+01 0. -1.
        -13    1    6    6    0    0 -0.12138046710E+03 -0.68355155762E+02 -0.15205244199E+03  0.20621733736E+03  0.00000000000E+00 0.  1.
         14    1    6    6    0    0  0.19064606366E+01 -0.46722190708E+01 -0.60740610795E+02  0.60949864832E+02  0.00000000000E+00 0. -1.
         -5    1    3    3    0  503  0.41096928601E+02  0.23289095069E+02  0.17988757981E+01  0.47504372891E+02  0.47000000000E+01 0.  1.
         13    1    4    4    0    0 -0.18046191044E+02  0.27825345369E+01 -0.49349327196E+02  0.52619042222E+02  0.00000000000E+00 0. -1.
        -14    1    4    4    0    0  0.79274649667E+02  0.53469920099E+02 -0.25312916566E+03  0.27058802070E+03  0.00000000000E+00 0.  1.
</event>
<event>
12    1  0.8406581E-002  0.1764024E+03  0.7818608E-02  0.1171439E+00
         21   -1    0    0  503  502  0.00000000000E+00  0.00000000000E+00  0.67997960092E+02  0.67997960092E+02  0.00000000000E+00 0.  1.
         21   -1    0    0  501  503 -0.00000000000E+00 -0.00000000000E+00 -0.66061910990E+03  0.66061910990E+03  0.00000000000E+00 0.  1.
          6    2    1    2  501    0  0.13610355698E+02  0.36088052161E+02 -0.49856130473E+03  0.52870447684E+03  0.17169001125E+03 0.  0.
         24    2    3    3    0    0  0.89262105885E+01  0.23272417522E+02 -0.50577562644E+03  0.51257009912E+03  0.79358928677E+02 0.  0.
         -6    2    1    2    0  502 -0.13610355698E+02 -0.36088052161E+02 -0.94059845078E+02  0.19991259316E+03  0.17213425329E+03 0.  0.
        -24    2    5    5    0    0  0.40541676184E+02  0.24186314672E+02 -0.64727744993E+02  0.11361135360E+03  0.80555902134E+02 0.  0.
          5    1    3    3  501    0  0.46841451099E+01  0.12815634639E+02  0.72143217075E+01  0.16134377717E+02  0.47000000000E+01 0. -1.
        -13    1    4    4    0    0 -0.31562021012E+02  0.26342687773E+02 -0.30230266766E+03  0.30508523603E+03  0.00000000000E+00 0.  1.
         14    1    4    4    0    0  0.40488231600E+02 -0.30702702508E+01 -0.20347295877E+03  0.20748486308E+03  0.00000000000E+00 0. -1.
         -5    1    5    5    0  502 -0.54152031883E+02 -0.60274366833E+02 -0.29332100086E+02  0.86301239560E+02  0.47000000000E+01 0.  1.
         13    1    6    6    0    0  0.32743292721E+02 -0.25961798612E+02 -0.36815155634E+02  0.55691057538E+02  0.00000000000E+00 0. -1.
        -14    1    6    6    0    0  0.77983834629E+01  0.50148113284E+02 -0.27912589359E+02  0.57920296057E+02  0.00000000000E+00 0.  1.
</event>
<event>
12    1  0.8406581E-002  0.2391747E+03  0.7818608E-02  0.1120396E+00
         21   -1    0    0  503  502  0.00000000000E+00  0.00000000000E+00  0.42826768739E+02  0.42826768739E+02  0.00000000000E+00 0.  1.
         21   -1    0    0  501  503 -0.00000000000E+00 -0.00000000000E+00 -0.21319468682E+04  0.21319468682E+04  0.00000000000E+00 0. -1.
          6    2    1    2  501    0  0.14829665853E+03 -0.73227148842E+02 -0.17093882028E+04  0.17259965575E+04  0.17234260746E+03 0.  0.
         24    2    3    3    0    0  0.16641989819E+03 -0.57006805802E+02 -0.11519207979E+04  0.11679790409E+04  0.79423905907E+02 0.  0.
         -6    2    1    2    0  502 -0.14829665853E+03  0.73227148842E+02 -0.37973189666E+03  0.44877707944E+03  0.17277279715E+03 0.  0.
        -24    2    5    5    0    0 -0.85741234749E+02  0.10940863654E+03 -0.30820548575E+03  0.34699103643E+03  0.78040686994E+02 0.  0.
          5    1    3    3  501    0 -0.18123239665E+02 -0.16220343041E+02 -0.55746740484E+03  0.55801751658E+03  0.47000000000E+01 0. -1.
        -11    1    4    4    0    0  0.46676248117E+02 -0.61416441298E+01 -0.13942117603E+03  0.14715521145E+03  0.00000000000E+00 0.  1.
         12    1    4    4    0    0  0.11974365008E+03 -0.50865161672E+02 -0.10124996219E+04  0.10208238294E+04  0.00000000000E+00 0. -1.
         -5    1    5    5    0  502 -0.62555423779E+02 -0.36181487695E+02 -0.71526410903E+02  0.10178604301E+03  0.47000000000E+01 0.  1.
         11    1    6    6    0    0 -0.41778431323E+02  0.50278480322E+02 -0.23181617789E+03  0.24085701824E+03  0.00000000000E+00 0. -1.
        -12    1    6    6    0    0 -0.43962803427E+02  0.59130156216E+02 -0.76389307867E+02  0.10613401818E+03  0.00000000000E+00 0.  1.
</event>
<event>
12    1  0.8406581E-002  0.2445437E+03  0.7818608E-02  0.1117539E+00
         21   -1    0    0  501  502  0.00000000000E+00  0.00000000000E+00  0.12765005580E+03  0.12765005580E+03  0.00000000000E+00 0. -1.
         21   -1    0    0  502  503 -0.00000000000E+00 -0.00000000000E+00 -0.57869675355E+03  0.57869675355E+03  0.00000000000E+00 0.  1.
         -6    2    1    2    0  503  0.11701815500E+03  0.12120958228E+03 -0.67187955639E+02  0.25360568300E+03  0.17724731205E+03 0.  0.
        -24    2    3    3    0    0  0.87974525393E+02  0.13475873481E+03 -0.18405418940E+00  0.17918307377E+03  0.78785191032E+02 0.  0.
          6    2    1    2  501    0 -0.11701815500E+03 -0.12120958228E+03 -0.38385874211E+03  0.45274112635E+03  0.17100287178E+03 0.  0.
         24    2    5    5    0    0 -0.12603300747E+03 -0.42397357649E+02 -0.20269017851E+03  0.25491096496E+03  0.78831698499E+02 0.  0.
          5    1    5    5  501    0  0.90148524639E+01 -0.78812224634E+02 -0.18116856360E+03  0.19783016138E+03  0.47000000000E+01 0. -1.
        -13    1    6    6    0    0 -0.40926322417E+02 -0.40112181477E+02 -0.13323594496E+03  0.14503712627E+03  0.00000000000E+00 0.  1.
         14    1    6    6    0    0 -0.85106685048E+02 -0.22851761718E+01 -0.69454233555E+02  0.10987383869E+03  0.00000000000E+00 0. -1.
         -5    1    3    3    0  503  0.29043629608E+02 -0.13549152523E+02 -0.67003901450E+02  0.74422609228E+02  0.47000000000E+01 0.  1.
         13    1    4    4    0    0  0.48971441823E+02  0.80314914785E+02  0.38726546360E+02  0.10172724829E+03  0.00000000000E+00 0. -1.
        -14    1    4    4    0    0  0.39003083571E+02  0.54443820021E+02 -0.38910600550E+02  0.77455825486E+02  0.00000000000E+00 0.  1.
</event>
<event>
12    1  0.8406581E-002  0.1835196E+03  0.7818608E-02  0.1167225E+00
         21   -1    0    0  503  502  0.00000000000E+00  0.00000000000E+00  0.11504749497E+03  0.11504749497E+03  0.00000000000E+00 0.  1.
         21   -1    0    0  501  503 -0.00000000000E+00 -0.00000000000E+00 -0.53894552927E+03  0.53894552927E+03  0.00000000000E+00 0.  1.
          6    2    1    2  501    0  0.70767625950E+01  0.63475042497E+02 -0.43733456748E+03  0.46998222730E+03  0.15982055086E+03 0.  0.
         24    2    3    3    0    0 -0.13094013257E+00  0.58758801543E+02 -0.44533630239E+03  0.45732080285E+03  0.85821212925E+02 0.  0.
         -6    2    1    2    0  502 -0.70767625950E+01 -0.63475042497E+02  0.13436533179E+02  0.18401079694E+03  0.17204729402E+03 0.  0.
        -24    2    5    5    0    0  0.39332861090E+02  0.17189044966E+02  0.16748637948E+01  0.90090750927E+02  0.79189652137E+02 0.  0.
          5    1    3    3  501    0  0.72077027276E+01  0.47162409538E+01  0.80017349151E+01  0.12661424446E+02  0.47000000000E+01 0. -1.
        -11    1    4    4    0    0 -0.12695313755E+02  0.71229355612E+02 -0.22662540153E+03  0.23789465045E+03  0.00000000000E+00 0.  1.
         12    1    4    4    0    0  0.12564373623E+02 -0.12470554069E+02 -0.21871090086E+03  0.21942615240E+03  0.00000000000E+00 0. -1.
         -5    1    5    5    0  502 -0.46409623685E+02 -0.80664087463E+02  0.11761669384E+02  0.93920046015E+02  0.47000000000E+01 0.  1.
         13    1    6    6    0    0  0.51398937423E+02 -0.25715175518E+01 -0.22898844345E+02  0.56327795475E+02  0.00000000000E+00 0. -1.
        -14    1    6    6    0    0 -0.12066076333E+02  0.19760562518E+02  0.24573708140E+02  0.33762955452E+02  0.00000000000E+00 0.  1.
</event>
<event>
12    1  0.8406581E-002  0.1841716E+03  0.7818608E-02  0.1164128E+00
         21   -1    0    0  501  502  0.00000000000E+00  0.00000000000E+00  0.32852819390E+03  0.32852819390E+03  0.00000000000E+00 0. -1.
         21   -1    0    0  502  503 -0.00000000000E+00 -0.00000000000E+00 -0.28992571868E+03  0.28992571868E+03  0.00000000000E+00 0. -1.
         -6    2    1    2    0  503 -0.16750842292E+02  0.59200808506E+02 -0.22933083853E+03  0.29332709080E+03  0.17222898203E+03 0.  0.
        -24    2    3    3    0    0 -0.41046374940E+02 -0.58658872329E+01 -0.19737276886E+03  0.21672842229E+03  0.79347247020E+02 0.  0.
          6    2    1    2  501    0  0.16750842292E+02 -0.59200808506E+02  0.26793331375E+03  0.32512682179E+03  0.17359108037E+03 0.  0.
         24    2    5    5    0    0  0.75681860370E+02 -0.60517662934E+02  0.17859883278E+03  0.21799448080E+03  0.78955171268E+02 0.  0.
          5    1    5    5  501    0 -0.58931018078E+02  0.13168544284E+01  0.89334480965E+02  0.10713234099E+03  0.47000000000E+01 0. -1.
        -11    1    6    6    0    0 -0.28615040023E+01 -0.38370542992E+02  0.31298256871E+02  0.49599069122E+02  0.00000000000E+00 0.  1.
         12    1    6    6    0    0  0.78543364373E+02 -0.22147119943E+02  0.14730057591E+03  0.16839541167E+03  0.00000000000E+00 0. -1.
         -5    1    3    3    0  503  0.24295532648E+02  0.65066695739E+02 -0.31958069667E+02  0.76598668512E+02  0.47000000000E+01 0.  1.
         13    1    4    4    0    0  0.12883967979E+02 -0.25697465158E+02 -0.40515322967E+02  0.49677436946E+02  0.00000000000E+00 0. -1.
        -14    1    4    4    0    0 -0.53930342918E+02  0.19831577925E+02 -0.15685744589E+03  0.16705098534E+03  0.00000000000E+00 0.  1.
</event>
<event>
12    1  0.8406581E-002  0.2090419E+03  0.7818608E-02  0.1144057E+00
         21   -1    0    0  503  502  0.00000000000E+00  0.00000000000E+00  0.11324216115E+03  0.11324216115E+03  0.00000000000E+00 0.  1.
         21   -1    0    0  501  503 -0.00000000000E+00 -0.00000000000E+00 -0.45573469794E+03  0.45573469794E+03  0.00000000000E+00 0. -1.
          6    2    1    2  501    0  0.87495610119E+02  0.78621205330E+02 -0.45246412919E+02  0.20558479624E+03  0.16242258108E+03 0.  0.
         24    2    3    3    0    0  0.77022010068E+02  0.10177641219E+03 -0.72760981535E+02  0.16783560566E+03  0.81140630889E+02 0.  0.
         -6    2    1    2    0  502 -0.87495610119E+02 -0.78621205330E+02 -0.29724612387E+03  0.36339206285E+03  0.17280554815E+03 0.  0.
        -24    2    5    5    0    0 -0.55780072646E+02 -0.67769249618E+02 -0.78890111977E+02  0.14242808798E+03  0.79737210767E+02 0.  0.
          5    1    3    3  501    0  0.10473600051E+02 -0.23155206862E+02  0.27514568616E+02  0.37749190573E+02  0.47000000000E+01 0. -1.
        -13    1    4    4    0    0  0.56170661305E+02  0.10579561648E+03 -0.35472671051E+02  0.12492464148E+03  0.00000000000E+00 0.  1.
         14    1    4    4    0    0  0.20851348763E+02 -0.40192042876E+01 -0.37288310484E+02  0.42910964183E+02  0.00000000000E+00 0. -1.
         -5    1    5    5    0  502 -0.31715537473E+02 -0.10851955712E+02 -0.21835601189E+03  0.22096397487E+03  0.47000000000E+01 0.  1.
         11    1    6    6    0    0 -0.11450991792E+02 -0.47555869739E+02 -0.79915450981E+02  0.93697199879E+02  0.00000000000E+00 0. -1.
        -12    1    6    6    0    0 -0.44329080854E+02 -0.20213379878E+02  0.10253390036E+01  0.48730888105E+02  0.00000000000E+00 0.  1.
</event>
<event>
12    1  0.8406581E-002  0.2078824E+03  0.7818608E-02  0.1143617E+00
         21   -1    0    0  501  502  0.00000000000E+00  0.00000000000E+00  0.10468338454E+03  0.10468338454E+03  0.00000000000E+00 0.  1.
         21   -1    0    0  502  503 -0.00000000000E+00 -0.00000000000E+00 -0.58050889587E+03  0.58050889587E+03  0.00000000000E+00 0.  1.
         -6    2    1    2    0  503  0.36197466438E+02  0.10996660295E+03 -0.42472712558E+03  0.47287229142E+03  0.17266198899E+03 0.  0.
        -24    2    3    3    0    0 -0.11439645265E+02  0.79148359122E+02 -0.39097431108E+03  0.40668769312E+03  0.78349470843E+02 0.  0.
          6    2    1    2  501    0 -0.36197466438E+02 -0.10996660295E+03 -0.51098385751E+02  0.21231998899E+03  0.17048701521E+03 0.  0.
         24    2    5    5    0    0 -0.31296579582E+02 -0.86555027753E+02  0.31371882940E+02  0.12632257180E+03  0.80634659939E+02 0.  0.
          5    1    5    5  501    0 -0.49008868568E+01 -0.23411575200E+02 -0.82470268691E+02  0.85997417190E+02  0.47000000000E+01 0. -1.
        -13    1    6    6    0    0  0.22470940741E+01 -0.34389308875E+02 -0.24949482688E+02  0.42545865640E+02  0.00000000000E+00 0.  1.
         14    1    6    6    0    0 -0.33543673656E+02 -0.52165718878E+02  0.56321365628E+02  0.83776706157E+02  0.00000000000E+00 0. -1.
         -5    1    3    3    0  503  0.47637111704E+02  0.30818243832E+02 -0.33752814508E+02  0.66184598296E+02  0.47000000000E+01 0.  1.
         13    1    4    4    0    0  0.19740460671E+02  0.49826067025E+02 -0.10878014737E+03  0.12126600185E+03  0.00000000000E+00 0. -1.
        -14    1    4    4    0    0 -0.31180105937E+02  0.29322292097E+02 -0.28219416371E+03  0.28542169127E+03  0.00000000000E+00 0.  1.
</event>
<event>
12    1  0.8406581E-002  0.1812816E+03  0.7818608E-02  0.1167030E+00
         21   -1    0    0  501  502  0.00000000000E+00  0.00000000000E+00  0.45238603442E+02  0.45238603442E+02  0.00000000000E+00 0.  1.
         21   -1    0    0  502  503 -0.00000000000E+00 -0.00000000000E+00 -0.83296581445E+03  0.83296581445E+03  0.00000000000E+00 0.  1.
         -6    2    1    2    0  503  0.33824286744E+02  0.46687404932E+02 -0.55824336725E+03  0.58694010300E+03  0.17186980907E+03 0.  0.
        -24    2    3    3    0    0  0.78940286999E+02  0.64866166061E+02 -0.40860261531E+03  0.42952229753E+03  0.84226589794E+02 0.  0.
          6    2    1    2  501    0 -0.33824286744E+02 -0.46687404932E+02 -0.22948384376E+03  0.29126431490E+03  0.16984778607E+03 0.  0.
         24    2    5    5    0    0  0.29245573570E+02 -0.54704181085E+02 -0.19319264315E+03  0.21790753456E+03  0.79450898351E+02 0.  0.
          5    1    5    5  501    0 -0.63069860315E+02  0.80167761528E+01 -0.36291200607E+02  0.73356780337E+02  0.47000000000E+01 0. -1.
        -13    1    6    6    0    0 -0.47446798062E+01 -0.87959124542E+01  0.53326867021E+01  0.11327736306E+02  0.00000000000E+00 0.  1.
         14    1    6    6    0    0  0.33990253376E+02 -0.45908268630E+02 -0.19852532985E+03  0.20657979825E+03  0.00000000000E+00 0. -1.
         -5    1    3    3    0  503 -0.45116000254E+02 -0.18178761129E+02 -0.14964075195E+03  0.15741780547E+03  0.47000000000E+01 0.  1.
         13    1    4    4    0    0 -0.71173212065E+01  0.19025734373E+02 -0.18691492886E+02  0.27604469491E+02  0.00000000000E+00 0. -1.
        -14    1    4    4    0    0  0.86057608205E+02  0.45840431688E+02 -0.38991112242E+03  0.40191782804E+03  0.00000000000E+00 0.  1.
</event>
<event>
12    1  0.8406581E-002  0.2014012E+03  0.7818608E-02  0.1149808E+00
         21   -1    0    0  503  502  0.00000000000E+00  0.00000000000E+00  0.31877581431E+03  0.31877581431E+03  0.00000000000E+00 0. -1.
         21   -1    0    0  501  503 -0.00000000000E+00 -0.00000000000E+00 -0.13357337454E+03  0.13357337454E+03  0.00000000000E+00 0.  1.
          6    2    1    2  501    0 -0.94441174758E+02  0.43157929092E+02  0.29428445223E+02  0.19773581248E+03  0.16568547255E+03 0.  0.
         24    2    3    3    0    0 -0.12154241291E+03  0.53878695663E+02 -0.17951907466E+01  0.15476585334E+03  0.79207162973E+02 0.  0.
         -6    2    1    2    0  502  0.94441174758E+02 -0.43157929092E+02  0.15577399455E+03  0.25461337637E+03  0.17257083101E+03 0.  0.
        -24    2    5    5    0    0  0.11821168968E+03  0.91406826469E+01  0.11051880258E+03  0.18133101444E+03  0.81295605155E+02 0.  0.
          5    1    3    3  501    0  0.27101238154E+02 -0.10720766571E+02  0.31223635969E+02  0.42969959140E+02  0.47000000000E+01 0. -1.
        -13    1    4    4    0    0 -0.12444939823E+03  0.30243723613E+02  0.94727004303E+01  0.12842144522E+03  0.00000000000E+00 0.  1.
         14    1    4    4    0    0  0.29069853215E+01  0.23634972050E+02 -0.11267891177E+02  0.26344408117E+02  0.00000000000E+00 0. -1.
         -5    1    5    5    0  502 -0.23770514926E+02 -0.52298611739E+02  0.45255191972E+02  0.73282361930E+02  0.47000000000E+01 0.  1.
         11    1    6    6    0    0  0.23378280982E+02 -0.19619257111E+02  0.65953966356E+02  0.72673137743E+02  0.00000000000E+00 0. -1.
        -12    1    6    6    0    0  0.94833408703E+02  0.28759939758E+02  0.44564836222E+02  0.10865787670E+03  0.00000000000E+00 0.  1.
</event>
<event>
12    1  0.8406581E-002  0.1944955E+03  0.7818608E-02  0.1154793E+00
         21   -1    0    0  501  502  0.00000000000E+00  0.00000000000E+00  0.55398189490E+03  0.55398189490E+03  0.00000000000E+00 0. -1.
         21   -1    0    0  502  503 -0.00000000000E+00 -0.00000000000E+00 -0.25817756468E+03  0.25817756468E+03  0.00000000000E+00 0. -1.
         -6    2    1    2    0  503  0.88354730452E+02 -0.10608843177E+02 -0.20068577441E+03  0.27946960817E+03  0.17294327363E+03 0.  0.
        -24    2    3    3    0    0  0.69936075939E+02 -0.60011213649E+02 -0.10334080067E+03  0.16866358417E+03  0.96310347632E+02 0.  0.
          6    2    1    2  501    0 -0.88354730452E+02  0.10608843177E+02  0.49649010463E+03  0.53268985141E+03  0.17128031952E+03 0.  0.
         24    2    5    5    0    0 -0.40801368688E+02  0.38785241225E+02  0.14217710417E+03  0.17406048296E+03  0.83148518653E+02 0.  0.
          5    1    5    5  501    0 -0.47553361764E+02 -0.28176398048E+02  0.35431300046E+03  0.35862936845E+03  0.47000000000E+01 0. -1.
        -11    1    6    6    0    0 -0.65235397860E+01 -0.22570392337E+02  0.67685944843E+02  0.71647514338E+02  0.00000000000E+00 0.  1.
         12    1    6    6    0    0 -0.34277828902E+02  0.61355633561E+02  0.74491159331E+02  0.10241296862E+03  0.00000000000E+00 0. -1.
         -5    1    3    3    0  503  0.18418654513E+02  0.49402370472E+02 -0.97344973740E+02  0.11080602400E+03  0.47000000000E+01 0.  1.
         11    1    4    4    0    0  0.84658237561E+02 -0.27897291050E+02 -0.98765296729E+02  0.13304082033E+03  0.00000000000E+00 0. -1.
        -12    1    4    4    0    0 -0.14722161622E+02 -0.32113922599E+02 -0.45755039361E+01  0.35622763843E+02  0.00000000000E+00 0.  1.
</event>
<event>
12    1  0.8406581E-002  0.2361800E+03  0.7818608E-02  0.1122396E+00
         21   -1    0    0  503  502  0.00000000000E+00  0.00000000000E+00  0.73218480441E+03  0.73218480441E+03  0.00000000000E+00 0.  1.
         21   -1    0    0  501  503 -0.00000000000E+00 -0.00000000000E+00 -0.21732103146E+03  0.21732103146E+03  0.00000000000E+00 0. -1.
          6    2    1    2  501    0  0.15393833001E+03  0.49005182499E+02 -0.12520774786E+03  0.26731627044E+03  0.17228607303E+03 0.  0.
         24    2    3    3    0    0  0.24064358349E+02  0.66937049909E+02 -0.79506084796E+02  0.12839351352E+03  0.71442387990E+02 0.  0.
         -6    2    1    2    0  502 -0.15393833001E+03 -0.49005182499E+02  0.64007152081E+03  0.68218956543E+03  0.17202480655E+03 0.  0.
        -24    2    5    5    0    0 -0.29800487104E+02  0.10186168309E+01  0.11309685980E+03  0.13846448058E+03  0.74110768956E+02 0.  0.
          5    1    3    3  501    0  0.12987397166E+03 -0.17931867410E+02 -0.45701663068E+02  0.13892275692E+03  0.47000000000E+01 0. -1.
        -11    1    4    4    0    0 -0.22368418798E+02  0.37594011127E+02 -0.48520302657E+02  0.65328979803E+02  0.00000000000E+00 0.  1.
         12    1    4    4    0    0  0.46432777146E+02  0.29343038782E+02 -0.30985782139E+02  0.63064533720E+02  0.00000000000E+00 0. -1.
         -5    1    5    5    0  502 -0.12413784291E+03 -0.50023799330E+02  0.52697466101E+03  0.54372508485E+03  0.47000000000E+01 0.  1.
         13    1    6    6    0    0  0.63459180344E+01 -0.29126955687E+02  0.26420566286E+02  0.39833359715E+02  0.00000000000E+00 0. -1.
        -14    1    6    6    0    0 -0.36146405138E+02  0.30145572518E+02  0.86676293509E+02  0.98631120866E+02  0.00000000000E+00 0.  1.
</event>
<event>
12    1  0.8406581E-002  0.2290574E+03  0.7818608E-02  0.1129199E+00
         21   -1    0    0  501  502  0.00000000000E+00  0.00000000000E+00  0.37824889617E+03  0.37824889617E+03  0.00000000000E+00 0.  1.
         21   -1    0    0  502  503 -0.00000000000E+00 -0.00000000000E+00 -0.16732044564E+03  0.16732044564E+03  0.00000000000E+00 0. -1.
         -6    2    1    2    0  503 -0.86865273622E+02 -0.10434377832E+03 -0.17073277660E+02  0.22969281642E+03  0.18448331435E+03 0.  0.
        -24    2    3    3    0    0 -0.82476694128E+02 -0.74453096767E+02 -0.81269239867E+02  0.15858779524E+03  0.78738369039E+02 0.  0.
          6    2    1    2  501    0  0.86865273622E+02  0.10434377832E+03  0.22800172819E+03  0.31587652539E+03  0.17134757484E+03 0.  0.
         24    2    5    5    0    0 -0.49780328727E+01  0.23445608642E+02  0.14720902432E+03  0.16914800804E+03  0.79787683317E+02 0.  0.
          5    1    5    5  501    0  0.91843306494E+02  0.80898169674E+02  0.80792703875E+02  0.14672851735E+03  0.47000000000E+01 0. -1.
        -13    1    6    6    0    0 -0.21828687520E+02  0.43874187033E+02  0.57184460179E+02  0.75309351163E+02  0.00000000000E+00 0.  1.
         14    1    6    6    0    0  0.16850654647E+02 -0.20428578391E+02  0.90024564137E+02  0.93838656881E+02  0.00000000000E+00 0. -1.
         -5    1    3    3    0  503 -0.43885794941E+01 -0.29890681549E+02  0.64195962207E+02  0.71105021181E+02  0.47000000000E+01 0.  1.
         13    1    4    4    0    0 -0.14421660068E+02  0.82849524332E+01 -0.40813974521E+02  0.44072726625E+02  0.00000000000E+00 0. -1.
        -14    1    4    4    0    0 -0.68055034060E+02 -0.82738049200E+02 -0.40455265346E+02  0.11451506862E+03  0.00000000000E+00 0.  1.
</event>
<event>
12    1  0.8406581E-002  0.1856345E+03  0.7818608E-02  0.1163469E+00
         21   -1    0    0  501  502  0.00000000000E+00  0.00000000000E+00  0.17030420450E+03  0.17030420450E+03  0.00000000000E+00 0.  1.
         21   -1    0    0  502  503 -0.00000000000E+00 -0.00000000000E+00 -0.24942058777E+03  0.24942058777E+03  0.00000000000E+00 0.  1.
         -6    2    1    2    0  503  0.35447897000E+02 -0.55607634743E+02 -0.13475675786E+03  0.22593108335E+03  0.16892811546E+03 0.  0.
        -24    2    3    3    0    0  0.61504442663E+01  0.32735012063E+02 -0.79542560762E+02  0.11760997949E+03  0.79972991209E+02 0.  0.
          6    2    1    2  501    0 -0.35447897000E+02  0.55607634743E+02  0.55640374593E+02  0.19379370892E+03  0.17352633197E+03 0.  0.
         24    2    5    5    0    0 -0.82948636210E+02  0.55250355015E+02  0.12571728632E+02  0.12950182654E+03  0.81728799933E+02 0.  0.
          5    1    5    5  501    0  0.47500739211E+02  0.35727972885E+00  0.43068645961E+02  0.64291882374E+02  0.47000000000E+01 0. -1.
        -13    1    6    6    0    0 -0.10508775234E+02  0.11734395574E+02  0.38097291776E+02  0.41225405239E+02  0.00000000000E+00 0.  1.
         14    1    6    6    0    0 -0.72439860976E+02  0.43515959441E+02 -0.25525563144E+02  0.88276421303E+02  0.00000000000E+00 0. -1.
         -5    1    3    3    0  503  0.29297452733E+02 -0.88342646807E+02 -0.55214197096E+02  0.10832110386E+03  0.47000000000E+01 0.  1.
         11    1    4    4    0    0  0.21175248782E+02  0.34536090887E+02 -0.41604015587E+01  0.40723969304E+02  0.00000000000E+00 0. -1.
        -12    1    4    4    0    0 -0.15024804516E+02 -0.18010788239E+01 -0.75382159204E+02  0.76886010183E+02  0.00000000000E+00 0.  1.
</event>
<event>
12    1  0.8406581E-002  0.1732676E+03  0.7818608E-02  0.1174489E+00
         21   -1    0    0  503  502  0.00000000000E+00  0.00000000000E+00  0.17643796762E+04  0.17643796762E+04  0.00000000000E+00 0. -1.
         21   -1    0    0  501  503 -0.00000000000E+00 -0.00000000000E+00 -0.84165021193E+02  0.84165021193E+02  0.00000000000E+00 0. -1.
          6    2    1    2  501    0 -0.17242663012E+02  0.12221235293E+02  0.14506983825E+02  0.17384958482E+03  0.17194928770E+03 0.  0.
         24    2    3    3    0    0 -0.52104407537E+02  0.49832857290E+02  0.41620315623E+02  0.11564994477E+03  0.80277494368E+02 0.  0.
         -6    2    1    2    0  502  0.17242663012E+02 -0.12221235293E+02  0.16657076712E+04  0.16746951126E+04  0.17197385334E+03 0.  0.
        -24    2    5    5    0    0 -0.99864093066E+01  0.17260897152E+02  0.15493657202E+04  0.15515360363E+04  0.79575561821E+02 0.  0.
          5    1    3    3  501    0  0.34861744525E+02 -0.37611621997E+02 -0.27113331798E+02  0.58199640049E+02  0.47000000000E+01 0. -1.
        -13    1    4    4    0    0 -0.44640366879E+02 -0.77565532495E+01  0.34898353925E+02  0.57191097036E+02  0.00000000000E+00 0.  1.
         14    1    4    4    0    0 -0.74640406578E+01  0.57589410539E+02  0.67219616976E+01  0.58458847733E+02  0.00000000000E+00 0. -1.
         -5    1    5    5    0  502  0.27229072318E+02 -0.29482132444E+02  0.11634195097E+03  0.12315907627E+03  0.47000000000E+01 0.  1.
         13    1    6    6    0    0  0.15995138479E+02  0.39771588397E+02  0.11100245851E+04  0.11108520168E+04  0.00000000000E+00 0. -1.
        -14    1    6    6    0    0 -0.25981547786E+02 -0.22510691245E+02  0.43934113509E+03  0.44068401949E+03  0.00000000000E+00 0.  1.
</event>
<event>
12    1  0.8406581E-002  0.1783179E+03  0.7818608E-02  0.1169712E+00
         21   -1    0    0  503  502  0.00000000000E+00  0.00000000000E+00  0.83107322645E+03  0.83107322645E+03  0.00000000000E+00 0. -1.
         21   -1    0    0  501  503 -0.00000000000E+00 -0.00000000000E+00 -0.65491865129E+02  0.65491865129E+02  0.00000000000E+00 0.  1.
          6    2    1    2  501    0 -0.35866190986E+02  0.20443370568E+02  0.93166375859E+02  0.20118961636E+03  0.17347326331E+03 0.  0.
         24    2    3    3    0    0 -0.27071008230E+02 -0.53700497326E+02  0.35219763015E+02  0.10656103544E+03  0.80611659631E+02 0.  0.
         -6    2    1    2    0  502  0.35866190986E+02 -0.20443370568E+02  0.67241498547E+03  0.69537547522E+03  0.17233926949E+03 0.  0.
        -24    2    5    5    0    0  0.72953774655E+02 -0.63710064685E+02  0.48061023739E+03  0.49522891126E+03  0.69887400042E+02 0.  0.
          5    1    3    3  501    0 -0.87951827563E+01  0.74143867894E+02  0.57946612844E+02  0.94628580916E+02  0.47000000000E+01 0. -1.
        -11    1    4    4    0    0  0.19271315329E+02  0.88493045882E+01  0.21680851088E+00  0.21207092967E+02  0.00000000000E+00 0.  1.
         12    1    4    4    0    0 -0.46342323558E+02 -0.62549801914E+02  0.35002954504E+02  0.85353942477E+02  0.00000000000E+00 0. -1.
         -5    1    5    5    0  502 -0.37087583669E+02  0.43266694117E+02  0.19180474808E+03  0.20014656397E+03  0.47000000000E+01 0.  1.
         11    1    6    6    0    0  0.19351675445E+02 -0.45914368380E+02  0.34109876922E+03  0.34471870696E+03  0.00000000000E+00 0. -1.
        -12    1    6    6    0    0  0.53602099210E+02 -0.17795696305E+02  0.13951146817E+03  0.15051020430E+03  0.00000000000E+00 0.  1.
</event>
<event>
12    1  0.8406581E-002  0.2682833E+03  0.7818608E-02  0.1102622E+00
         21   -1    0    0  503  502  0.00000000000E+00  0.00000000000E+00  0.11215715969E+04  0.11215715969E+04  0.00000000000E+00 0.  1.
         21   -1    0    0  501  503 -0.00000000000E+00 -0.00000000000E+00 -0.68218548326E+02  0.68218548326E+02  0.00000000000E+00 0.  1.
          6    2    1    2  501    0  0.19711806631E+03 -0.52314634811E+02  0.36945238232E+03  0.45515006858E+03  0.17051149243E+03 0.  0.
         24    2    3    3    0    0  0.21828361299E+03 -0.29507519651E+02  0.32868198757E+03  0.40364803022E+03  0.79884002954E+02 0.  0.
         -6    2    1    2    0  502 -0.19711806631E+03  0.52314634811E+02  0.68390066624E+03  0.73464007662E+03  0.17430882887E+03 0.  0.
        -24    2    5    5    0    0 -0.72977481421E+02  0.89323019542E+02  0.34465965716E+03  0.37147749926E+03  0.76817566799E+02 0.  0.
          5    1    3    3  501    0 -0.21165546678E+02 -0.22807115161E+02  0.40770394744E+02  0.51502038365E+02  0.47000000000E+01 0. -1.
        -11    1    4    4    0    0  0.13110462863E+03 -0.23031982841E+02  0.12763201951E+03  0.18441482665E+03  0.00000000000E+00 0.  1.
         12    1    4    4    0    0  0.87178984356E+02 -0.64755368099E+01  0.20104996806E+03  0.21923320357E+03  0.00000000000E+00 0. -1.
         -5    1    5    5    0  502 -0.12414058489E+03 -0.37008384731E+02  0.33924100907E+03  0.36316257736E+03  0.47000000000E+01 0.  1.
         11    1    6    6    0    0 -0.32188883299E+01 -0.13672844049E+01 -0.35311521653E+01  0.49698837349E+01  0.00000000000E+00 0. -1.
        -12    1    6    6    0    0 -0.69758593092E+02  0.90690303947E+02  0.34819080933E+03  0.36650761553E+03  0.00000000000E+00 0.  1.
</event>
<event>
12    1  0.8406581E-002  0.2005236E+03  0.7818608E-02  0.1149652E+00
         21   -1    0    0  501  502  0.00000000000E+00  0.00000000000E+00  0.12965226219E+03  0.12965226219E+03  0.00000000000E+00 0. -1.
         21   -1    0    0  502  503 -0.00000000000E+00 -0.00000000000E+00 -0.52715841958E+03  0.52715841958E+03  0.00000000000E+00 0.  1.
         -6    2    1    2    0  503 -0.66847995468E+02 -0.76513598776E+02 -0.41023168711E+03  0.45588373589E+03  0.17092968800E+03 0.  0.
        -24    2    3    3    0    0 -0.58346084173E+02  0.97553921184E+01 -0.10915543639E+03  0.14254107994E+03  0.70025830691E+02 0.  0.
          6    2    1    2  501    0  0.66847995468E+02  0.76513598776E+02  0.12725529722E+02  0.20092694588E+03  0.17287774055E+03 0.  0.
         24    2    5    5    0    0  0.58690284535E+02  0.99905338049E+01  0.58314313306E+02  0.11973400524E+03  0.85972743419E+02 0.  0.
          5    1    5    5  501    0  0.81577109332E+01  0.66523064971E+02 -0.45588783584E+02  0.81192940639E+02  0.47000000000E+01 0. -1.
        -11    1    6    6    0    0  0.53345593887E+02  0.59437388826E+01 -0.69522361860E+01  0.54124061258E+02  0.00000000000E+00 0.  1.
         12    1    6    6    0    0  0.53446906479E+01  0.40467949223E+01  0.65266549492E+02  0.65609943986E+02  0.00000000000E+00 0. -1.
         -5    1    3    3    0  503 -0.85019112955E+01 -0.86268990895E+02 -0.30107625072E+03  0.31334265594E+03  0.47000000000E+01 0.  1.
         13    1    4    4    0    0 -0.36156663465E+02  0.29681155521E+02 -0.10148522007E+03  0.11174759594E+03  0.00000000000E+00 0. -1.
        -14    1    4    4    0    0 -0.22189420708E+02 -0.19925763403E+02 -0.76702163191E+01  0.30793484001E+02  0.00000000000E+00 0.  1.
</event>
<event>
12    1  0.8406581E-002  0.1834886E+03  0.7818608E-02  0.1165719E+00
         21   -1    0    0  501  502  0.00000000000E+00  0.00000000000E+00  0.29660474147E+03  0.29660474147E+03  0.00000000000E+00 0.  1.
         21   -1    0    0  502  503 -0.00000000000E+00 -0.00000000000E+00 -0.14964504614E+03  0.14964504614E+03  0.00000000000E+00 0.  1.
         -6    2    1    2    0  503  0.13306831114E+02 -0.34583799310E+02  0.18865177917E+03  0.26316833510E+03  0.17970800729E+03 0.  0.
        -24    2    3    3    0    0 -0.51854646988E+02 -0.55859902603E+02  0.86312856907E+02  0.13990424540E+03  0.79461031199E+02 0.  0.
          6    2    1    2  501    0 -0.13306831114E+02  0.34583799310E+02 -0.41692083837E+02  0.18308145251E+03  0.17437739954E+03 0.  0.
         24    2    5    5    0    0  0.55564676604E+02  0.27263085086E+02 -0.44391284626E+02  0.11361021302E+03  0.84297006216E+02 0.  0.
          5    1    5    5  501    0 -0.68871507718E+02  0.73207142239E+01  0.26992007885E+01  0.69471239495E+02  0.47000000000E+01 0. -1.
        -13    1    6    6    0    0  0.25754478471E+02 -0.29650850520E+02 -0.24768324149E+02  0.46432057665E+02  0.00000000000E+00 0.  1.
         14    1    6    6    0    0  0.29810198134E+02  0.56913935606E+02 -0.19622960476E+02  0.67178155354E+02  0.00000000000E+00 0. -1.
         -5    1    3    3    0  503  0.65161478102E+02  0.21276103293E+02  0.10233892226E+03  0.12326408970E+03  0.47000000000E+01 0.  1.
         13    1    4    4    0    0 -0.22378275333E+02 -0.32306555812E+02 -0.63907943440E+01  0.39816366078E+02  0.00000000000E+00 0. -1.
        -14    1    4    4    0    0 -0.29476371655E+02 -0.23553346791E+02  0.92703651251E+02  0.10008787932E+03  0.00000000000E+00 0.  1.
</event>
<event>
12    1  0.8406581E-002  0.1946736E+03  0.7818608E-02  0.1154387E+00
         21   -1    0    0  503  502  0.00000000000E+00  0.00000000000E+00  0.59571736791E+02  0.59571736791E+02  0.00000000000E+00 0. -1.
         21   -1    0    0  501  503 -0.00000000000E+00 -0.00000000000E+00 -0.10130052652E+04  0.10130052652E+04  0.00000000000E+00 0. -1.
          6    2    1    2  501    0 -0.60868787612E-01  0.91060225753E+02 -0.80455554217E+03  0.82777256396E+03  0.17206344410E+03 0.  0.
         24    2    3    3    0    0  0.30362696035E+02 -0.12925471615E+02 -0.37578727575E+03  0.38550235827E+03  0.79416814913E+02 0.  0.
         -6    2    1    2    0  502  0.60868787612E-01 -0.91060225753E+02 -0.14887798627E+03  0.24480443806E+03  0.17167582730E+03 0.  0.
        -24    2    5    5    0    0 -0.42448679336E+02 -0.27001093909E+02 -0.13500698661E+03  0.16654123671E+03  0.83535307755E+02 0.  0.
          5    1    3    3  501    0 -0.30423564822E+02  0.10398569737E+03 -0.42876826642E+03  0.44227020569E+03  0.47000000000E+01 0. -1.
        -11    1    4    4    0    0  0.17175403427E+02  0.57652168060E+01 -0.13752422757E+02  0.22745578458E+02  0.00000000000E+00 0.  1.
         12    1    4    4    0    0  0.13187292608E+02 -0.18690688421E+02 -0.36203485299E+03  0.36275677981E+03  0.00000000000E+00 0. -1.
         -5    1    5    5    0  502  0.42509548123E+02 -0.64059131843E+02 -0.13870999665E+02  0.78263201352E+02  0.47000000000E+01 0.  1.
         11    1    6    6    0    0 -0.42923002772E+02  0.79466213803E+01 -0.23273917443E+02  0.49469265119E+02  0.00000000000E+00 0. -1.
        -12    1    6    6    0    0  0.47432343601E+00 -0.34947715290E+02 -0.11173306917E+03  0.11707197159E+03  0.00000000000E+00 0.  1.
</event>
<event>
12    1  0.8406581E-002  0.2954302E+03  0.7818608E-02  0.1087563E+00
         21   -1    0    0  501  502  0.00000000000E+00  0.00000000000E+00  0.23051043823E+03  0.23051043823E+03  0.00000000000E+00 0. -1.
         21   -1    0    0  502  503 -0.00000000000E+00 -0.00000000000E+00 -0.44729373852E+03  0.44729373852E+03  0.00000000000E+00 0.  1.
         -6    2    1    2    0  503 -0.23372390446E+03  0.54924851023E+02 -0.24133822003E+03  0.38147493304E+03  0.17214931110E+03 0.  0.
        -24    2    3    3    0    0 -0.15660822215E+03  0.23838298368E+00 -0.22240990277E+03  0.28494613195E+03  0.84864251550E+02 0.  0.
          6    2    1    2  501    0  0.23372390446E+03 -0.54924851023E+02  0.24554919731E+02  0.29632924371E+03  0.17194322847E+03 0.  0.
         24    2    5    5    0    0  0.15814548409E+03 -0.77279442380E+02 -0.37128057423E+02  0.19613590535E+03  0.78158136926E+02 0.  0.
          5    1    5    5  501    0  0.75578420378E+02  0.22354591357E+02  0.61682977154E+02  0.10019333836E+03  0.47000000000E+01 0. -1.
        -13    1    6    6    0    0  0.98796702948E+02 -0.78842530427E+02 -0.54629130189E+00  0.12640107417E+03  0.00000000000E+00 0.  1.
         14    1    6    6    0    0  0.59348781138E+02  0.15630880472E+01 -0.36581766121E+02  0.69734831177E+02  0.00000000000E+00 0. -1.
         -5    1    3    3    0  503 -0.77115682318E+02  0.54686468039E+02 -0.18928317256E+02  0.96528801091E+02  0.47000000000E+01 0.  1.
         13    1    4    4    0    0 -0.16686335604E+03 -0.42570188754E+01 -0.20911802013E+03  0.26756653031E+03  0.00000000000E+00 0. -1.
        -14    1    4    4    0    0  0.10255133892E+02  0.44954018591E+01 -0.13291882639E+02  0.17379601638E+02  0.00000000000E+00 0.  1.
</event>
<event>
12    1  0.8406581E-002  0.1837034E+03  0.7818608E-02  0.1164498E+00
         21   -1    0    0  503  502  0.00000000000E+00  0.00000000000E+00  0.12493718441E+03  0.12493718441E+03  0.00000000000E+00 0. -1.
         21   -1    0    0  501  503 -0.00000000000E+00 -0.00000000000E+00 -0.32680964180E+03  0.32680964180E+03  0.00000000000E+00 0. -1.
          6    2    1    2  501    0  0.46551465500E+02 -0.47925535288E+02 -0.19642689066E+03  0.26894322731E+03  0.17112288061E+03 0.  0.
         24    2    3    3    0    0  0.64268023109E+02 -0.82823641155E+02 -0.18659502569E+03  0.22831676087E+03  0.79502863811E+02 0.  0.
         -6    2    1    2    0  502 -0.46551465500E+02  0.47925535288E+02 -0.54455667232E+01  0.18280359890E+03  0.17006941436E+03 0.  0.
        -24    2    5    5    0    0 -0.41550665792E+02  0.26797239680E+02  0.61566143829E+02  0.11220563700E+03  0.79719288923E+02 0.  0.
          5    1    3    3  501    0 -0.17716557609E+02  0.34898105867E+02 -0.98318649740E+01  0.40626466441E+02  0.47000000000E+01 0. -1.
        -11    1    4    4    0    0  0.37076337389E+02 -0.65739370422E+02 -0.56398800483E+02  0.94218598555E+02  0.00000000000E+00 0.  1.
         12    1    4    4    0    0  0.27191685720E+02 -0.17084270733E+02 -0.13019622521E+03  0.13409816232E+03  0.00000000000E+00 0. -1.
         -5    1    5    5    0  502 -0.50007997074E+01  0.21128295608E+02 -0.67011710553E+02  0.70597961898E+02  0.47000000000E+01 0.  1.
         11    1    6    6    0    0 -0.46991376227E+02 -0.13949581015E+02  0.17772052117E+02  0.52140445785E+02  0.00000000000E+00 0. -1.
        -12    1    6    6    0    0  0.54407104342E+01  0.40746820696E+02  0.43794091713E+02  0.60065191216E+02  0.00000000000E+00 0.  1.
</event>
<event>
12    1  0.8406581E-002  0.1899163E+03  0.7818608E-02  0.1160131E+00
         21   -1    0    0  503  502  0.00000000000E+00  0.00000000000E+00  0.24998594783E+03  0.24998594783E+03  0.00000000000E+00 0. -1.
         21   -1    0    0  501  503 -0.00000000000E+00 -0.00000000000E+00 -0.26431629429E+03  0.26431629429E+03  0.00000000000E+00 0. -1.
          6    2    1    2  501    0  0.14609971549E+02 -0.60825017592E+02 -0.18409648037E+03  0.25956955170E+03  0.17196425224E+03 0.  0.
         24    2    3    3    0    0  0.78855617849E+01  0.31972305468E+02 -0.11059772356E+03  0.14090735002E+03  0.80861699405E+02 0.  0.
         -6    2    1    2    0  502 -0.14609971549E+02  0.60825017592E+02  0.16976613391E+03  0.25473269043E+03  0.17931834628E+03 0.  0.
        -24    2    5    5    0    0  0.12017888095E+02 -0.23680900482E+02  0.37694486261E+02  0.95624855257E+02  0.83773647208E+02 0.  0.
          5    1    3    3  501    0  0.67244097644E+01 -0.92797323060E+02 -0.73498756815E+02  0.11866220168E+03  0.47000000000E+01 0. -1.
        -13    1    4    4    0    0  0.44447925143E+02  0.14332060832E+02 -0.60383163654E+02  0.76335787610E+02  0.00000000000E+00 0.  1.
         14    1    4    4    0    0 -0.36562363358E+02  0.17640244636E+02 -0.50214559906E+02  0.64571562407E+02  0.00000000000E+00 0. -1.
         -5    1    5    5    0  502 -0.26627859645E+02  0.84505918074E+02  0.13207164765E+03  0.15910783517E+03  0.47000000000E+01 0.  1.
         13    1    6    6    0    0 -0.44254600309E+01 -0.52217107989E+02  0.34036536119E+02  0.62487573599E+02  0.00000000000E+00 0. -1.
        -14    1    6    6    0    0  0.16443348126E+02  0.28536207507E+02  0.36579501419E+01  0.33137281659E+02  0.00000000000E+00 0.  1.
</event>
<event>
12    1  0.8406581E-002  0.2269928E+03  0.7818608E-02  0.1129223E+00
         21   -1    0    0  501  502  0.00000000000E+00  0.00000000000E+00  0.18238992322E+03  0.18238992322E+03  0.00000000000E+00 0.  1.
         21   -1    0    0  502  503 -0.00000000000E+00 -0.00000000000E+00 -0.28234319954E+03  0.28234319954E+03  0.00000000000E+00 0. -1.
         -6    2    1    2    0  503 -0.66348598776E+02 -0.13118876120E+03 -0.73372444297E+02  0.23618934930E+03  0.16967399776E+03 0.  0.
        -24    2    3    3    0    0 -0.51378342335E+01 -0.84605518007E+02 -0.10358196913E+03  0.15341579294E+03  0.74984599601E+02 0.  0.
          6    2    1    2  501    0  0.66348598776E+02  0.13118876120E+03 -0.26580832019E+02  0.22854377346E+03  0.17295400582E+03 0.  0.
         24    2    5    5    0    0  0.13687735750E+02  0.58096843375E+02  0.48338840557E+02  0.11128064078E+03  0.80524159021E+02 0.  0.
          5    1    5    5  501    0  0.52660863026E+02  0.73091917828E+02 -0.74919672576E+02  0.11726313268E+03  0.47000000000E+01 0. -1.
        -13    1    6    6    0    0  0.35554431301E+02  0.36227829254E+02  0.59674329587E+02  0.78342828703E+02  0.00000000000E+00 0.  1.
         14    1    6    6    0    0 -0.21866695551E+02  0.21869014121E+02 -0.11335489029E+02  0.32937812078E+02  0.00000000000E+00 0. -1.
         -5    1    3    3    0  503 -0.61210764543E+02 -0.46583243195E+02  0.30209524828E+02  0.82773556362E+02  0.47000000000E+01 0.  1.
         13    1    4    4    0    0  0.62466157959E+01 -0.12795020067E+02 -0.73273779456E+02  0.74644353458E+02  0.00000000000E+00 0. -1.
        -14    1    4    4    0    0 -0.11384450029E+02 -0.71810497940E+02 -0.30308189670E+02  0.78771439481E+02  0.00000000000E+00 0.  1.
</event>
<event>
12    1  0.8406581E-002  0.1751148E+03  0.7818608E-02  0.1172988E+00
         21   -1    0    0  503  502  0.00000000000E+00  0.00000000000E+00  0.11359121088E+03  0.11359121088E+03  0.00000000000E+00 0.  1.
         21   -1    0    0  501  503 -0.00000000000E+00 -0.00000000000E+00 -0.41167753723E+03  0.41167753723E+03  0.00000000000E+00 0.  1.
          6    2    1    2  501    0 -0.25836255479E+02 -0.17104561352E+00 -0.30395374482E+03  0.35005568019E+03  0.17170777179E+03 0.  0.
         24    2    3    3    0    0  0.51923152902E+02  0.78918229964E+01 -0.15496918027E+03  0.18174042267E+03  0.79093866515E+02 0.  0.
         -6    2    1    2    0  502  0.25836255479E+02  0.17104561352E+00  0.58674184662E+01  0.17521306792E+03  0.17319830027E+03 0.  0.
        -24    2    5    5    0    0 -0.22762296390E+02  0.45819135204E+02  0.35384390917E+02  0.10214522964E+03  0.81018994875E+02 0.  0.
          5    1    3    3  501    0 -0.77759408381E+02 -0.80628686100E+01 -0.14898456455E+03  0.16831525752E+03  0.47000000000E+01 0. -1.
        -11    1    4    4    0    0 -0.95970395815E+01  0.25858073649E+02 -0.70545629299E+02  0.75745818068E+02  0.00000000000E+00 0.  1.
         12    1    4    4    0    0  0.61520192483E+02 -0.17966250652E+02 -0.84423550974E+02  0.10599460460E+03  0.00000000000E+00 0. -1.
         -5    1    5    5    0  502  0.48598551869E+02 -0.45648089590E+02 -0.29516972451E+02  0.73067838272E+02  0.47000000000E+01 0.  1.
         13    1    6    6    0    0 -0.25648390596E+02 -0.18094956202E+02  0.16364895612E+02  0.35398830327E+02  0.00000000000E+00 0. -1.
        -14    1    6    6    0    0  0.28860942060E+01  0.63914091406E+02  0.19019495305E+02  0.66746399316E+02  0.00000000000E+00 0.  1.
</event>
<event>
12    1  0.8406581E-002  0.2212774E+03  0.7818608E-02  0.1134130E+00
         21   -1    0    0  503  502  0.00000000000E+00  0.00000000000E+00  0.42737121638E+03  0.42737121638E+03  0.00000000000E+00 0. -1.
         21   -1    0    0  501  503 -0.00000000000E+00 -0.00000000000E+00 -0.27267357517E+03  0.27267357517E+03  0.00000000000E+00 0.  1.
          6    2    1    2  501    0  0.62420698634E+01 -0.13731741336E+03 -0.19145150992E+03  0.29260445255E+03  0.17340314172E+03 0.  0.
         24    2    3    3    0    0  0.39731723536E+01 -0.16541815035E+03 -0.14080567978E+03  0.23445043786E+03  0.88101179270E+02 0.  0.
         -6    2    1    2    0  502 -0.62420698634E+01  0.13731741336E+03  0.34614915113E+03  0.40744033899E+03  0.16520702032E+03 0.  0.
        -24    2    5    5    0    0 -0.33228724100E+02  0.11091329416E+03  0.14474207839E+03  0.20247118042E+03  0.81476393617E+02 0.  0.
          5    1    3    3  501    0  0.22688975099E+01  0.28100736991E+02 -0.50645830135E+02  0.58154014697E+02  0.47000000000E+01 0. -1.
        -11    1    4    4    0    0  0.43689468681E+02 -0.71629346291E+02 -0.79426376026E+02  0.11553390036E+03  0.00000000000E+00 0.  1.
         12    1    4    4    0    0 -0.39716296328E+02 -0.93788804059E+02 -0.61379303757E+02  0.11891653750E+03  0.00000000000E+00 0. -1.
         -5    1    5    5    0  502  0.26986654237E+02  0.26404119203E+02  0.20140707274E+03  0.20496915857E+03  0.47000000000E+01 0.  1.
         11    1    6    6    0    0  0.10824024121E+01  0.10210906640E+03  0.84307740518E+02  0.13242064849E+03  0.00000000000E+00 0. -1.
        -12    1    6    6    0    0 -0.34311126513E+02  0.88042277582E+01  0.60434337876E+02  0.70050531928E+02  0.00000000000E+00 0.  1.
</event>
<event>
12    1  0.8406581E-002  0.1812364E+03  0.7818608E-02  0.1166850E+00
         21   -1    0    0  503  502  0.00000000000E+00  0.00000000000E+00  0.20248347364E+04  0.20248347364E+04  0.00000000000E+00 0. -1.
         21   -1    0    0  501  503 -0.00000000000E+00 -0.00000000000E+00 -0.43805009576E+02  0.43805009576E+02  0.00000000000E+00 0. -1.
          6    2    1    2  501    0  0.29418175050E+02  0.43463967473E+02  0.16944271295E+03  0.24810773815E+03  0.17347066400E+03 0.  0.
         24    2    3    3    0    0 -0.27512193374E+01 -0.32747663973E+02  0.13036354474E+03  0.15649794560E+03  0.80106020228E+02 0.  0.
         -6    2    1    2    0  502 -0.29418175050E+02 -0.43463967473E+02  0.18115870138E+04  0.18205320078E+04  0.17243763272E+03 0.  0.
        -24    2    5    5    0    0  0.37956966180E+02 -0.59388778391E+02  0.90722109576E+03  0.91350785539E+03  0.80490539683E+02 0.  0.
          5    1    3    3  501    0  0.32169394387E+02  0.76211631446E+02  0.39079168206E+02  0.91609792548E+02  0.47000000000E+01 0. -1.
        -13    1    4    4    0    0 -0.31695215889E+02  0.11391224023E+02  0.46765800226E+02  0.57631473743E+02  0.00000000000E+00 0.  1.
         14    1    4    4    0    0  0.28943996552E+02 -0.44138887996E+02  0.83597744517E+02  0.98866471862E+02  0.00000000000E+00 0. -1.
         -5    1    5    5    0  502 -0.67375141230E+02  0.15924810919E+02  0.90436591806E+03  0.90702415238E+03  0.47000000000E+01 0.  1.
         11    1    6    6    0    0  0.33433779827E+02  0.40398239606E+01  0.52096325550E+03  0.52205062148E+03  0.00000000000E+00 0. -1.
        -12    1    6    6    0    0  0.45231863530E+01 -0.63428602352E+02  0.38625784026E+03  0.39145723391E+03  0.00000000000E+00 0.  1.
</event>
<event>
12    1  0.8406581E-002  0.1743718E+03  0.7818608E-02  0.1173531E+00
         21   -1    0    0  501  502  0.00000000000E+00  0.00000000000E+00  0.12252705848E+03  0.12252705848E+03  0.00000000000E+00 0.  1.
         21   -1    0    0  502  503 -0.00000000000E+00 -0.00000000000E+00 -0.52271198310E+03  0.52271198310E+03  0.00000000000E+00 0.  1.
         -6    2    1    2    0  503 -0.14906435151E+02 -0.20454916726E+02 -0.43413029407E+03  0.46759386409E+03  0.17185547440E+03 0.  0.
        -24    2    3    3    0    0 -0.56553777354E+02  0.25308318860E+01 -0.17119655133E+03  0.20035036310E+03  0.87334265695E+02 0.  0.
          6    2    1    2  501    0  0.14906435151E+02  0.20454916726E+02  0.33945369448E+02  0.17764517748E+03  0.17252511570E+03 0.  0.
         24    2    5    5    0    0 -0.85397617896E+01  0.50667062209E+02  0.74778021948E+02  0.12150345150E+03  0.80816195381E+02 0.  0.
          5    1    5    5  501    0  0.23446196941E+02 -0.30212145483E+02 -0.40832652500E+02  0.56141725979E+02  0.47000000000E+01 0. -1.
        -11    1    6    6    0    0  0.14581131746E+02 -0.38513206004E+01  0.58036497017E+02  0.59963964673E+02  0.00000000000E+00 0.  1.
         12    1    6    6    0    0 -0.23120893535E+02  0.54518382810E+02  0.16741524931E+02  0.61539486828E+02  0.00000000000E+00 0. -1.
         -5    1    3    3    0  503  0.41647342203E+02 -0.22985748612E+02 -0.26293374274E+03  0.26724350099E+03  0.47000000000E+01 0.  1.
         11    1    4    4    0    0 -0.40623517949E+02  0.43299920460E+02 -0.11154752632E+03  0.12636456762E+03  0.00000000000E+00 0. -1.
        -12    1    4    4    0    0 -0.15930259405E+02 -0.40769088574E+02 -0.59649025009E+02  0.73985795477E+02  0.00000000000E+00 0.  1.
</event>
<event>
12    1  0.8406581E-002  0.1813142E+03  0.7818608E-02  0.1166822E+00
         21   -1    0    0  501  502  0.00000000000E+00  0.00000000000E+00  0.88785579012E+02  0.88785579012E+02  0.00000000000E+00 0. -1.
         21   -1    0    0  502  503 -0.00000000000E+00 -0.00000000000E+00 -0.40684679683E+03  0.40684679683E+03  0.00000000000E+00 0.  1.
         -6    2    1    2    0  503 -0.20904504372E+02  0.49945006909E+02 -0.81846235893E+02  0.19785333626E+03  0.17180114761E+03 0.  0.
        -24    2    3    3    0    0  0.20000262476E+02  0.31985530601E+02  0.17186827162E+02  0.89108771715E+02  0.78879030811E+02 0.  0.
          6    2    1    2  501    0  0.20904504372E+02 -0.49945006909E+02 -0.23621498192E+03  0.29777903958E+03  0.17304143062E+03 0.  0.
         24    2    5    5    0    0 -0.10130101836E+02 -0.19992150053E+02 -0.23990659065E+03  0.25423551662E+03  0.81106230635E+02 0.  0.
          5    1    5    5  501    0  0.31034606208E+02 -0.29952856856E+02  0.36916087297E+01  0.43543522955E+02  0.47000000000E+01 0. -1.
        -13    1    6    6    0    0 -0.22913839000E+02 -0.27924207373E+02 -0.40524606465E+02  0.54286730462E+02  0.00000000000E+00 0.  1.
         14    1    6    6    0    0  0.12783737164E+02  0.79320573199E+01 -0.19938198419E+03  0.19994878616E+03  0.00000000000E+00 0. -1.
         -5    1    3    3    0  503 -0.40904766849E+02  0.17959476309E+02 -0.99033063055E+02  0.10874456455E+03  0.47000000000E+01 0.  1.
         11    1    4    4    0    0 -0.26989941425E+02  0.84334190495E+01 -0.99227556956E+01  0.29967325132E+02  0.00000000000E+00 0. -1.
        -12    1    4    4    0    0  0.46990203901E+02  0.23552111551E+02  0.27109582858E+02  0.59141446583E+02  0.00000000000E+00 0.  1.
</event>
<event>
12    1  0.8406581E-002  0.1736864E+03  0.7818608E-02  0.1174363E+00
         21   -1    0    0  501  502  0.00000000000E+00  0.00000000000E+00  0.17330678278E+03  0.17330678278E+03  0.00000000000E+00 0.  1.
         21   -1    0    0  502  503 -0.00000000000E+00 -0.00000000000E+00 -0.21807507183E+03  0.21807507183E+03  0.00000000000E+00 0.  1.
         -6    2    1    2    0  503 -0.11174577258E+02  0.71782751331E+01  0.66656606342E+02  0.18603777619E+03  0.17317780513E+03 0.  0.
        -24    2    3    3    0    0 -0.58888844054E+02 -0.28464458194E+02  0.10285740865E+02  0.10389874668E+03  0.80068918825E+02 0.  0.
          6    2    1    2  501    0  0.11174577258E+02 -0.71782751331E+01 -0.11142489539E+03  0.20534407842E+03  0.17197175471E+03 0.  0.
         24    2    5    5    0    0 -0.54354606394E+02  0.16754798050E+02 -0.46008138283E+02  0.10959279638E+03  0.81600770437E+02 0.  0.
          5    1    5    5  501    0  0.65529183652E+02 -0.23933073183E+02 -0.65416757104E+02  0.95751282039E+02  0.47000000000E+01 0. -1.
        -11    1    6    6    0    0 -0.21405886622E+02 -0.32608823734E+02 -0.26346539996E+02  0.47071090249E+02  0.00000000000E+00 0.  1.
         12    1    6    6    0    0 -0.32948719772E+02  0.49363621784E+02 -0.19661598287E+02  0.62521706130E+02  0.00000000000E+00 0. -1.
         -5    1    3    3    0  503  0.47714266796E+02  0.35642733327E+02  0.56370865477E+02  0.82139029514E+02  0.47000000000E+01 0.  1.
         13    1    4    4    0    0 -0.47786669269E+02 -0.18445118112E+02  0.43674044515E+02  0.67314265252E+02  0.00000000000E+00 0. -1.
        -14    1    4    4    0    0 -0.11102174784E+02 -0.10019340082E+02 -0.33388303650E+02  0.36584481426E+02  0.00000000000E+00 0.  1.
</event>
<event>
12    1  0.8406581E-002  0.2630038E+03  0.7818608E-02  0.1105720E+00
         21   -1    0    0  501  502  0.00000000000E+00  0.00000000000E+00  0.16846744813E+03  0.16846744813E+03  0.00000000000E+00 0. -1.
         21   -1    0    0  502  503 -0.00000000000E+00 -0.00000000000E+00 -0.40884696011E+03  0.40884696011E+03  0.00000000000E+00 0.  1.
         -6    2    1    2    0  503 -0.17128236682E+03  0.99987550755E+02 -0.14037511011E+03  0.29593938545E+03  0.16893723340E+03 0.  0.
        -24    2    3    3    0    0 -0.17368588450E+03  0.12394175717E+03 -0.14574130598E+03  0.27083028430E+03  0.81118240748E+02 0.  0.
          6    2    1    2  501    0  0.17128236682E+03 -0.99987550755E+02 -0.10000440186E+03  0.28137502280E+03  0.17273060984E+03 0.  0.
         24    2    5    5    0    0  0.33809182300E+02 -0.11550172444E+02  0.39542869992E+01  0.87597972213E+02  0.79883046129E+02 0.  0.
          5    1    5    5  501    0  0.13747318452E+03 -0.88437378311E+02 -0.10395868886E+03  0.19377705058E+03  0.47000000000E+01 0. -1.
        -11    1    6    6    0    0 -0.82607411004E+01 -0.81938788016E+01 -0.30801107462E+02  0.32925487304E+02  0.00000000000E+00 0.  1.
         12    1    6    6    0    0  0.42069923401E+02 -0.33562936421E+01  0.34755394461E+02  0.54672484909E+02  0.00000000000E+00 0. -1.
         -5    1    3    3    0  503  0.24035176811E+01 -0.23954206413E+02  0.53661958701E+01  0.25109101144E+02  0.47000000000E+01 0.  1.
         11    1    4    4    0    0 -0.14624812051E+03  0.84841535338E+02 -0.73812262634E+02  0.18448536252E+03  0.00000000000E+00 0. -1.
        -12    1    4    4    0    0 -0.27437763992E+02  0.39100221830E+02 -0.71929043349E+02  0.86344921779E+02  0.00000000000E+00 0.  1.
</event>
<event>
12    1  0.8406581E-002  0.2082868E+03  0.7818608E-02  0.1143048E+00
         21   -1    0    0  503  502  0.00000000000E+00  0.00000000000E+00  0.29435550124E+03  0.29435550124E+03  0.00000000000E+00 0. -1.
         21   -1    0    0  501  503 -0.00000000000E+00 -0.00000000000E+00 -0.21409333162E+03  0.21409333162E+03  0.00000000000E+00 0.  1.
          6    2    1    2  501    0 -0.78192093963E+02 -0.86861849437E+02 -0.10218117050E+03  0.23200078165E+03  0.17240761769E+03 0.  0.
         24    2    3    3    0    0 -0.51251375526E+02 -0.35574726213E+02 -0.13304534997E+03  0.16619152020E+03  0.77629192955E+02 0.  0.
         -6    2    1    2    0  502  0.78192093963E+02  0.86861849437E+02  0.18244334011E+03  0.27644805121E+03  0.17169440358E+03 0.  0.
        -24    2    5    5    0    0  0.11976588318E+03  0.73472211363E+02  0.12206109533E+03  0.20177698692E+03  0.77929512005E+02 0.  0.
          5    1    3    3  501    0 -0.26940718437E+02 -0.51287123224E+02  0.30864179474E+02  0.65809261454E+02  0.47000000000E+01 0. -1.
        -11    1    4    4    0    0  0.63957797441E+01  0.14492212591E+02 -0.41446405706E+01  0.16374012024E+02  0.00000000000E+00 0.  1.
         12    1    4    4    0    0 -0.57647155270E+02 -0.50066938803E+02 -0.12890070940E+03  0.14981750818E+03  0.00000000000E+00 0. -1.
         -5    1    5    5    0  502 -0.41573789213E+02  0.13389638074E+02  0.60382244783E+02  0.74671064291E+02  0.47000000000E+01 0.  1.
         13    1    6    6    0    0  0.11627627201E+03  0.50647204555E+02  0.70088173827E+02  0.14490570338E+03  0.00000000000E+00 0. -1.
        -14    1    6    6    0    0  0.34896111668E+01  0.22825006808E+02  0.51972921501E+02  0.56871283538E+02  0.00000000000E+00 0.  1.
</event>
<event>
12    1  0.8406581E-002  0.1897280E+03  0.7818608E-02  0.1158960E+00
         21   -1    0    0  503  502  0.00000000000E+00  0.00000000000E+00  0.55094150974E+03  0.55094150974E+03  0.00000000000E+00 0. -1.
         21   -1    0    0  501  503 -0.00000000000E+00 -0.00000000000E+00 -0.71474976748E+02  0.71474976748E+02  0.00000000000E+00 0. -1.
          6    2    1    2  501    0 -0.66875671746E+02  0.39520674762E+02  0.14636646555E+03  0.23962442268E+03  0.17309674319E+03 0.  0.
         24    2    3    3    0    0  0.21946349878E+02  0.56829101014E+02  0.79041669485E+02  0.12673664075E+03  0.78124270227E+02 0.  0.
         -6    2    1    2    0  502  0.66875671746E+02 -0.39520674762E+02  0.33310006745E+03  0.38279206381E+03  0.17187166717E+03 0.  0.
        -24    2    5    5    0    0  0.82720609386E+02 -0.27241375446E+02  0.11981697522E+03  0.16851744872E+03  0.80356899015E+02 0.  0.
          5    1    3    3  501    0 -0.88822021624E+02 -0.17308426252E+02  0.67324796062E+02  0.11288778193E+03  0.47000000000E+01 0. -1.
        -13    1    4    4    0    0 -0.14497963954E+02  0.30113887111E+01  0.55765847566E+02  0.57698259727E+02  0.00000000000E+00 0.  1.
         14    1    4    4    0    0  0.36444313832E+02  0.53817712303E+02  0.23275821918E+02  0.69038381022E+02  0.00000000000E+00 0. -1.
         -5    1    5    5    0  502 -0.15844937640E+02 -0.12279299316E+02  0.21328309223E+03  0.21427461509E+03  0.47000000000E+01 0.  1.
         13    1    6    6    0    0  0.76584995835E+02  0.12976276410E+02  0.74705792121E+02  0.10777105694E+03  0.00000000000E+00 0. -1.
        -14    1    6    6    0    0  0.61356135514E+01 -0.40217651856E+02  0.45111183100E+02  0.60746391787E+02  0.00000000000E+00 0.  1.
</event>
<event>
12    1  0.8406581E-002  0.2086810E+03  0.7818608E-02  0.1143404E+00
         21   -1    0    0  503  502  0.00000000000E+00  0.00000000000E+00  0.13613725631E+03  0.13613725631E+03  0.00000000000E+00 0.  1.
         21   -1    0    0  501  503 -0.00000000000E+00 -0.00000000000E+00 -0.37373882489E+03  0.37373882489E+03  0.00000000000E+00 0. -1.
          6    2    1    2  501    0  0.70817999365E+02  0.85801704825E+02 -0.22174555777E+03  0.30449768300E+03  0.17655204609E+03 0.  0.
         24    2    3    3    0    0  0.10642445795E+03  0.20668124086E+02 -0.15451904996E+03  0.20423953328E+03  0.78002009930E+02 0.  0.
         -6    2    1    2    0  502 -0.70817999365E+02 -0.85801704825E+02 -0.15856010814E+02  0.20537839820E+03  0.17190622962E+03 0.  0.
        -24    2    5    5    0    0 -0.34990044860E+02 -0.17560630576E+02 -0.73207081452E+02  0.10919252688E+03  0.70929910232E+02 0.  0.
          5    1    3    3  501    0 -0.35606458580E+02  0.65133580739E+02 -0.67226507811E+02  0.10025814972E+03  0.47000000000E+01 0. -1.
        -11    1    4    4    0    0  0.23276506172E+02 -0.11721618646E+02 -0.29779903972E+00  0.26063015319E+02  0.00000000000E+00 0.  1.
         12    1    4    4    0    0  0.83147951773E+02  0.32389742732E+02 -0.15422125092E+03  0.17817651796E+03  0.00000000000E+00 0. -1.
         -5    1    5    5    0  502 -0.35827954505E+02 -0.68241074249E+02  0.57351070638E+02  0.96185871322E+02  0.47000000000E+01 0.  1.
         11    1    6    6    0    0 -0.38223598223E+02 -0.26559311761E+02 -0.13133184657E+02  0.48362392844E+02  0.00000000000E+00 0. -1.
        -12    1    6    6    0    0  0.32335533632E+01  0.89986811848E+01 -0.60073896795E+02  0.60830134033E+02  0.00000000000E+00 0.  1.
</event>
<event>
12    1  0.8406581E-002  0.1753670E+03  0.7818608E-02  0.1172526E+00
         21   -1    0    0  501  502  0.00000000000E+00  0.00000000000E+00  0.10592885224E+03  0.10592885224E+03  0.00000000000E+00 0. -1.
         21   -1    0    0  502  503 -0.00000000000E+00 -0.00000000000E+00 -0.42733415421E+03  0.42733415421E+03  0.00000000000E+00 0. -1.
         -6    2    1    2    0  503 -0.30293452758E+00 -0.29442969940E+02 -0.93396567033E+01  0.17561556733E+03  0.17287746543E+03 0.  0.
        -24    2    3    3    0    0 -0.37405478416E+02 -0.64505277198E+02  0.26908887397E+02  0.11283013030E+03  0.80289784411E+02 0.  0.
          6    2    1    2  501    0  0.30293452758E+00  0.29442969940E+02 -0.31206564527E+03  0.35764743912E+03  0.17222004385E+03 0.  0.
         24    2    5    5    0    0 -0.38630960551E+02  0.72384762354E+02 -0.23502003047E+03  0.26111784531E+03  0.78842941869E+02 0.  0.
          5    1    5    5  501    0  0.38933895078E+02 -0.42941792414E+02 -0.77045614792E+02  0.96529593806E+02  0.47000000000E+01 0. -1.
        -11    1    6    6    0    0  0.15304598366E+02 -0.23205028522E+01 -0.11296903331E+02  0.19163389301E+02  0.00000000000E+00 0.  1.
         12    1    6    6    0    0 -0.53935558917E+02  0.74705265207E+02 -0.22372312714E+03  0.24195445601E+03  0.00000000000E+00 0. -1.
         -5    1    3    3    0  503  0.37102543888E+02  0.35062307258E+02 -0.36248544100E+02  0.62785437027E+02  0.47000000000E+01 0.  1.
         13    1    4    4    0    0 -0.55783172688E+02 -0.29121621929E+02  0.35203508832E+02  0.72104911435E+02  0.00000000000E+00 0. -1.
        -14    1    4    4    0    0  0.18377694272E+02 -0.35383655269E+02 -0.82946214349E+01  0.40725218866E+02  0.00000000000E+00 0.  1.
</event>
<event>
12    1  0.8406581E-002  0.1745149E+03  0.7818608E-02  0.1173259E+00
         21   -1    0    0  503  502  0.00000000000E+00  0.00000000000E+00  0.25407942551E+02  0.25407942551E+02  0.00000000000E+00 0. -1.
         21   -1    0    0  501  503 -0.00000000000E+00 -0.00000000000E+00 -0.12848097548E+04  0.12848097548E+04  0.00000000000E+00 0. -1.
          6    2    1    2  501    0 -0.37483816434E+01 -0.29489551784E+02 -0.80012471023E+03  0.81890221629E+03  0.17180687962E+03 0.  0.
         24    2    3    3    0    0  0.17083938221E+02  0.18378168846E+02 -0.21257860478E+03  0.22902271990E+03  0.81437859644E+02 0.  0.
         -6    2    1    2    0  502  0.37483816434E+01  0.29489551784E+02 -0.45927710202E+03  0.49131548107E+03  0.17196441919E+03 0.  0.
        -24    2    5    5    0    0 -0.52996585391E+02 -0.87604464061E+01 -0.33514207237E+03  0.34948935783E+03  0.83289969875E+02 0.  0.
          5    1    3    3  501    0 -0.20832319865E+02 -0.47867720630E+02 -0.58754610545E+03  0.58987949639E+03  0.47000000000E+01 0. -1.
        -13    1    4    4    0    0 -0.29856264104E+02  0.65665463311E+01 -0.12774336711E+03  0.13135023364E+03  0.00000000000E+00 0.  1.
         14    1    4    4    0    0  0.46940202326E+02  0.11811622515E+02 -0.84835237666E+02  0.97672486252E+02  0.00000000000E+00 0. -1.
         -5    1    5    5    0  502  0.56744967034E+02  0.38249998190E+02 -0.12413502965E+03  0.14182612324E+03  0.47000000000E+01 0.  1.
         13    1    6    6    0    0 -0.22362723806E+02  0.27671253908E+02 -0.24482772589E+03  0.24739928269E+03  0.00000000000E+00 0. -1.
        -14    1    6    6    0    0 -0.30633861585E+02 -0.36431700314E+02 -0.90314346473E+02  0.10209007514E+03  0.00000000000E+00 0.  1.
</event>
<event>
12    1  0.8406581E-002  0.3095540E+03  0.7818608E-02  0.1080734E+00
         21   -1    0    0  503  502  0.00000000000E+00  0.00000000000E+00  0.12617351866E+03  0.12617351866E+03  0.00000000000E+00 0.  1.
         21   -1    0    0  501  503 -0.00000000000E+00 -0.00000000000E+00 -0.94457060970E+03  0.94457060970E+03  0.00000000000E+00 0.  1.
          6    2    1    2  501    0  0.21081660770E+02  0.25550789767E+03 -0.64923361740E+03  0.71925515513E+03  0.17347900743E+03 0.  0.
         24    2    3    3    0    0  0.29082948774E+02  0.24852224125E+03 -0.46037196106E+03  0.53003666967E+03  0.79921250935E+02 0.  0.
         -6    2    1    2    0  502 -0.21081660770E+02 -0.25550789767E+03 -0.16916347364E+03  0.35148897324E+03  0.17087859814E+03 0.  0.
        -24    2    5    5    0    0  0.14774220800E+02 -0.25110457015E+03 -0.17200826258E+03  0.31494836076E+03  0.79585455923E+02 0.  0.
          5    1    3    3  501    0 -0.80012880038E+01  0.69856564211E+01 -0.18886165634E+03  0.18921848546E+03  0.47000000000E+01 0. -1.
        -13    1    4    4    0    0  0.33612151817E+02  0.75300299238E+02 -0.20943880107E+03  0.22508781221E+03  0.00000000000E+00 0.  1.
         14    1    4    4    0    0 -0.45292030433E+01  0.17322194201E+03 -0.25093316000E+03  0.30494885745E+03  0.00000000000E+00 0. -1.
         -5    1    5    5    0  502 -0.35855881570E+02 -0.44033275208E+01  0.28447889470E+01  0.36540612482E+02  0.47000000000E+01 0.  1.
         13    1    6    6    0    0  0.41822411617E+02 -0.81161637713E+02 -0.51028812879E+02  0.10459572311E+03  0.00000000000E+00 0. -1.
        -14    1    6    6    0    0 -0.27048190817E+02 -0.16994293244E+03 -0.12097944970E+03  0.21035263764E+03  0.00000000000E+00 0.  1.
</event>
<event>
12    1  0.8406581E-002  0.2626874E+03  0.7818608E-02  0.1105793E+00
         21   -1    0    0  501  502  0.00000000000E+00  0.00000000000E+00  0.24160118037E+04  0.24160118037E+04  0.00000000000E+00 0.  1.
         21   -1    0    0  502  503 -0.00000000000E+00 -0.00000000000E+00 -0.30016418202E+02  0.30016418202E+02  0.00000000000E+00 0.  1.
         -6    2    1    2    0  503 -0.18800911086E+03  0.61792912761E+02  0.90342399660E+03  0.94036471486E+03  0.17013256443E+03 0.  0.
        -24    2    3    3    0    0 -0.89040980979E+02  0.96568714945E+02  0.48693475310E+03  0.51084239052E+03  0.81244576300E+02 0.  0.
          6    2    1    2  501    0  0.18800911086E+03 -0.61792912761E+02  0.14825713889E+04  0.15056635071E+04  0.17273935115E+03 0.  0.
         24    2    5    5    0    0  0.16907236801E+03  0.11417969658E+02  0.10726494788E+04  0.10887984258E+04  0.78671927195E+02 0.  0.
          5    1    5    5  501    0  0.18936742852E+02 -0.73210882419E+02  0.40992191013E+03  0.41686508122E+03  0.47000000000E+01 0. -1.
        -11    1    6    6    0    0  0.40553250723E+02  0.28512977380E+02  0.45470361976E+03  0.45739800814E+03  0.00000000000E+00 0.  1.
         12    1    6    6    0    0  0.12851911729E+03 -0.17095007722E+02  0.61794585901E+03  0.63140041770E+03  0.00000000000E+00 0. -1.
         -5    1    3    3    0  503 -0.98968129884E+02 -0.34775802183E+02  0.41648924351E+03  0.42952232434E+03  0.47000000000E+01 0.  1.
         13    1    4    4    0    0  0.13665974565E+02  0.85134877355E+00  0.34208924210E+02  0.36847444296E+02  0.00000000000E+00 0. -1.
        -14    1    4    4    0    0 -0.10270695554E+03  0.95717366171E+02  0.45272582889E+03  0.47399494622E+03  0.00000000000E+00 0.  1.
</event>
<event>
12    1  0.8406581E-002  0.1719943E+03  0.7818608E-02  0.1176667E+00
         21   -1    0    0  503  502  0.00000000000E+00  0.00000000000E+00  0.16529398503E+04  0.16529398503E+04  0.00000000000E+00 0.  1.
         21   -1    0    0  501  503 -0.00000000000E+00 -0.00000000000E+00 -0.63423978712E+02  0.63423978712E+02  0.00000000000E+00 0.  1.
          6    2    1    2  501    0  0.57411650198E+01 -0.14819591347E+02  0.67065395311E+02  0.18460717770E+03  0.17125846417E+03 0.  0.
         24    2    3    3    0    0 -0.58107238306E+02 -0.13729699761E+02  0.64391126270E+02  0.12052092188E+03  0.82547681186E+02 0.  0.
         -6    2    1    2    0  502 -0.57411650198E+01  0.14819591347E+02  0.15224504762E+04  0.15317566513E+04  0.16784041480E+03 0.  0.
        -24    2    5    5    0    0 -0.39776148966E+02 -0.46561487311E+02  0.85905508329E+03  0.86464230249E+03  0.76684816068E+02 0.  0.
          5    1    3    3  501    0  0.63848403326E+02 -0.10898915868E+01  0.26742690404E+01  0.64086255826E+02  0.47000000000E+01 0. -1.
        -11    1    4    4    0    0 -0.60253821873E+02 -0.38715463883E+02  0.29280705145E+02  0.77374219788E+02  0.00000000000E+00 0.  1.
         12    1    4    4    0    0  0.21465835672E+01  0.24985764122E+02  0.35110421125E+02  0.43146702091E+02  0.00000000000E+00 0. -1.
         -5    1    5    5    0  502  0.34034983946E+02  0.61381078659E+02  0.66339539294E+03  0.66711434876E+03  0.47000000000E+01 0.  1.
         11    1    6    6    0    0 -0.62764840166E+02 -0.31226857905E+02  0.57957774651E+03  0.58380211208E+03  0.00000000000E+00 0. -1.
        -12    1    6    6    0    0  0.22988691200E+02 -0.15334629406E+02  0.27947733677E+03  0.28084019041E+03  0.00000000000E+00 0.  1.
</event>
<event>
12    1  0.8406581E-002  0.2122294E+03  0.7818608E-02  0.1139820E+00
         21   -1    0    0  501  502  0.00000000000E+00  0.00000000000E+00  0.24263516502E+03  0.24263516502E+03  0.00000000000E+00 0. -1.
         21   -1    0    0  502  503 -0.00000000000E+00 -0.00000000000E+00 -0.29619031820E+03  0.29619031820E+03  0.00000000000E+00 0. -1.
         -6    2    1    2    0  503 -0.94372074460E+02 -0.79716175898E+02 -0.19139915771E+03  0.28575970145E+03  0.17252307748E+03 0.  0.
        -24    2    3    3    0    0  0.13462100381E+02 -0.57234490954E+02 -0.65014259104E+02  0.11804307133E+03  0.79058824311E+02 0.  0.
          6    2    1    2  501    0  0.94372074460E+02  0.79716175898E+02  0.13784400453E+03  0.25306578177E+03  0.17257045860E+03 0.  0.
         24    2    5    5    0    0 -0.11681938844E+02  0.57527846710E+02  0.91048535267E+02  0.13494854495E+03  0.80469579149E+02 0.  0.
          5    1    5    5  501    0  0.10605401330E+03  0.22188329189E+02  0.46795469262E+02  0.11811723682E+03  0.47000000000E+01 0. -1.
        -13    1    6    6    0    0 -0.38732324974E+02  0.74479381074E+01  0.20979021364E+02  0.44674199683E+02  0.00000000000E+00 0.  1.
         14    1    6    6    0    0  0.27050386129E+02  0.50079908602E+02  0.70069513903E+02  0.90274345270E+02  0.00000000000E+00 0. -1.
         -5    1    3    3    0  503 -0.10783417484E+03 -0.22481684944E+02 -0.12638489860E+03  0.16771663011E+03  0.47000000000E+01 0.  1.
         11    1    4    4    0    0 -0.33096423928E+02 -0.21604466038E+02 -0.31270708729E+02  0.50398248521E+02  0.00000000000E+00 0. -1.
        -12    1    4    4    0    0  0.46558524309E+02 -0.35630024917E+02 -0.33743550374E+02  0.67644822812E+02  0.00000000000E+00 0.  1.
</event>
<event>
12    1  0.8406581E-002  0.2185183E+03  0.7818608E-02  0.1135003E+00
         21   -1    0    0  501  502  0.00000000000E+00  0.00000000000E+00  0.45330572089E+02  0.45330572089E+02  0.00000000000E+00 0. -1.
         21   -1    0    0  502  503 -0.00000000000E+00 -0.00000000000E+00 -0.10553291148E+04  0.10553291148E+04  0.00000000000E+00 0. -1.
         -6    2    1    2    0  503  0.90393343718E+02  0.99742156586E+02 -0.47967232979E+03  0.52707785064E+03  0.17206412256E+03 0.  0.
        -24    2    3    3    0    0  0.10663811799E+03  0.54147521081E+02 -0.44430902240E+03  0.46694951299E+03  0.79546829315E+02 0.  0.
          6    2    1    2  501    0 -0.90393343718E+02 -0.99742156586E+02 -0.53032621297E+03  0.57358183630E+03  0.17213592416E+03 0.  0.
         24    2    5    5    0    0 -0.13047275920E+03 -0.78892035333E+02 -0.44099616093E+03  0.47336689082E+03  0.79696331384E+02 0.  0.
          5    1    5    5  501    0  0.40079415479E+02 -0.20850121252E+02 -0.89330052033E+02  0.10021494548E+03  0.47000000000E+01 0. -1.
        -11    1    6    6    0    0 -0.93185088440E+02 -0.78501423774E+02 -0.39907320529E+03  0.41725934072E+03  0.00000000000E+00 0.  1.
         12    1    6    6    0    0 -0.37287670757E+02 -0.39061155889E+00 -0.41922955645E+02  0.56107550097E+02  0.00000000000E+00 0. -1.
         -5    1    3    3    0  503 -0.16244774267E+02  0.45594635505E+02 -0.35363307396E+02  0.60128337644E+02  0.47000000000E+01 0.  1.
         13    1    4    4    0    0 -0.31117698037E+01  0.14311168720E+02 -0.14399140051E+03  0.14473429477E+03  0.00000000000E+00 0. -1.
        -14    1    4    4    0    0  0.10974988779E+03  0.39836352361E+02 -0.30031762189E+03  0.32221521822E+03  0.00000000000E+00 0.  1.
</event>
<event>
12    1  0.8406581E-002  0.1885943E+03  0.7818608E-02  0.1159986E+00
         21   -1    0    0  503  502  0.00000000000E+00  0.00000000000E+00  0.27533405585E+03  0.27533405585E+03  0.00000000000E+00 0.  1.
         21   -1    0    0  501  503 -0.00000000000E+00 -0.00000000000E+00 -0.14745201538E+03  0.14745201538E+03  0.00000000000E+00 0. -1.
          6    2    1    2  501    0  0.36450241593E+02  0.66825753763E+02 -0.11823200878E+02  0.18896457901E+03  0.17255005814E+03 0.  0.
         24    2    3    3    0    0 -0.27293816376E+02 -0.98174250148E+01  0.13253373146E+02  0.86064596778E+02  0.79938280395E+02 0.  0.
         -6    2    1    2    0  502 -0.36450241593E+02 -0.66825753763E+02  0.13970524135E+03  0.23382149222E+03  0.17134945079E+03 0.  0.
        -24    2    5    5    0    0 -0.60679809484E+02 -0.11355799183E+02  0.24790174830E+02  0.10385399500E+03  0.79750273069E+02 0.  0.
          5    1    3    3  501    0  0.63744057970E+02  0.76643178778E+02 -0.25076574024E+02  0.10289998224E+03  0.47000000000E+01 0. -1.
        -13    1    4    4    0    0 -0.33929983732E+02 -0.21442736304E+02  0.39680319539E+02  0.56440787512E+02  0.00000000000E+00 0.  1.
         14    1    4    4    0    0  0.66361673560E+01  0.11625311290E+02 -0.26426946393E+02  0.29623809265E+02  0.00000000000E+00 0. -1.
         -5    1    5    5    0  502  0.24229567891E+02 -0.55469954580E+02  0.11491506652E+03  0.12996749722E+03  0.47000000000E+01 0.  1.
         13    1    6    6    0    0 -0.67663666238E+02  0.10570903099E+02  0.36960839046E+02  0.77821715119E+02  0.00000000000E+00 0. -1.
        -14    1    6    6    0    0  0.69838567538E+01 -0.21926702283E+02 -0.12170664217E+02  0.26032279878E+02  0.00000000000E+00 0.  1.
</event>
<event>
12    1  0.8406581E-002  0.2063739E+03  0.7818608E-02  0.1144588E+00
         21   -1    0    0  503  502  0.00000000000E+00  0.00000000000E+00  0.28841451869E+03  0.28841451869E+03  0.00000000000E+00 0. -1.
         21   -1    0    0  501  503 -0.00000000000E+00 -0.00000000000E+00 -0.17727176079E+03  0.17727176079E+03  0.00000000000E+00 0. -1.
          6    2    1    2  501    0 -0.43663086652E+02  0.10442058064E+03  0.15145188792E+03  0.25598406549E+03  0.17256895616E+03 0.  0.
         24    2    3    3    0    0 -0.19730081349E+02  0.84107899296E+02  0.17904937138E+03  0.21392333725E+03  0.79000645526E+02 0.  0.
         -6    2    1    2    0  502  0.43663086652E+02 -0.10442058064E+03 -0.40309130019E+02  0.20970221399E+03  0.17187224847E+03 0.  0.
        -24    2    5    5    0    0  0.84616882415E+02 -0.93999794494E+02  0.16555591777E+01  0.14996168076E+03  0.80559212174E+02 0.  0.
          5    1    3    3  501    0 -0.23933005303E+02  0.20312681348E+02 -0.27597483464E+02  0.42060728238E+02  0.47000000000E+01 0. -1.
        -11    1    4    4    0    0  0.50335935830E+01  0.82084437697E+02  0.92004665607E+02  0.12340198730E+03  0.00000000000E+00 0.  1.
         12    1    4    4    0    0 -0.24763674932E+02  0.20234615986E+01  0.87044705773E+02  0.90521349947E+02  0.00000000000E+00 0. -1.
         -5    1    5    5    0  502 -0.40953795763E+02 -0.10420786150E+02 -0.41964689197E+02  0.59740533231E+02  0.47000000000E+01 0.  1.
         11    1    6    6    0    0  0.25381987320E+02 -0.78008226552E+02  0.22667710287E+02  0.85107894932E+02  0.00000000000E+00 0. -1.
        -12    1    6    6    0    0  0.59234895095E+02 -0.15991567942E+02 -0.21012151110E+02  0.64853785829E+02  0.00000000000E+00 0.  1.
</event>
<event>
12    1  0.8406581E-002  0.1851473E+03  0.7818608E-02  0.1163675E+00
         21   -1    0    0  501  502  0.00000000000E+00  0.00000000000E+00  0.36119335265E+03  0.36119335265E+03  0.00000000000E+00 0. -1.
         21   -1    0    0  502  503 -0.00000000000E+00 -0.00000000000E+00 -0.35918222518E+03  0.35918222518E+03  0.00000000000E+00 0. -1.
         -6    2    1    2    0  503 -0.53228698356E+02  0.37860555268E+02 -0.30891726314E+03  0.35849715459E+03  0.16977519963E+03 0.  0.
        -24    2    3    3    0    0  0.19568668431E+01  0.37936652331E+02 -0.68153663710E+02  0.11144523048E+03  0.79574484609E+02 0.  0.
          6    2    1    2  501    0  0.53228698356E+02 -0.37860555268E+02  0.31092839062E+03  0.36187842324E+03  0.17324206517E+03 0.  0.
         24    2    5    5    0    0  0.81607292844E+02  0.11816951414E+02  0.13666619932E+03  0.17840471774E+03  0.79694433244E+02 0.  0.
          5    1    5    5  501    0 -0.28378594488E+02 -0.49677506682E+02  0.17426219130E+03  0.18347370550E+03  0.47000000000E+01 0. -1.
        -13    1    6    6    0    0  0.28253783414E+02  0.31987238708E+02  0.17188151495E+02  0.46009697556E+02  0.00000000000E+00 0.  1.
         14    1    6    6    0    0  0.53353509430E+02 -0.20170287294E+02  0.11947804782E+03  0.13239502018E+03  0.00000000000E+00 0. -1.
         -5    1    3    3    0  503 -0.55185565199E+02 -0.76097062711E-01 -0.24076359943E+03  0.24705192411E+03  0.47000000000E+01 0.  1.
         11    1    4    4    0    0 -0.76167028271E+01 -0.21220634895E+02 -0.38421047488E+02  0.44547799018E+02  0.00000000000E+00 0. -1.
        -12    1    4    4    0    0  0.95735696703E+01  0.59157287226E+02 -0.29732616222E+02  0.66897431457E+02  0.00000000000E+00 0.  1.
</event>
<event>
12    1  0.8406581E-002  0.2043462E+03  0.7818608E-02  0.1146151E+00
         21   -1    0    0  501  502  0.00000000000E+00  0.00000000000E+00  0.82118762691E+03  0.82118762691E+03  0.00000000000E+00 0.  1.
         21   -1    0    0  502  503 -0.00000000000E+00 -0.00000000000E+00 -0.23468157177E+03  0.23468157177E+03  0.00000000000E+00 0. -1.
         -6    2    1    2    0  503 -0.10339387664E+03  0.36700057402E+02 -0.17402026607E+03  0.26840349756E+03  0.17239546561E+03 0.  0.
        -24    2    3    3    0    0 -0.86862976995E+02 -0.19880854958E+02 -0.17020465036E+03  0.20914711217E+03  0.82658734322E+02 0.  0.
          6    2    1    2  501    0  0.10339387664E+03 -0.36700057402E+02  0.76052632121E+03  0.78746570112E+03  0.17223459944E+03 0.  0.
         24    2    5    5    0    0  0.65225569539E+02 -0.89365167670E+02  0.51715833307E+03  0.53551233012E+03  0.84143960757E+02 0.  0.
          5    1    5    5  501    0  0.38168307100E+02  0.52665110268E+02  0.24336798814E+03  0.25195337100E+03  0.47000000000E+01 0. -1.
        -11    1    6    6    0    0  0.65884143679E+02 -0.28862239639E+02  0.35985770133E+03  0.36697590448E+03  0.00000000000E+00 0.  1.
         12    1    6    6    0    0 -0.65857414027E+00 -0.60502928030E+02  0.15730063174E+03  0.16853642563E+03  0.00000000000E+00 0. -1.
         -5    1    3    3    0  503 -0.16530899644E+02  0.56580912360E+02 -0.38156157095E+01  0.59256385392E+02  0.47000000000E+01 0.  1.
         13    1    4    4    0    0 -0.64178655028E+02  0.18968404671E+01 -0.16528602755E+03  0.17731883337E+03  0.00000000000E+00 0. -1.
        -14    1    4    4    0    0 -0.22684321968E+02 -0.21777695425E+02 -0.49186228110E+01  0.31828278803E+02  0.00000000000E+00 0.  1.
</event>
<event>
12    1  0.8406581E-002  0.2196552E+03  0.7818608E-02  0.1135628E+00
         21   -1    0    0  503  502  0.00000000000E+00  0.00000000000E+00  0.12101258495E+04  0.12101258495E+04  0.00000000000E+00 0.  1.
         21   -1    0    0  501  503 -0.00000000000E+00 -0.00000000000E+00 -0.60077734180E+02  0.60077734180E+02  0.00000000000E+00 0.  1.
          6    2    1    2  501    0 -0.18892447366E+02 -0.13508307430E+03  0.20080254690E+03  0.29760727573E+03  0.17217452248E+03 0.  0.
         24    2    3    3    0    0  0.26466657046E+02 -0.13080855136E+03  0.19830015763E+03  0.25173711275E+03  0.78976327946E+02 0.  0.
         -6    2    1    2    0  502  0.18892447366E+02  0.13508307430E+03  0.94924556842E+03  0.97259630795E+03  0.16208660510E+03 0.  0.
        -24    2    5    5    0    0 -0.11433390349E+02  0.49007908866E+02  0.24997875007E+03  0.26738374158E+03  0.80449936141E+02 0.  0.
          5    1    3    3  501    0 -0.45359104412E+02 -0.42745229426E+01  0.25023892742E+01  0.45870162976E+02  0.47000000000E+01 0. -1.
        -13    1    4    4    0    0 -0.23947485438E+01 -0.10032732845E+02 -0.65286456688E+01  0.12207119365E+02  0.00000000000E+00 0.  1.
         14    1    4    4    0    0  0.28861405589E+02 -0.12077581852E+03  0.20482880329E+03  0.23952999338E+03  0.00000000000E+00 0. -1.
         -5    1    5    5    0  502  0.30325837715E+02  0.86075165439E+02  0.69926681835E+03  0.70521256638E+03  0.47000000000E+01 0.  1.
         13    1    6    6    0    0 -0.10672648081E+02 -0.17245626520E+02  0.11774406075E+03  0.11947795149E+03  0.00000000000E+00 0. -1.
        -14    1    6    6    0    0 -0.76074226738E+00  0.66253535386E+02  0.13223468933E+03  0.14790579009E+03  0.00000000000E+00 0.  1.
</event>
<event>
12    1  0.8406581E-002  0.1889974E+03  0.7818608E-02  0.1161833E+00
         21   -1    0    0  501  502  0.00000000000E+00  0.00000000000E+00  0.45492035075E+03  0.45492035075E+03  0.00000000000E+00 0. -1.
         21   -1    0    0  502  503 -0.00000000000E+00 -0.00000000000E+00 -0.74353923346E+02  0.74353923346E+02  0.00000000000E+00 0. -1.
         -6    2    1    2    0  503  0.69747217936E+02  0.11032487190E+02  0.17306600356E+03  0.24860285416E+03  0.16390590997E+03 0.  0.
        -24    2    3    3    0    0  0.54155244676E+02  0.16091384416E+02  0.25517726275E+02  0.10007243235E+03  0.78559621847E+02 0.  0.
          6    2    1    2  501    0 -0.69747217936E+02 -0.11032487190E+02  0.20750042384E+03  0.28067141993E+03  0.17531009637E+03 0.  0.
         24    2    5    5    0    0 -0.62254662579E+02 -0.71477949138E+02  0.10693643506E+03  0.16300664995E+03  0.78428480534E+02 0.  0.
          5    1    5    5  501    0 -0.74925553570E+01  0.60445461949E+02  0.10056398878E+03  0.11766476999E+03  0.47000000000E+01 0. -1.
        -11    1    6    6    0    0 -0.54455502074E+02 -0.54157584749E+02  0.27887956684E+02  0.81707917731E+02  0.00000000000E+00 0.  1.
         12    1    6    6    0    0 -0.77991605047E+01 -0.17320364389E+02  0.79048478371E+02  0.81298732216E+02  0.00000000000E+00 0. -1.
         -5    1    3    3    0  503  0.15591973260E+02 -0.50588972263E+01  0.14754827729E+03  0.14853042181E+03  0.47000000000E+01 0.  1.
         11    1    4    4    0    0  0.48989740980E+02 -0.16338965007E+02  0.38856092749E+02  0.64627799301E+02  0.00000000000E+00 0. -1.
        -12    1    4    4    0    0  0.51655036960E+01  0.32430349423E+02 -0.13338366473E+02  0.35444633054E+02  0.00000000000E+00 0.  1.
</event>
<event>
12    1  0.8406581E-002  0.1993431E+03  0.7818608E-02  0.1150492E+00
         21   -1    0    0  503  502  0.00000000000E+00  0.00000000000E+00  0.68550546960E+02  0.68550546960E+02  0.00000000000E+00 0. -1.
         21   -1    0    0  501  503 -0.00000000000E+00 -0.00000000000E+00 -0.81883916737E+03  0.81883916737E+03  0.00000000000E+00 0. -1.
          6    2    1    2  501    0 -0.84912435012E+02  0.59002685809E+02 -0.61689615092E+03  0.64830436668E+03  0.17042961095E+03 0.  0.
         24    2    3    3    0    0 -0.51950125620E+02  0.10529122603E+03 -0.44544784615E+03  0.46762300626E+03  0.80389268642E+02 0.  0.
         -6    2    1    2    0  502  0.84912435012E+02 -0.59002685809E+02 -0.13339246950E+03  0.23908534766E+03  0.16934229830E+03 0.  0.
        -24    2    5    5    0    0  0.88536411744E+02 -0.13095141711E+02 -0.15398242014E+03  0.18842301569E+03  0.61501773860E+02 0.  0.
          5    1    3    3  501    0 -0.32962309392E+02 -0.46288540218E+02 -0.17144830476E+03  0.18068136042E+03  0.47000000000E+01 0. -1.
        -11    1    4    4    0    0  0.80152619721E+01  0.51325423989E+00 -0.23423518011E+01  0.83662695603E+01  0.00000000000E+00 0.  1.
         12    1    4    4    0    0 -0.59965387592E+02  0.10477797179E+03 -0.44310549435E+03  0.45925673670E+03  0.00000000000E+00 0. -1.
         -5    1    5    5    0  502 -0.36239767320E+01 -0.45907544098E+02  0.20589950646E+02  0.50662331964E+02  0.47000000000E+01 0.  1.
         11    1    6    6    0    0  0.94633956338E+02 -0.10369693355E+01 -0.13992039162E+03  0.16892121533E+03  0.00000000000E+00 0. -1.
        -12    1    6    6    0    0 -0.60975445944E+01 -0.12058172376E+02 -0.14062028526E+02  0.19501800363E+02  0.00000000000E+00 0.  1.
</event>
<event>
12    1  0.8406581E-002  0.2140509E+03  0.7818608E-02  0.1139794E+00
         21   -1    0    0  503  502  0.00000000000E+00  0.00000000000E+00  0.42630770104E+03  0.42630770104E+03  0.00000000000E+00 0.  1.
         21   -1    0    0  501  503 -0.00000000000E+00 -0.00000000000E+00 -0.30708974270E+03  0.30708974270E+03  0.00000000000E+00 0.  1.
          6    2    1    2  501    0  0.34031048858E+01 -0.11467287621E+03 -0.23828999272E+03  0.32031221131E+03  0.18071065939E+03 0.  0.
         24    2    3    3    0    0  0.45438168051E+02 -0.39315072282E+02 -0.19589228276E+03  0.22405525853E+03  0.90645851561E+02 0.  0.
         -6    2    1    2    0  502 -0.34031048858E+01  0.11467287621E+03  0.35750795106E+03  0.41308523244E+03  0.17223827833E+03 0.  0.
        -24    2    5    5    0    0 -0.41289533058E+02  0.36029398941E+02  0.28040954766E+03  0.29652438239E+03  0.79336320838E+02 0.  0.
          5    1    3    3  501    0 -0.42035063165E+02 -0.75357803928E+02 -0.42397709966E+02  0.96256952780E+02  0.47000000000E+01 0. -1.
        -13    1    4    4    0    0 -0.56085994816E+01 -0.52340370012E+02 -0.12582094708E+03  0.13638871451E+03  0.00000000000E+00 0.  1.
         14    1    4    4    0    0  0.51046767532E+02  0.13025297729E+02 -0.70071335672E+02  0.87666544014E+02  0.00000000000E+00 0. -1.
         -5    1    5    5    0  502  0.37886428172E+02  0.78643477269E+02  0.77098403403E+02  0.11656085005E+03  0.47000000000E+01 0.  1.
         13    1    6    6    0    0 -0.37669183358E+02 -0.17889580883E+02  0.10495439430E+03  0.11293550975E+03  0.00000000000E+00 0. -1.
        -14    1    6    6    0    0 -0.36203497002E+01  0.53918979824E+02  0.17545515336E+03  0.18358887264E+03  0.00000000000E+00 0.  1.
</event>
<event>
12    1  0.8406581E-002  0.1758413E+03  0.7818608E-02  0.1171931E+00
         21   -1    0    0  503  502  0.00000000000E+00  0.00000000000E+00  0.32370499476E+03  0.32370499476E+03  0.00000000000E+00 0. -1.
         21   -1    0    0  501  503 -0.00000000000E+00 -0.00000000000E+00 -0.22155992001E+03  0.22155992001E+03  0.00000000000E+00 0. -1.
          6    2    1    2  501    0  0.36173025520E+02 -0.32201753704E+01 -0.15462022588E+03  0.23415289509E+03  0.17205030289E+03 0.  0.
         24    2    3    3    0    0 -0.11415790782E+02  0.38829665379E+02 -0.32122391359E+02  0.96092422811E+02  0.81017544412E+02 0.  0.
         -6    2    1    2    0  502 -0.36173025520E+02  0.32201753704E+01  0.25676530063E+03  0.31111201968E+03  0.17188197078E+03 0.  0.
        -24    2    5    5    0    0 -0.39384453302E+02  0.48408399355E+02  0.24387710510E+03  0.26377826387E+03  0.78793539116E+02 0.  0.
          5    1    3    3  501    0  0.47588816302E+02 -0.42049840749E+02 -0.12249783452E+03  0.13806047228E+03  0.47000000000E+01 0. -1.
        -11    1    4    4    0    0  0.58222605316E+01  0.19115696669E+02  0.25736303224E+02  0.32583214705E+02  0.00000000000E+00 0.  1.
         12    1    4    4    0    0 -0.17238051314E+02  0.19713968710E+02 -0.57858694584E+02  0.63509208107E+02  0.00000000000E+00 0. -1.
         -5    1    5    5    0  502  0.32114277817E+01 -0.45188223985E+02  0.12888195525E+02  0.47333755811E+02  0.47000000000E+01 0.  1.
         11    1    6    6    0    0 -0.52472698795E+02  0.47087014197E+02  0.11980021866E+03  0.13900598338E+03  0.00000000000E+00 0. -1.
        -12    1    6    6    0    0  0.13088245493E+02  0.13213851585E+01  0.12407688644E+03  0.12477228049E+03  0.00000000000E+00 0.  1.
</event>
<event>
12    1  0.8406581E-002  0.3061822E+03  0.7818608E-02  0.1082202E+00
         21   -1    0    0  503  502  0.00000000000E+00  0.00000000000E+00  0.13862753225E+03  0.13862753225E+03  0.00000000000E+00 0. -1.
         21   -1    0    0  501  503 -0.00000000000E+00 -0.00000000000E+00 -0.74694926269E+03  0.74694926269E+03  0.00000000000E+00 0. -1.
          6    2    1    2  501    0 -0.53400964574E+02 -0.24721802734E+03 -0.44062607917E+03  0.53656211598E+03  0.17256635421E+03 0.  0.
         24    2    3    3    0    0 -0.14417806198E+02 -0.13771639002E+03 -0.13014159785E+03  0.20500066112E+03  0.76907466164E+02 0.  0.
         -6    2    1    2    0  502  0.53400964574E+02  0.24721802734E+03 -0.16769565127E+03  0.34901467896E+03  0.17239779179E+03 0.  0.
        -24    2    5    5    0    0  0.56134004861E+02  0.23017254062E+03 -0.84374277920E+02  0.26379402780E+03  0.79610585801E+02 0.  0.
          5    1    3    3  501    0 -0.38983158376E+02 -0.10950163732E+03 -0.31048448132E+03  0.33156145487E+03  0.47000000000E+01 0. -1.
        -13    1    4    4    0    0 -0.30454453437E+02 -0.94313131828E+02 -0.12335129994E+03  0.15823395264E+03  0.00000000000E+00 0.  1.
         14    1    4    4    0    0  0.16036647239E+02 -0.43403258193E+02 -0.67902979067E+01  0.46766708481E+02  0.00000000000E+00 0. -1.
         -5    1    5    5    0  502 -0.27330402878E+01  0.17045486721E+02 -0.83321373346E+02  0.85220651154E+02  0.47000000000E+01 0.  1.
         13    1    6    6    0    0 -0.18702579976E+02  0.23945199185E+02 -0.71523052904E+01  0.31214011801E+02  0.00000000000E+00 0. -1.
        -14    1    6    6    0    0  0.74836584837E+02  0.20622734144E+03 -0.77221972630E+02  0.23258001600E+03  0.00000000000E+00 0.  1.
</event>
<event>
12    1  0.8406581E-002  0.2165397E+03  0.7818608E-02  0.1136601E+00
         21   -1    0    0  501  502  0.00000000000E+00  0.00000000000E+00  0.75384591315E+03  0.75384591315E+03  0.00000000000E+00 0.  1.
         21   -1    0    0  502  503 -0.00000000000E+00 -0.00000000000E+00 -0.62789008370E+02  0.62789008370E+02  0.00000000000E+00 0. -1.
         -6    2    1    2    0  503 -0.87879491763E+02  0.98336670554E+02  0.39082479124E+03  0.44680359285E+03  0.17174553063E+03 0.  0.
        -24    2    3    3    0    0 -0.92589575100E+02  0.47108292329E+02  0.15051883407E+03  0.20100779412E+03  0.83403796471E+02 0.  0.
          6    2    1    2  501    0  0.87879491763E+02 -0.98336670554E+02  0.30023211354E+03  0.36983132867E+03  0.17100580053E+03 0.  0.
         24    2    5    5    0    0  0.36916196485E+02 -0.11117842532E+03  0.13505627889E+03  0.19643203662E+03  0.81375049757E+02 0.  0.
          5    1    5    5  501    0  0.50963295278E+02  0.12841754767E+02  0.16517583464E+03  0.17339929204E+03  0.47000000000E+01 0. -1.
        -13    1    6    6    0    0  0.34008698706E+02 -0.37004738113E+02  0.10488356590E+03  0.11630350221E+03  0.00000000000E+00 0.  1.
         14    1    6    6    0    0  0.29074977792E+01 -0.74173687208E+02  0.30172712993E+02  0.80128534410E+02  0.00000000000E+00 0. -1.
         -5    1    3    3    0  503  0.47100833373E+01  0.51228378225E+02  0.24030595717E+03  0.24579579873E+03  0.47000000000E+01 0.  1.
         13    1    4    4    0    0  0.15202641364E+02  0.13333330477E+02  0.24685482890E+02  0.31910359941E+02  0.00000000000E+00 0. -1.
        -14    1    4    4    0    0 -0.10779221646E+03  0.33774961852E+02  0.12583335118E+03  0.16909743418E+03  0.00000000000E+00 0.  1.
</event>
<event>
12    1  0.8406581E-002  0.2137336E+03  0.7818608E-02  0.1138658E+00
         21   -1    0    0  501  502  0.00000000000E+00  0.00000000000E+00  0.29077155648E+03  0.29077155648E+03  0.00000000000E+00 0. -1.
         21   -1    0    0  502  503 -0.00000000000E+00 -0.00000000000E+00 -0.17915670699E+03  0.17915670699E+03  0.00000000000E+00 0.  1.
         -6    2    1    2    0  503 -0.57698793159E+02 -0.11291845738E+03 -0.26739956665E+02  0.21532248352E+03  0.17195644180E+03 0.  0.
        -24    2    3    3    0    0 -0.10331010686E+03 -0.69239891978E+02 -0.12024126235E+02  0.15030821833E+03  0.83551421690E+02 0.  0.
          6    2    1    2  501    0  0.57698793159E+02  0.11291845738E+03  0.13835480615E+03  0.25460577995E+03  0.17205325352E+03 0.  0.
         24    2    5    5    0    0  0.78969065842E+02  0.36676194745E+02  0.33481400301E+02  0.12313019907E+03  0.80366567273E+02 0.  0.
          5    1    5    5  501    0 -0.21270272683E+02  0.76242262636E+02  0.10487340585E+03  0.13147558088E+03  0.47000000000E+01 0. -1.
        -11    1    6    6    0    0  0.58231456694E+01 -0.22508547652E+02 -0.29369158831E-01  0.23249615167E+02  0.00000000000E+00 0.  1.
         12    1    6    6    0    0  0.73145920173E+02  0.59184742397E+02  0.33510769459E+02  0.99880583900E+02  0.00000000000E+00 0. -1.
         -5    1    3    3    0  503  0.45611313698E+02 -0.43678565403E+02 -0.14715830430E+02  0.65014265189E+02  0.47000000000E+01 0.  1.
         11    1    4    4    0    0 -0.91791112927E+02 -0.49392793116E+02  0.24589540172E+02  0.10709762794E+03  0.00000000000E+00 0. -1.
        -12    1    4    4    0    0 -0.11518993930E+02 -0.19847098862E+02 -0.36613666407E+02  0.43210590393E+02  0.00000000000E+00 0.  1.
</event>
<event>
12    1  0.8406581E-002  0.2059457E+03  0.7818608E-02  0.1145045E+00
         21   -1    0    0  501  502  0.00000000000E+00  0.00000000000E+00  0.36319567459E+02  0.36319567459E+02  0.00000000000E+00 0.  1.
         21   -1    0    0  502  503 -0.00000000000E+00 -0.00000000000E+00 -0.11638860154E+04  0.11638860154E+04  0.00000000000E+00 0.  1.
         -6    2    1    2    0  503  0.11009050991E+03 -0.39784475882E+01 -0.53490498404E+03  0.57278128159E+03  0.17268267480E+03 0.  0.
        -24    2    3    3    0    0  0.14323125673E+03 -0.23104098346E+02 -0.45624084296E+03  0.48517856070E+03  0.78699026143E+02 0.  0.
          6    2    1    2  501    0 -0.11009050991E+03  0.39784475882E+01 -0.59266146394E+03  0.62742430130E+03  0.17400544419E+03 0.  0.
         24    2    5    5    0    0 -0.12874076097E+03 -0.39073102803E+02 -0.41318207661E+03  0.44185434595E+03  0.80093343666E+02 0.  0.
          5    1    5    5  501    0  0.18650251057E+02  0.43051550391E+02 -0.17947938733E+03  0.18556995536E+03  0.47000000000E+01 0. -1.
        -13    1    6    6    0    0 -0.48602590649E+02 -0.52500936789E+02 -0.24221927976E+03  0.25256432779E+03  0.00000000000E+00 0.  1.
         14    1    6    6    0    0 -0.80138170322E+02  0.13427833987E+02 -0.17096279685E+03  0.18929001816E+03  0.00000000000E+00 0. -1.
         -5    1    3    3    0  503 -0.33140746810E+02  0.19125650758E+02 -0.78664141081E+02  0.87602720894E+02  0.47000000000E+01 0.  1.
         11    1    4    4    0    0  0.18682531597E+02 -0.34348385731E+02 -0.88401976963E+02  0.96663116649E+02  0.00000000000E+00 0. -1.
        -12    1    4    4    0    0  0.12454872513E+03  0.11244287385E+02 -0.36783886599E+03  0.38851544405E+03  0.00000000000E+00 0.  1.
</event>
<event>
12    1  0.8406581E-002  0.3614308E+03  0.7818608E-02  0.1058037E+00
         21   -1    0    0  501  502  0.00000000000E+00  0.00000000000E+00  0.40455646761E+03  0.40455646761E+03  0.00000000000E+00 0.  1.
         21   -1    0    0  502  503 -0.00000000000E+00 -0.00000000000E+00 -0.50305534380E+03  0.50305534380E+03  0.00000000000E+00 0. -1.
         -6    2    1    2    0  503 -0.30151365327E+03  0.99587377177E+02 -0.32095504305E+03  0.48336776570E+03  0.17263872236E+03 0.  0.
        -24    2    3    3    0    0 -0.88697381526E+02  0.49832150868E+02 -0.18510221260E+03  0.22598783329E+03  0.80356723048E+02 0.  0.
          6    2    1    2  501    0  0.30151365327E+03 -0.99587377177E+02  0.22245616686E+03  0.42424404570E+03  0.17224440584E+03 0.  0.
         24    2    5    5    0    0  0.20697882470E+03 -0.12981050949E+03  0.18946590013E+03  0.31955059205E+03  0.80772837764E+02 0.  0.
          5    1    5    5  501    0  0.94534828570E+02  0.30223132311E+02  0.32990266728E+02  0.10469345366E+03  0.47000000000E+01 0. -1.
        -13    1    6    6    0    0  0.44161064383E+02 -0.30277754717E+02  0.89062086448E+02  0.10391822401E+03  0.00000000000E+00 0.  1.
         14    1    6    6    0    0  0.16281776031E+03 -0.99532754770E+02  0.10040381368E+03  0.21563236804E+03  0.00000000000E+00 0. -1.
         -5    1    3    3    0  503 -0.21281627174E+03  0.49755226309E+02 -0.13585283046E+03  0.25737993241E+03  0.47000000000E+01 0.  1.
         11    1    4    4    0    0 -0.78102824919E+02  0.41072371285E+02 -0.77300294771E+02  0.11731294266E+03  0.00000000000E+00 0. -1.
        -12    1    4    4    0    0 -0.10594556607E+02  0.87597795826E+01 -0.10780191782E+03  0.10867489064E+03  0.00000000000E+00 0.  1.
</event>
<event>
12    1  0.8406581E-002  0.1920579E+03  0.7818608E-02  0.1156760E+00
         21   -1    0    0  503  502  0.00000000000E+00  0.00000000000E+00  0.14403051249E+03  0.14403051249E+03  0.00000000000E+00 0. -1.
         21   -1    0    0  501  503 -0.00000000000E+00 -0.00000000000E+00 -0.32195045919E+03  0.32195045919E+03  0.00000000000E+00 0. -1.
          6    2    1    2  501    0  0.79307164393E+02  0.22624952731E+02 -0.19489211805E+03  0.27317458914E+03  0.17274230422E+03 0.  0.
         24    2    3    3    0    0  0.10823160215E+03  0.11725139498E+02 -0.87142663042E+02  0.16098072085E+03  0.80432519323E+02 0.  0.
         -6    2    1    2    0  502 -0.79307164393E+02 -0.22624952731E+02  0.16972171352E+02  0.19280638254E+03  0.17344950775E+03 0.  0.
        -24    2    5    5    0    0 -0.73848265766E+02  0.42217942142E+02  0.41342813118E+02  0.12316143463E+03  0.78889731833E+02 0.  0.
          5    1    3    3  501    0 -0.28924437752E+02  0.10899813233E+02 -0.10774945501E+03  0.11219386829E+03  0.47000000000E+01 0. -1.
        -11    1    4    4    0    0  0.53552636263E+00  0.26627299973E+02 -0.17161548356E+02  0.31683096981E+02  0.00000000000E+00 0.  1.
         12    1    4    4    0    0  0.10769607578E+03 -0.14902160475E+02 -0.69981114686E+02  0.12929762387E+03  0.00000000000E+00 0. -1.
         -5    1    5    5    0  502 -0.54588986270E+01 -0.64842894873E+02 -0.24370641766E+02  0.69644947913E+02  0.47000000000E+01 0.  1.
         13    1    6    6    0    0 -0.15464390431E+02  0.48540025588E+02 -0.68178748544E+00  0.50948467000E+02  0.00000000000E+00 0. -1.
        -14    1    6    6    0    0 -0.58383875335E+02 -0.63220834465E+01  0.42024600604E+02  0.72212967632E+02  0.00000000000E+00 0.  1.
</event>
<event>
12    1  0.8406581E-002  0.2281646E+03  0.7818608E-02  0.1128048E+00
         21   -1    0    0  503  502  0.00000000000E+00  0.00000000000E+00  0.49035971713E+03  0.49035971713E+03  0.00000000000E+00 0. -1.
         21   -1    0    0  501  503 -0.00000000000E+00 -0.00000000000E+00 -0.17236210927E+03  0.17236210927E+03  0.00000000000E+00 0. -1.
          6    2    1    2  501    0  0.11893174186E+03 -0.90503893413E+02 -0.46664808902E+02  0.23288774510E+03  0.17240470842E+03 0.  0.
         24    2    3    3    0    0  0.11221670002E+03 -0.16168156312E+02 -0.69334730432E+02  0.15474103091E+03  0.79268434822E+02 0.  0.
         -6    2    1    2    0  502 -0.11893174186E+03  0.90503893413E+02  0.36466241676E+03  0.42983408130E+03  0.17158946733E+03 0.  0.
        -24    2    5    5    0    0 -0.57325875478E+02 -0.11483478419E+02  0.11621615356E+03  0.15425407025E+03  0.82885448458E+02 0.  0.
          5    1    3    3  501    0  0.67150418347E+01 -0.74335737101E+02  0.22669921530E+02  0.78146714194E+02  0.47000000000E+01 0. -1.
        -11    1    4    4    0    0 -0.18632944704E+01  0.18165021811E+02 -0.33876715332E+01  0.18571919720E+02  0.00000000000E+00 0.  1.
         12    1    4    4    0    0  0.11407999449E+03 -0.34333178123E+02 -0.65947058899E+02  0.13616911119E+03  0.00000000000E+00 0. -1.
         -5    1    5    5    0  502 -0.61605866380E+02  0.10198737183E+03  0.24844626321E+03  0.27558001104E+03  0.47000000000E+01 0.  1.
         11    1    6    6    0    0 -0.68486470424E+02  0.15480908866E+02  0.95195265180E+02  0.11828860335E+03  0.00000000000E+00 0. -1.
        -12    1    6    6    0    0  0.11160594946E+02 -0.26964387285E+02  0.21020888378E+02  0.35965466901E+02  0.00000000000E+00 0.  1.
</event>
<event>
12    1  0.8406581E-002  0.1775822E+03  0.7818608E-02  0.1170173E+00
         21   -1    0    0  503  502  0.00000000000E+00  0.00000000000E+00  0.34850990086E+03  0.34850990086E+03  0.00000000000E+00 0.  1.
         21   -1    0    0  501  503 -0.00000000000E+00 -0.00000000000E+00 -0.92380532517E+02  0.92380532517E+02  0.00000000000E+00 0. -1.
          6    2    1    2  501    0 -0.28038618103E+02  0.33008794164E+02  0.96357485180E+02  0.20204010205E+03  0.17221989806E+03 0.  0.
         24    2    3    3    0    0 -0.61401353637E+02  0.72641088813E+02  0.83628152204E+02  0.14848716730E+03  0.77510754095E+02 0.  0.
         -6    2    1    2    0  502  0.28038618103E+02 -0.33008794164E+02  0.15977188317E+03  0.23885033134E+03  0.17218211734E+03 0.  0.
        -24    2    5    5    0    0 -0.36089065144E+02  0.19893879808E+02  0.11186369670E+03  0.14278609761E+03  0.78588777520E+02 0.  0.
          5    1    3    3  501    0  0.33362735534E+02 -0.39632294649E+02  0.12729332976E+02  0.53552934742E+02  0.47000000000E+01 0. -1.
        -13    1    4    4    0    0 -0.13207123060E+02  0.51254451441E+02  0.41253468871E+01  0.53089220930E+02  0.00000000000E+00 0.  1.
         14    1    4    4    0    0 -0.48194230577E+02  0.21386637372E+02  0.79502805317E+02  0.95397946374E+02  0.00000000000E+00 0. -1.
         -5    1    5    5    0  502  0.64127683247E+02 -0.52902673972E+02  0.47908186462E+02  0.96064233730E+02  0.47000000000E+01 0.  1.
         11    1    6    6    0    0 -0.89851831435E+01  0.41397382956E+02  0.24769257571E+02  0.49071304775E+02  0.00000000000E+00 0. -1.
        -12    1    6    6    0    0 -0.27103882001E+02 -0.21503503148E+02  0.87094439134E+02  0.93714792830E+02  0.00000000000E+00 0.  1.
</event>
<event>
12    1  0.8406581E-002  0.2523046E+03  0.7818608E-02  0.1112005E+00
         21   -1    0    0  503  502  0.00000000000E+00  0.00000000000E+00  0.25306419396E+03  0.25306419396E+03  0.00000000000E+00 0.  1.
         21   -1    0    0  501  503 -0.00000000000E+00 -0.00000000000E+00 -0.25322712461E+03  0.25322712461E+03  0.00000000000E+00 0. -1.
          6    2    1    2  501    0 -0.18357690120E+03 -0.22626775400E+02 -0.25849625726E+02  0.25362529435E+03  0.17159585416E+03 0.  0.
         24    2    3    3    0    0 -0.80294953979E+02 -0.40880159958E+02 -0.71163494299E+02  0.13927590277E+03  0.78835696605E+02 0.  0.
         -6    2    1    2    0  502  0.18357690120E+03  0.22626775400E+02  0.25686695081E+02  0.25266602422E+03  0.17019948258E+03 0.  0.
        -24    2    5    5    0    0  0.82690015959E+02 -0.64076525461E+01 -0.46795572959E+02  0.12500659135E+03  0.80982254121E+02 0.  0.
          5    1    3    3  501    0 -0.10328194722E+03  0.18253384558E+02  0.45313868573E+02  0.11434939158E+03  0.47000000000E+01 0. -1.
        -11    1    4    4    0    0 -0.72478412980E+01  0.20847176131E+02 -0.24126733778E+02  0.32699162664E+02  0.00000000000E+00 0.  1.
         12    1    4    4    0    0 -0.73047112681E+02 -0.61727336089E+02 -0.47036760521E+02  0.10657674011E+03  0.00000000000E+00 0. -1.
         -5    1    5    5    0  502  0.10088688524E+03  0.29034427946E+02  0.72482268041E+02  0.12765943287E+03  0.47000000000E+01 0.  1.
         11    1    6    6    0    0 -0.16280560093E+02 -0.38010947671E+01 -0.93621090646E+01  0.19161264168E+02  0.00000000000E+00 0. -1.
        -12    1    6    6    0    0  0.98970576052E+02 -0.26065577790E+01 -0.37433463895E+02  0.10584532718E+03  0.00000000000E+00 0.  1.
</event>
<event>
12    1  0.8406581E-002  0.1748614E+03  0.7818608E-02  0.1172958E+00
         21   -1    0    0  501  502  0.00000000000E+00  0.00000000000E+00  0.27091090762E+03  0.27091090762E+03  0.00000000000E+00 0.  1.
         21   -1    0    0  502  503 -0.00000000000E+00 -0.00000000000E+00 -0.12847120046E+03  0.12847120046E+03  0.00000000000E+00 0.  1.
         -6    2    1    2    0  503  0.25340255881E+02  0.17682840656E+02  0.10670572445E+01  0.17452053483E+03  0.17175991105E+03 0.  0.
        -24    2    3    3    0    0  0.36228052128E+02  0.49551264078E+02  0.51646308739E+02  0.11357390900E+03  0.80398333731E+02 0.  0.
          6    2    1    2  501    0 -0.25340255881E+02 -0.17682840656E+02  0.14137264992E+03  0.22486157324E+03  0.17210952779E+03 0.  0.
         24    2    5    5    0    0  0.13925690771E+02  0.48470938348E+02  0.98614385449E+02  0.13672250005E+03  0.80155400786E+02 0.  0.
          5    1    5    5  501    0 -0.39265946652E+02 -0.66153779004E+02  0.42758264467E+02  0.88139073192E+02  0.47000000000E+01 0. -1.
        -11    1    6    6    0    0 -0.33603294064E+02  0.16660575950E+02  0.38596554890E+02  0.53818679028E+02  0.00000000000E+00 0.  1.
         12    1    6    6    0    0  0.47528984835E+02  0.31810362398E+02  0.60017830559E+02  0.82903821024E+02  0.00000000000E+00 0. -1.
         -5    1    3    3    0  503 -0.10887796247E+02 -0.31868423423E+02 -0.50579251494E+02  0.60946625832E+02  0.47000000000E+01 0.  1.
         13    1    4    4    0    0  0.61710351518E+02  0.40199900691E+02  0.41896485729E+02  0.84732018839E+02  0.00000000000E+00 0. -1.
        -14    1    4    4    0    0 -0.25482299390E+02  0.93513633871E+01  0.97498230103E+01  0.28841890163E+02  0.00000000000E+00 0.  1.
</event>
<event>
12    1  0.8406581E-002  0.1792001E+03  0.7818608E-02  0.1168642E+00
         21   -1    0    0  501  502  0.00000000000E+00  0.00000000000E+00  0.17601394740E+03  0.17601394740E+03  0.00000000000E+00 0. -1.
         21   -1    0    0  502  503 -0.00000000000E+00 -0.00000000000E+00 -0.19444010620E+03  0.19444010620E+03  0.00000000000E+00 0.  1.
         -6    2    1    2    0  503 -0.51242406522E+01 -0.52490914198E+02 -0.55728852446E+02  0.18766564045E+03  0.17126334604E+03 0.  0.
        -24    2    3    3    0    0 -0.54922805752E+02 -0.41803988141E+01  0.26428850319E+01  0.96873830698E+02  0.79646493375E+02 0.  0.
          6    2    1    2  501    0  0.51242406522E+01  0.52490914198E+02  0.37302693645E+02  0.18278841315E+03  0.17099286275E+03 0.  0.
         24    2    5    5    0    0  0.53902155458E+02  0.28423408706E+02  0.66773300457E+02  0.12074700391E+03  0.80048939874E+02 0.  0.
          5    1    5    5  501    0 -0.48777914806E+02  0.24067505493E+02 -0.29470606812E+02  0.62041409231E+02  0.47000000000E+01 0. -1.
        -13    1    6    6    0    0  0.86890549151E+01 -0.29063452270E+01 -0.17706872912E+02  0.19936897106E+02  0.00000000000E+00 0.  1.
         14    1    6    6    0    0  0.45213100543E+02  0.31329753933E+02  0.84480173369E+02  0.10081010681E+03  0.00000000000E+00 0. -1.
         -5    1    3    3    0  503  0.49798565100E+02 -0.48310515384E+02 -0.58371737478E+02  0.90791809756E+02  0.47000000000E+01 0.  1.
         13    1    4    4    0    0  0.16971471280E+02  0.11886437746E+02 -0.84477899052E+01  0.22375955711E+02  0.00000000000E+00 0. -1.
        -14    1    4    4    0    0 -0.71894277032E+02 -0.16066836560E+02  0.11090674937E+02  0.74497874987E+02  0.00000000000E+00 0.  1.
</event>
<event>
12    1  0.8406581E-002  0.1918568E+03  0.7818608E-02  0.1159637E+00
         21   -1    0    0  501  502  0.00000000000E+00  0.00000000000E+00  0.59236046884E+03  0.59236046884E+03  0.00000000000E+00 0.  1.
         21   -1    0    0  502  503 -0.00000000000E+00 -0.00000000000E+00 -0.65042269418E+02  0.65042269418E+02  0.00000000000E+00 0. -1.
         -6    2    1    2    0  503  0.55860876414E+02  0.63114656068E+01  0.16504699680E+03  0.25308013221E+03  0.18343601079E+03 0.  0.
        -24    2    3    3    0    0  0.10735614055E+03  0.21010333400E+02  0.13793088501E+03  0.19287056103E+03  0.78786732702E+02 0.  0.
          6    2    1    2  501    0 -0.55860876414E+02 -0.63114656068E+01  0.36227120263E+03  0.40432260605E+03  0.17051707656E+03 0.  0.
         24    2    5    5    0    0 -0.44893193761E+02  0.28467827773E+02  0.35395199621E+03  0.36662395215E+03  0.79405860019E+02 0.  0.
          5    1    5    5  501    0 -0.10967682653E+02 -0.34779293380E+02  0.83192064237E+01  0.37698653906E+02  0.47000000000E+01 0. -1.
        -13    1    6    6    0    0 -0.28127287307E+01  0.32998133245E+02  0.51529201838E+02  0.61253954016E+02  0.00000000000E+00 0.  1.
         14    1    6    6    0    0 -0.42080465030E+02 -0.45303054719E+01  0.30242279437E+03  0.30536999813E+03  0.00000000000E+00 0. -1.
         -5    1    3    3    0  503 -0.51495264137E+02 -0.14698867793E+02  0.27116111788E+02  0.60209571178E+02  0.47000000000E+01 0.  1.
         13    1    4    4    0    0  0.38281984373E+02 -0.29511923397E+02  0.60705891291E+02  0.77599414866E+02  0.00000000000E+00 0. -1.
        -14    1    4    4    0    0  0.69074156179E+02  0.50522256798E+02  0.77224993717E+02  0.11527114617E+03  0.00000000000E+00 0.  1.
</event>
<event>
12    1  0.8406581E-002  0.1714781E+03  0.7818608E-02  0.1176380E+00
         21   -1    0    0  501  502  0.00000000000E+00  0.00000000000E+00  0.40453876926E+03  0.40453876926E+03  0.00000000000E+00 0. -1.
         21   -1    0    0  502  503 -0.00000000000E+00 -0.00000000000E+00 -0.74381049641E+02  0.74381049641E+02  0.00000000000E+00 0. -1.
         -6    2    1    2    0  503  0.15334807291E+02 -0.82382821769E+01  0.12793402775E+03  0.21394359474E+03  0.17059226438E+03 0.  0.
        -24    2    3    3    0    0  0.50483577100E+02 -0.45460405144E+02  0.38040526518E+02  0.11038755184E+03  0.78250175403E+02 0.  0.
          6    2    1    2  501    0 -0.15334807291E+02  0.82382821769E+01  0.20222369187E+03  0.26497622417E+03  0.17033775920E+03 0.  0.
         24    2    5    5    0    0  0.12353332989E+02 -0.30531453691E+02  0.19878436905E+03  0.21697992772E+03  0.80500243187E+02 0.  0.
          5    1    5    5  501    0 -0.27688140280E+02  0.38769735868E+02  0.34393228246E+01  0.47996296451E+02  0.47000000000E+01 0. -1.
        -13    1    6    6    0    0 -0.24650741286E+02 -0.35386839060E+02  0.64377835902E+02  0.77488019591E+02  0.00000000000E+00 0.  1.
         14    1    6    6    0    0  0.37004074275E+02  0.48553853688E+01  0.13440653315E+03  0.13949190813E+03  0.00000000000E+00 0. -1.
         -5    1    3    3    0  503 -0.35148769809E+02  0.37222122967E+02  0.89893501231E+02  0.10355604290E+03  0.47000000000E+01 0.  1.
         11    1    4    4    0    0 -0.97143207998E+01  0.88054239545E+01 -0.97144179736E+01  0.16317887001E+02  0.00000000000E+00 0. -1.
        -12    1    4    4    0    0  0.60197897900E+02 -0.54265829098E+02  0.47754944492E+02  0.94069664838E+02  0.00000000000E+00 0.  1.
</event>
<event>
12    1  0.8406581E-002  0.1930138E+03  0.7818608E-02  0.1156324E+00
         21   -1    0    0  501  502  0.00000000000E+00  0.00000000000E+00  0.27062061466E+03  0.27062061466E+03  0.00000000000E+00 0.  1.
         21   -1    0    0  502  503 -0.00000000000E+00 -0.00000000000E+00 -0.15209202867E+03  0.15209202867E+03  0.00000000000E+00 0.  1.
         -6    2    1    2    0  503 -0.56416376691E+02 -0.67869634930E+02 -0.10051351822E+02  0.19079213931E+03  0.16885353371E+03 0.  0.
        -24    2    3    3    0    0 -0.42124636580E+02 -0.89622886803E+02 -0.55238936859E+02  0.13843313203E+03  0.79408091852E+02 0.  0.
          6    2    1    2  501    0  0.56416376691E+02  0.67869634930E+02  0.12857993782E+03  0.23192050402E+03  0.17165437620E+03 0.  0.
         24    2    5    5    0    0 -0.28535525148E+02  0.24201379818E+02  0.10060694097E+03  0.13227954515E+03  0.77305488256E+02 0.  0.
          5    1    5    5  501    0  0.84951901839E+02  0.43668255112E+02  0.27972996853E+02  0.99640958865E+02  0.47000000000E+01 0. -1.
        -11    1    6    6    0    0 -0.53545696765E+02  0.82884903834E+01  0.50541720621E+02  0.74096600720E+02  0.00000000000E+00 0.  1.
         12    1    6    6    0    0  0.25010171618E+02  0.15912889434E+02  0.50065220347E+02  0.58182944433E+02  0.00000000000E+00 0. -1.
         -5    1    3    3    0  503 -0.14291740111E+02  0.21753251873E+02  0.45187585037E+02  0.52359007286E+02  0.47000000000E+01 0.  1.
         11    1    4    4    0    0 -0.62755447780E+02 -0.73925837138E+02 -0.28229325283E+02  0.10099589313E+03  0.00000000000E+00 0. -1.
        -12    1    4    4    0    0  0.20630811200E+02 -0.15697049665E+02 -0.27009611576E+02  0.37437238900E+02  0.00000000000E+00 0.  1.
</event>
<event>
12    1  0.8406581E-002  0.2663895E+03  0.7818608E-02  0.1103693E+00
         21   -1    0    0  501  502  0.00000000000E+00  0.00000000000E+00  0.90274574988E+02  0.90274574988E+02  0.00000000000E+00 0. -1.
         21   -1    0    0  502  503 -0.00000000000E+00 -0.00000000000E+00 -0.10420257350E+04  0.10420257350E+04  0.00000000000E+00 0.  1.
         -6    2    1    2    0  503 -0.84435068154E+02  0.18514623283E+03 -0.19319196746E+03  0.32906916735E+03  0.17191559657E+03 0.  0.
        -24    2    3    3    0    0 -0.20101836042E+02  0.18314282769E+03 -0.15633822514E+03  0.25475182947E+03  0.80693709988E+02 0.  0.
          6    2    1    2  501    0  0.84435068154E+02 -0.18514623283E+03 -0.75855919251E+03  0.80323114259E+03  0.16840371619E+03 0.  0.
         24    2    5    5    0    0  0.31391546335E+02 -0.16701531071E+03 -0.42960198002E+03  0.46949878996E+03  0.83616441839E+02 0.  0.
          5    1    5    5  501    0  0.53043521819E+02 -0.18130922122E+02 -0.32895721248E+03  0.33373235263E+03  0.47000000000E+01 0. -1.
        -13    1    6    6    0    0  0.48982523522E+02 -0.60867994668E+02 -0.22747608395E+03  0.24051937376E+03  0.00000000000E+00 0.  1.
         14    1    6    6    0    0 -0.17590977186E+02 -0.10614731604E+03 -0.20212589607E+03  0.22897941620E+03  0.00000000000E+00 0. -1.
         -5    1    3    3    0  503 -0.64333232113E+02  0.20034051400E+01 -0.36853742316E+02  0.74317337875E+02  0.47000000000E+01 0.  1.
         11    1    4    4    0    0 -0.47070079958E+02  0.75940206245E+02 -0.55875165365E+02  0.10537808812E+03  0.00000000000E+00 0. -1.
        -12    1    4    4    0    0  0.26968243916E+02  0.10720262145E+03 -0.10046305978E+03  0.14937374135E+03  0.00000000000E+00 0.  1.
</event>
<event>
12    1  0.8406581E-002  0.1764673E+03  0.7818608E-02  0.1171430E+00
         21   -1    0    0  501  502  0.00000000000E+00  0.00000000000E+00  0.11223334717E+04  0.11223334717E+04  0.00000000000E+00 0. -1.
         21   -1    0    0  502  503 -0.00000000000E+00 -0.00000000000E+00 -0.28122053531E+02  0.28122053531E+02  0.00000000000E+00 0. -1.
         -6    2    1    2    0  503 -0.39307243420E+02  0.27717885632E+01  0.62318001659E+03  0.64768359503E+03  0.17201152288E+03 0.  0.
        -24    2    3    3    0    0 -0.87208491086E+02  0.33694071027E+01  0.52322979596E+03  0.53674657109E+03  0.81919401755E+02 0.  0.
          6    2    1    2  501    0  0.39307243420E+02 -0.27717885632E+01  0.47103140157E+03  0.50277193019E+03  0.17133677458E+03 0.  0.
         24    2    5    5    0    0 -0.13065795985E+02 -0.58145842569E+02  0.27012165619E+03  0.28783929678E+03  0.79587044153E+02 0.  0.
          5    1    5    5  501    0  0.52373039405E+02  0.55374054006E+02  0.20090974538E+03  0.21493263341E+03  0.47000000000E+01 0. -1.
        -11    1    6    6    0    0 -0.14732074770E+01 -0.57007004362E+02  0.27023900516E+03  0.27619031264E+03  0.00000000000E+00 0.  1.
         12    1    6    6    0    0 -0.11592588508E+02 -0.11388382071E+01 -0.11734896991E+00  0.11648984143E+02  0.00000000000E+00 0. -1.
         -5    1    3    3    0  503  0.47901247666E+02 -0.59761853949E+00  0.99950220633E+02  0.11093702394E+03  0.47000000000E+01 0.  1.
         13    1    4    4    0    0 -0.43112180631E+02 -0.25257632927E+02  0.39514924818E+03  0.39829579018E+03  0.00000000000E+00 0. -1.
        -14    1    4    4    0    0 -0.44096310456E+02  0.28627040030E+02  0.12808054778E+03  0.13845078091E+03  0.00000000000E+00 0.  1.
</event>
<event>
12    1  0.8406581E-002  0.1789707E+03  0.7818608E-02  0.1170159E+00
         21   -1    0    0  503  502  0.00000000000E+00  0.00000000000E+00  0.10503572245E+04  0.10503572245E+04  0.00000000000E+00 0. -1.
         21   -1    0    0  501  503 -0.00000000000E+00 -0.00000000000E+00 -0.33560345179E+02  0.33560345179E+02  0.00000000000E+00 0. -1.
          6    2    1    2  501    0 -0.28706981747E+02 -0.35969797646E+02  0.32848751717E+03  0.37407829162E+03  0.17295260095E+03 0.  0.
         24    2    3    3    0    0  0.37500386362E+01 -0.23086667623E+02  0.55957728254E+02  0.99280167423E+02  0.78601700239E+02 0.  0.
         -6    2    1    2    0  502  0.28706981747E+02  0.35969797646E+02  0.68830936218E+03  0.70983927809E+03  0.16728450473E+03 0.  0.
        -24    2    5    5    0    0 -0.40224180558E+02  0.37681613287E+02  0.48618681808E+03  0.49622736766E+03  0.82620152825E+02 0.  0.
          5    1    3    3  501    0 -0.32457020383E+02 -0.12883130024E+02  0.27252978892E+03  0.27479812419E+03  0.47000000000E+01 0. -1.
        -13    1    4    4    0    0 -0.28382550097E+02  0.14616631276E+02  0.27586615715E+02  0.42192848049E+02  0.00000000000E+00 0.  1.
         14    1    4    4    0    0  0.32132588733E+02 -0.37703298899E+02  0.28371112539E+02  0.57087319374E+02  0.00000000000E+00 0. -1.
         -5    1    5    5    0  502  0.68931162305E+02 -0.17118156403E+01  0.20212254409E+03  0.21361191044E+03  0.47000000000E+01 0.  1.
         13    1    6    6    0    0  0.33724448646E+01  0.45546161759E+02  0.35119975464E+03  0.35415687752E+03  0.00000000000E+00 0. -1.
        -14    1    6    6    0    0 -0.43596625423E+02 -0.78645484725E+01  0.13498706344E+03  0.14207049014E+03  0.00000000000E+00 0.  1.
</event>
<event>
12    1  0.8406581E-002  0.1842606E+03  0.7818608E-02  0.1163876E+00
         21   -1    0    0  503  502  0.00000000000E+00  0.00000000000E+00  0.59024592018E+02  0.59024592018E+02  0.00000000000E+00 0. -1.
         21   -1    0    0  501  503 -0.00000000000E+00 -0.00000000000E+00 -0.82606477481E+03  0.82606477481E+03  0.00000000000E+00 0. -1.
          6    2    1    2  501    0 -0.37254158418E+01  0.65593908490E+02 -0.62783918366E+03  0.65415892205E+03  0.17153837823E+03 0.  0.
         24    2    3    3    0    0  0.49710948621E+02  0.63539942019E+02 -0.53071514974E+03  0.54318671026E+03  0.82974269468E+02 0.  0.
         -6    2    1    2    0  502  0.37254158418E+01 -0.65593908490E+02 -0.13920099913E+03  0.23093044477E+03  0.17214968083E+03 0.  0.
        -24    2    5    5    0    0  0.56152498396E+02 -0.52795879922E+02 -0.45878590106E+02  0.12302515970E+03  0.84201169095E+02 0.  0.
          5    1    3    3  501    0 -0.53436364462E+02  0.20539664711E+01 -0.97124033923E+02  0.11097221179E+03  0.47000000000E+01 0. -1.
        -13    1    4    4    0    0  0.57138360652E+02  0.63125781217E+01 -0.23874868260E+03  0.24557193314E+03  0.00000000000E+00 0.  1.
         14    1    4    4    0    0 -0.74274120316E+01  0.57227363897E+02 -0.29196646714E+03  0.29761477712E+03  0.00000000000E+00 0. -1.
         -5    1    5    5    0  502 -0.52427082554E+02 -0.12798028568E+02 -0.93322409023E+02  0.10790528507E+03  0.47000000000E+01 0.  1.
         13    1    6    6    0    0  0.51170946103E+02 -0.59427307984E+02 -0.20818801090E+01  0.78450015195E+02  0.00000000000E+00 0. -1.
        -14    1    6    6    0    0  0.49815522929E+01  0.66314280618E+01 -0.43796709997E+02  0.44575144508E+02  0.00000000000E+00 0.  1.
</event>
<event>
12    1  0.8406581E-002  0.2461518E+03  0.7818608E-02  0.1116348E+00
         21   -1    0    0  503  502  0.00000000000E+00  0.00000000000E+00  0.33555664316E+03  0.33555664316E+03  0.00000000000E+00 0. -1.
         21   -1    0    0  501  503 -0.00000000000E+00 -0.00000000000E+00 -0.41438566931E+03  0.41438566931E+03  0.00000000000E+00 0. -1.
          6    2    1    2  501    0  0.13190762753E+03  0.11435256705E+03 -0.32278841685E+03  0.40593478699E+03  0.17353546451E+03 0.  0.
         24    2    3    3    0    0  0.61692709260E+02  0.69608826649E+01 -0.74703698389E+02  0.12659408792E+03  0.81184827893E+02 0.  0.
         -6    2    1    2    0  502 -0.13190762753E+03 -0.11435256705E+03  0.24395939070E+03  0.34400752548E+03  0.16837120146E+03 0.  0.
        -24    2    5    5    0    0 -0.81880703075E+02 -0.14420087842E+03  0.18858570605E+03  0.26349696832E+03  0.79798126000E+02 0.  0.
          5    1    3    3  501    0  0.70214918274E+02  0.10739168438E+03 -0.24808471846E+03  0.27934069907E+03  0.47000000000E+01 0. -1.
        -13    1    4    4    0    0  0.16145044204E+02 -0.10721223218E+01  0.17257955112E+02  0.23656899908E+02  0.00000000000E+00 0.  1.
         14    1    4    4    0    0  0.45547665057E+02  0.80330049867E+01 -0.91961653501E+02  0.10293718801E+03  0.00000000000E+00 0. -1.
         -5    1    5    5    0  502 -0.50026924460E+02  0.29848311369E+02  0.55373684650E+02  0.80510557160E+02  0.47000000000E+01 0.  1.
         11    1    6    6    0    0 -0.82650892422E+02 -0.69251439803E+02  0.12608101903E+03  0.16590164343E+03  0.00000000000E+00 0. -1.
        -12    1    6    6    0    0  0.77018934772E+00 -0.74949438613E+02  0.62504687018E+02  0.97595324884E+02  0.00000000000E+00 0.  1.
</event>
<event>
12    1  0.8406581E-002  0.1867723E+03  0.7818608E-02  0.1161426E+00
         21   -1    0    0  503  502  0.00000000000E+00  0.00000000000E+00  0.52498376885E+03  0.52498376885E+03  0.00000000000E+00 0. -1.
         21   -1    0    0  501  503 -0.00000000000E+00 -0.00000000000E+00 -0.10645332213E+03  0.10645332213E+03  0.00000000000E+00 0.  1.
          6    2    1    2  501    0 -0.29160827626E+02 -0.63688285633E+02  0.15612337005E+02  0.18733474729E+03  0.17304337861E+03 0.  0.
         24    2    3    3    0    0 -0.46489175440E+02 -0.11817261792E+02 -0.45387228009E+02  0.10527433245E+03  0.81986544610E+02 0.  0.
         -6    2    1    2    0  502  0.29160827626E+02  0.63688285633E+02  0.40291810971E+03  0.44410234368E+03  0.17313964576E+03 0.  0.
        -24    2    5    5    0    0  0.40944623616E+02  0.10773556839E+03  0.29387852569E+03  0.32581987732E+03  0.80688225243E+02 0.  0.
          5    1    3    3  501    0  0.17328347814E+02 -0.51871023841E+02  0.60999565014E+02  0.82060414842E+02  0.47000000000E+01 0. -1.
        -11    1    4    4    0    0 -0.60083845227E+01  0.31513603978E+02 -0.30206233555E+02  0.44063868031E+02  0.00000000000E+00 0.  1.
         12    1    4    4    0    0 -0.40480790917E+02 -0.43330865771E+02 -0.15180994453E+02  0.61210464418E+02  0.00000000000E+00 0. -1.
         -5    1    5    5    0  502 -0.11783795990E+02 -0.44047282753E+02  0.10903958402E+03  0.11828246637E+03  0.47000000000E+01 0.  1.
         13    1    6    6    0    0  0.37406951439E+02  0.48823718672E+01  0.74920771504E+02  0.83882295950E+02  0.00000000000E+00 0. -1.
        -14    1    6    6    0    0  0.35376721774E+01  0.10285319652E+03  0.21895775419E+03  0.24193758137E+03  0.00000000000E+00 0.  1.
</event>
<event>
12    1  0.8406581E-002  0.2021783E+03  0.7818608E-02  0.1149253E+00
         21   -1    0    0  501  502  0.00000000000E+00  0.00000000000E+00  0.50535176617E+03  0.50535176617E+03  0.00000000000E+00 0.  1.
         21   -1    0    0  502  503 -0.00000000000E+00 -0.00000000000E+00 -0.13003003017E+03  0.13003003017E+03  0.00000000000E+00 0.  1.
         -6    2    1    2    0  503  0.10647417581E+03  0.62454622794E+01 -0.10762105528E+02  0.20246455243E+03  0.17175656076E+03 0.  0.
        -24    2    3    3    0    0  0.77745648015E+02  0.10176039326E+02  0.57993002179E+02  0.12769736323E+03  0.82434766412E+02 0.  0.
          6    2    1    2  501    0 -0.10647417581E+03 -0.62454622794E+01  0.38608384152E+03  0.43291724391E+03  0.16425848980E+03 0.  0.
         24    2    5    5    0    0 -0.10788419928E+03  0.11690652694E+02  0.39068881914E+03  0.41376030768E+03  0.82366054880E+02 0.  0.
          5    1    5    5  501    0  0.14100234753E+01 -0.17936114973E+02 -0.46049776183E+01  0.19156936222E+02  0.47000000000E+01 0. -1.
        -11    1    6    6    0    0 -0.92115483655E+02  0.41081531521E+02  0.32153374894E+03  0.33698205630E+03  0.00000000000E+00 0.  1.
         12    1    6    6    0    0 -0.15768715627E+02 -0.29390878827E+02  0.69155070202E+02  0.76778251383E+02  0.00000000000E+00 0. -1.
         -5    1    3    3    0  503  0.28728527792E+02 -0.39305770464E+01 -0.68755107707E+02  0.74767189199E+02  0.47000000000E+01 0.  1.
         13    1    4    4    0    0  0.85836022640E+01 -0.20241516614E+02  0.46283210994E+02  0.51239953577E+02  0.00000000000E+00 0. -1.
        -14    1    4    4    0    0  0.69162045751E+02  0.30417555940E+02  0.11709791185E+02  0.76457409657E+02  0.00000000000E+00 0.  1.
</event>
<event>
12    1  0.8406581E-002  0.2021813E+03  0.7818608E-02  0.1149434E+00
         21   -1    0    0  503  502  0.00000000000E+00  0.00000000000E+00  0.31188020915E+03  0.31188020915E+03  0.00000000000E+00 0. -1.
         21   -1    0    0  501  503 -0.00000000000E+00 -0.00000000000E+00 -0.16004765097E+03  0.16004765097E+03  0.00000000000E+00 0.  1.
          6    2    1    2  501    0 -0.85710812689E+02 -0.62098573317E+02 -0.31090983969E+02  0.20455793025E+03  0.17226352290E+03 0.  0.
         24    2    3    3    0    0 -0.97616293333E+02 -0.96705589066E+02 -0.44478770562E+02  0.16530606611E+03  0.80416557882E+02 0.  0.
         -6    2    1    2    0  502  0.85710812689E+02  0.62098573317E+02  0.18292354215E+03  0.26736992987E+03  0.16377753481E+03 0.  0.
        -24    2    5    5    0    0  0.95320664035E+02  0.24479596978E+02  0.64239470297E+02  0.14240779347E+03  0.80423817588E+02 0.  0.
          5    1    3    3  501    0  0.11905480644E+02  0.34607015749E+02  0.13387786593E+02  0.39251864137E+02  0.47000000000E+01 0. -1.
        -13    1    4    4    0    0 -0.33258715003E+02  0.76996537092E+01 -0.22007533225E+02  0.40617216911E+02  0.00000000000E+00 0.  1.
         14    1    4    4    0    0 -0.64357578330E+02 -0.10440524278E+03 -0.22471237337E+02  0.12468884920E+03  0.00000000000E+00 0. -1.
         -5    1    5    5    0  502 -0.96098513459E+01  0.37618976339E+02  0.11868407185E+03  0.12496213641E+03  0.47000000000E+01 0.  1.
         11    1    6    6    0    0  0.32332928026E+01 -0.92790238929E+01  0.40255885488E+02  0.41437794140E+02  0.00000000000E+00 0. -1.
        -12    1    6    6    0    0  0.92087371232E+02  0.33758620871E+02  0.23983584809E+02  0.10096999933E+03  0.00000000000E+00 0.  1.
</event>
<event>
12    1  0.8406581E-002  0.1952440E+03  0.7818608E-02  0.1154186E+00
         21   -1    0    0  503  502  0.00000000000E+00  0.00000000000E+00  0.13729233278E+03  0.13729233278E+03  0.00000000000E+00 0. -1.
         21   -1    0    0  501  503 -0.00000000000E+00 -0.00000000000E+00 -0.28012531375E+03  0.28012531375E+03  0.00000000000E+00 0.  1.
          6    2    1    2  501    0  0.58080715422E+02  0.71305408770E+02 -0.44181749112E+02  0.20018052226E+03  0.17222770891E+03 0.  0.
         24    2    3    3    0    0 -0.32472381341E+02  0.69239558892E+02 -0.28844260248E+02  0.10819432964E+03  0.70890405210E+02 0.  0.
         -6    2    1    2    0  502 -0.58080715422E+02 -0.71305408770E+02 -0.98651231853E+02  0.21723712427E+03  0.17029994653E+03 0.  0.
        -24    2    5    5    0    0 -0.49965322560E+02 -0.66861807120E+02 -0.13588190313E+03  0.17858718144E+03  0.80389396478E+02 0.  0.
          5    1    3    3  501    0  0.90553096763E+02  0.20658498785E+01 -0.15337488864E+02  0.91986192625E+02  0.47000000000E+01 0. -1.
        -13    1    4    4    0    0 -0.22609064089E+02  0.63350839274E+02  0.97131300044E+01  0.67962074057E+02  0.00000000000E+00 0.  1.
         14    1    4    4    0    0 -0.98633172523E+01  0.58887196182E+01 -0.38557390253E+02  0.40232255580E+02  0.00000000000E+00 0. -1.
         -5    1    5    5    0  502 -0.81153928619E+01 -0.44436016506E+01  0.37230671276E+02  0.38649942828E+02  0.47000000000E+01 0.  1.
         11    1    6    6    0    0 -0.22883566730E+01  0.74772195753E+01  0.70790103831E+01  0.10547880206E+02  0.00000000000E+00 0. -1.
        -12    1    6    6    0    0 -0.47676965887E+02 -0.74339026695E+02 -0.14296091351E+03  0.16803930123E+03  0.00000000000E+00 0.  1.
</event>
<event>
12    1  0.8406581E-002  0.2092308E+03  0.7818608E-02  0.1142255E+00
         21   -1    0    0  503  502  0.00000000000E+00  0.00000000000E+00  0.13459950551E+04  0.13459950551E+04  0.00000000000E+00 0. -1.
         21   -1    0    0  501  503 -0.00000000000E+00 -0.00000000000E+00 -0.36868043915E+03  0.36868043915E+03  0.00000000000E+00 0. -1.
          6    2    1    2  501    0 -0.46730065619E+02  0.10879888126E+03 -0.33002523236E+03  0.39076101912E+03  0.17250108542E+03 0.  0.
         24    2    3    3    0    0 -0.84725178774E+02  0.68341774922E+02 -0.29652101239E+03  0.32576079733E+03  0.79664497538E+02 0.  0.
         -6    2    1    2    0  502  0.46730065619E+02 -0.10879888126E+03  0.13073398483E+04  0.13239144751E+04  0.17202082105E+03 0.  0.
        -24    2    5    5    0    0  0.15324439143E+02 -0.13891418320E+03  0.91021727188E+03  0.92438766064E+03  0.80405698675E+02 0.  0.
          5    1    3    3  501    0  0.37995113155E+02  0.40457106336E+02 -0.33504219969E+02  0.65000221788E+02  0.47000000000E+01 0. -1.
        -11    1    4    4    0    0  0.11455776808E+02 -0.39246395197E+01 -0.12971677815E+02  0.17745479508E+02  0.00000000000E+00 0.  1.
         12    1    4    4    0    0 -0.96180955582E+02  0.72266414442E+02 -0.28354933458E+03  0.30801531782E+03  0.00000000000E+00 0. -1.
         -5    1    5    5    0  502  0.31405626476E+02  0.30115301945E+02  0.39712257639E+03  0.39952681445E+03  0.47000000000E+01 0.  1.
         11    1    6    6    0    0 -0.86684082777E+01 -0.60226405859E+02  0.61246762453E+03  0.61548269867E+03  0.00000000000E+00 0. -1.
        -12    1    6    6    0    0  0.23992847421E+02 -0.78687777345E+02  0.29774964735E+03  0.30890496197E+03  0.00000000000E+00 0.  1.
</event>
<event>
12    1  0.8406581E-002  0.1948755E+03  0.7818608E-02  0.1154283E+00
         21   -1    0    0  501  502  0.00000000000E+00  0.00000000000E+00  0.16020901196E+03  0.16020901196E+03  0.00000000000E+00 0.  1.
         21   -1    0    0  502  503 -0.00000000000E+00 -0.00000000000E+00 -0.34573879610E+03  0.34573879610E+03  0.00000000000E+00 0.  1.
         -6    2    1    2    0  503 -0.10022833414E+02  0.91101929501E+02 -0.23502984952E+03  0.30488381436E+03  0.17121650431E+03 0.  0.
        -24    2    3    3    0    0 -0.68473025894E+02  0.82388193205E+02 -0.14439110314E+03  0.19657949060E+03  0.79487960113E+02 0.  0.
          6    2    1    2  501    0  0.10022833414E+02 -0.91101929501E+02  0.49500065368E+02  0.20106399370E+03  0.17197806355E+03 0.  0.
         24    2    5    5    0    0  0.21661645586E+02 -0.73731588227E+02  0.97106505564E+02  0.14885619875E+03  0.82600971500E+02 0.  0.
          5    1    5    5  501    0 -0.11638812173E+02 -0.17370341274E+02 -0.47606440196E+02  0.52207794944E+02  0.47000000000E+01 0. -1.
        -13    1    6    6    0    0 -0.26174986862E+02 -0.16921685578E+02  0.67435137426E+01  0.31889627744E+02  0.00000000000E+00 0.  1.
         14    1    6    6    0    0  0.47836632449E+02 -0.56809902649E+02  0.90362991822E+02  0.11696657101E+03  0.00000000000E+00 0. -1.
         -5    1    3    3    0  503  0.58450192480E+02  0.87137362963E+01 -0.90638746377E+02  0.10830432376E+03  0.47000000000E+01 0.  1.
         13    1    4    4    0    0  0.78967059163E+01 -0.93964554125E+01 -0.24343102613E+02  0.27262391375E+02  0.00000000000E+00 0. -1.
        -14    1    4    4    0    0 -0.76369731811E+02  0.91784648617E+02 -0.12004800053E+03  0.16931709922E+03  0.00000000000E+00 0.  1.
</event>
<event>
12    1  0.8406581E-002  0.2466306E+03  0.7818608E-02  0.1115502E+00
         21   -1    0    0  501  502  0.00000000000E+00  0.00000000000E+00  0.15074748118E+03  0.15074748118E+03  0.00000000000E+00 0. -1.
         21   -1    0    0  502  503 -0.00000000000E+00 -0.00000000000E+00 -0.41230905536E+03  0.41230905536E+03  0.00000000000E+00 0. -1.
         -6    2    1    2    0  503  0.16363246755E+03  0.66226361023E+02 -0.17314893290E+03  0.30134234147E+03  0.17223570612E+03 0.  0.
        -24    2    3    3    0    0  0.11379091391E+03  0.62630036294E+02 -0.38073944237E+02  0.15724356776E+03  0.80031374079E+02 0.  0.
          6    2    1    2  501    0 -0.16363246755E+03 -0.66226361023E+02 -0.88412641277E+02  0.26171419506E+03  0.17180223930E+03 0.  0.
         24    2    5    5    0    0 -0.13061437140E+03 -0.26311507658E+02 -0.12330598228E+03  0.19908013533E+03  0.81707561231E+02 0.  0.
          5    1    5    5  501    0 -0.33018096152E+02 -0.39914853365E+02  0.34893341007E+02  0.62634059738E+02  0.47000000000E+01 0. -1.
        -13    1    6    6    0    0 -0.68832313533E+02 -0.44332785285E+02 -0.10304095336E+03  0.13160821139E+03  0.00000000000E+00 0.  1.
         14    1    6    6    0    0 -0.61782057870E+02  0.18021277626E+02 -0.20265028929E+02  0.67471923934E+02  0.00000000000E+00 0. -1.
         -5    1    3    3    0  503  0.49841553645E+02  0.35963247295E+01 -0.13507498867E+03  0.14409877371E+03  0.47000000000E+01 0.  1.
         13    1    4    4    0    0  0.83370162139E+02  0.14854780287E+02 -0.51396044610E+02  0.99059587290E+02  0.00000000000E+00 0. -1.
        -14    1    4    4    0    0  0.30420751770E+02  0.47775256007E+02  0.13322100373E+02  0.58183980468E+02  0.00000000000E+00 0.  1.
</event>
<event>
12    1  0.8406581E-002  0.2423431E+03  0.7818608E-02  0.1118508E+00
         21   -1    0    0  503  502  0.00000000000E+00  0.00000000000E+00  0.16297137814E+03  0.16297137814E+03  0.00000000000E+00 0. -1.
         21   -1    0    0  501  503 -0.00000000000E+00 -0.00000000000E+00 -0.36057565726E+03  0.36057565726E+03  0.00000000000E+00 0.  1.
          6    2    1    2  501    0  0.15341466951E+03  0.70848229657E+02 -0.12071727444E+03  0.26929949133E+03  0.17144685245E+03 0.  0.
         24    2    3    3    0    0  0.14566901468E+03 -0.11885698529E+01 -0.99956595452E+02  0.19378531091E+03  0.79627578227E+02 0.  0.
         -6    2    1    2    0  502 -0.15341466951E+03 -0.70848229657E+02 -0.76887004676E+02  0.25424754408E+03  0.17370857698E+03 0.  0.
        -24    2    5    5    0    0 -0.27116407982E+02 -0.63187524735E+02  0.47105126740E+01  0.10361493770E+03  0.77368621042E+02 0.  0.
          5    1    3    3  501    0  0.77456548331E+01  0.72036799510E+02 -0.20760678990E+02  0.75514180421E+02  0.47000000000E+01 0. -1.
        -13    1    4    4    0    0  0.77975147388E+02 -0.38799574649E+02 -0.39968247301E+02  0.95827925969E+02  0.00000000000E+00 0.  1.
         14    1    4    4    0    0  0.67693867287E+02  0.37611004796E+02 -0.59988348150E+02  0.97957384938E+02  0.00000000000E+00 0. -1.
         -5    1    5    5    0  502 -0.12629826153E+03 -0.76607049228E+01 -0.81597517350E+02  0.15063260637E+03  0.47000000000E+01 0.  1.
         13    1    6    6    0    0  0.26818156696E+02 -0.21754695167E+02 -0.50731034478E+01  0.34902960748E+02  0.00000000000E+00 0. -1.
        -14    1    6    6    0    0 -0.53934564678E+02 -0.41432829567E+02  0.97836161218E+01  0.68711976957E+02  0.00000000000E+00 0.  1.
</event>
<event>
12    1  0.8406581E-002  0.2271507E+03  0.7818608E-02  0.1129125E+00
         21   -1    0    0  501  502  0.00000000000E+00  0.00000000000E+00  0.65423302238E+03  0.65423302238E+03  0.00000000000E+00 0. -1.
         21   -1    0    0  502  503 -0.00000000000E+00 -0.00000000000E+00 -0.41376576985E+03  0.41376576985E+03  0.00000000000E+00 0. -1.
         -6    2    1    2    0  503  0.13305161391E+03 -0.61360026522E+02 -0.36069448313E+03  0.42626042802E+03  0.17357896624E+03 0.  0.
        -24    2    3    3    0    0  0.54649857100E+02  0.38141671130E+02 -0.19491055443E+03  0.21756489783E+03  0.70021186681E+02 0.  0.
          6    2    1    2  501    0 -0.13305161391E+03  0.61360026522E+02  0.60116173566E+03  0.64173836421E+03  0.17019080723E+03 0.  0.
         24    2    5    5    0    0 -0.12571613885E+03  0.50000206345E+02  0.28634275798E+03  0.32659405851E+03  0.79793081194E+02 0.  0.
          5    1    5    5  501    0 -0.73354750599E+01  0.11359820177E+02  0.31481897768E+03  0.31514430570E+03  0.47000000000E+01 0. -1.
        -11    1    6    6    0    0 -0.64138867328E+01  0.82268352660E+01 -0.29923457255E+01  0.10852322077E+02  0.00000000000E+00 0.  1.
         12    1    6    6    0    0 -0.11930225211E+03  0.41773371079E+02  0.28933510370E+03  0.31574173643E+03  0.00000000000E+00 0. -1.
         -5    1    3    3    0  503  0.78401756807E+02 -0.99501697652E+02 -0.16578392870E+03  0.20869553019E+03  0.47000000000E+01 0.  1.
         11    1    4    4    0    0  0.45404355576E+02  0.23044638451E+02 -0.19317969105E+03  0.19977738586E+03  0.00000000000E+00 0. -1.
        -12    1    4    4    0    0  0.92455015242E+01  0.15097032678E+02 -0.17308633755E+01  0.17787511972E+02  0.00000000000E+00 0.  1.
</event>
<event>
12    1  0.8406581E-002  0.1803041E+03  0.7818608E-02  0.1168655E+00
         21   -1    0    0  501  502  0.00000000000E+00  0.00000000000E+00  0.72262325223E+03  0.72262325223E+03  0.00000000000E+00 0.  1.
         21   -1    0    0  502  503 -0.00000000000E+00 -0.00000000000E+00 -0.44379004739E+02  0.44379004739E+02  0.00000000000E+00 0. -1.
         -6    2    1    2    0  503  0.30864089775E+02 -0.21557746972E+02  0.30079447439E+03  0.35069488001E+03  0.17632995930E+03 0.  0.
        -24    2    3    3    0    0  0.22743139970E+01 -0.81610150986E+02  0.17943934218E+03  0.21222891083E+03  0.78595444024E+02 0.  0.
          6    2    1    2  501    0 -0.30864089775E+02  0.21557746972E+02  0.37744977310E+03  0.41630737696E+03  0.17154058530E+03 0.  0.
         24    2    5    5    0    0  0.19542990265E+02  0.48208383325E+02  0.32085396863E+03  0.33583188243E+03  0.84438186735E+02 0.  0.
          5    1    5    5  501    0 -0.50407080040E+02 -0.26650636353E+02  0.56595804467E+02  0.80475494527E+02  0.47000000000E+01 0. -1.
        -13    1    6    6    0    0  0.27959914636E+02 -0.16344195718E+02  0.79273956910E+02  0.85634396152E+02  0.00000000000E+00 0.  1.
         14    1    6    6    0    0 -0.84169243712E+01  0.64552579043E+02  0.24158001172E+03  0.25019748628E+03  0.00000000000E+00 0. -1.
         -5    1    3    3    0  503  0.28589775778E+02  0.60052404014E+02  0.12135513221E+03  0.13846596917E+03  0.47000000000E+01 0.  1.
         13    1    4    4    0    0 -0.23370328821E+02 -0.82557010991E+02  0.15278671586E+03  0.17523017114E+03  0.00000000000E+00 0. -1.
        -14    1    4    4    0    0  0.25644642818E+02  0.94686000526E+00  0.26652626321E+02  0.36998739694E+02  0.00000000000E+00 0.  1.
</event>
<event>
12    1  0.8406581E-002  0.2243227E+03  0.7818608E-02  0.1130701E+00
         21   -1    0    0  501  502  0.00000000000E+00  0.00000000000E+00  0.71900915486E+03  0.71900915486E+03  0.00000000000E+00 0. -1.
         21   -1    0    0  502  503 -0.00000000000E+00 -0.00000000000E+00 -0.70650213823E+02  0.70650213823E+02  0.00000000000E+00 0. -1.
         -6    2    1    2    0  503  0.13107126934E+03 -0.60707506493E+02  0.36249168060E+03  0.42628735888E+03  0.17162638157E+03 0.  0.
        -24    2    3    3    0    0  0.11408670864E+03 -0.10649588846E+03  0.29632971444E+03  0.34391899730E+03  0.78178166333E+02 0.  0.
          6    2    1    2  501    0 -0.13107126934E+03  0.60707506493E+02  0.28586726044E+03  0.36337200980E+03  0.17162181657E+03 0.  0.
         24    2    5    5    0    0 -0.74410202723E+02  0.20120623963E+02  0.26998597599E+03  0.29173349572E+03  0.79210400299E+02 0.  0.
          5    1    5    5  501    0 -0.56661066619E+02  0.40586882530E+02  0.15881284452E+02  0.71638514081E+02  0.47000000000E+01 0. -1.
        -11    1    6    6    0    0  0.14083049135E+02  0.86186096029E+01  0.81950881030E+02  0.83597605264E+02  0.00000000000E+00 0.  1.
         12    1    6    6    0    0 -0.88493251858E+02  0.11502014360E+02  0.18803509496E+03  0.20813589046E+03  0.00000000000E+00 0. -1.
         -5    1    3    3    0  503  0.16984560706E+02  0.45788381969E+02  0.66161966150E+02  0.82368361588E+02  0.47000000000E+01 0.  1.
         11    1    4    4    0    0  0.54475625249E+02 -0.24719858736E+02  0.51267977703E+02  0.78784964936E+02  0.00000000000E+00 0. -1.
        -12    1    4    4    0    0  0.59611083386E+02 -0.81776029726E+02  0.24506173674E+03  0.26513403236E+03  0.00000000000E+00 0.  1.
</event>
<event>
12    1  0.8406581E-002  0.1752706E+03  0.7818608E-02  0.1172806E+00
         21   -1    0    0  503  502  0.00000000000E+00  0.00000000000E+00  0.10885533683E+03  0.10885533683E+03  0.00000000000E+00 0. -1.
         21   -1    0    0  501  503 -0.00000000000E+00 -0.00000000000E+00 -0.33671650387E+03  0.33671650387E+03  0.00000000000E+00 0. -1.
          6    2    1    2  501    0  0.54027403185E+01  0.20218853969E+02 -0.20573574394E+03  0.27027201703E+03  0.17401659460E+03 0.  0.
         24    2    3    3    0    0  0.34516734225E+02  0.52388698922E+02 -0.20259258780E+03  0.22651709736E+03  0.79562918782E+02 0.  0.
         -6    2    1    2    0  502 -0.54027403185E+01 -0.20218853969E+02 -0.22125423102E+02  0.17529982366E+03  0.17263401221E+03 0.  0.
        -24    2    5    5    0    0 -0.48252576479E+02  0.13099316141E+02  0.31283271040E+02  0.99005737862E+02  0.79521002650E+02 0.  0.
          5    1    3    3  501    0 -0.29113993907E+02 -0.32169844953E+02 -0.31431561392E+01  0.43754919678E+02  0.47000000000E+01 0. -1.
        -11    1    4    4    0    0 -0.25726031219E+02  0.20940090746E+02 -0.73165929362E+02  0.80334110452E+02  0.00000000000E+00 0.  1.
         12    1    4    4    0    0  0.60242765445E+02  0.31448608175E+02 -0.12942665844E+03  0.14618298690E+03  0.00000000000E+00 0. -1.
         -5    1    5    5    0  502  0.42849836161E+02 -0.33318170110E+02 -0.53408694142E+02  0.76294085802E+02  0.47000000000E+01 0.  1.
         13    1    6    6    0    0 -0.66706278523E+02  0.58241271733E+01  0.65190126555E+01  0.67276634708E+02  0.00000000000E+00 0. -1.
        -14    1    6    6    0    0  0.18453702043E+02  0.72751889681E+01  0.24764258384E+02  0.31729103154E+02  0.00000000000E+00 0.  1.
</event>
<event>
12    1  0.8406581E-002  0.1882070E+03  0.7818608E-02  0.1161009E+00
         21   -1    0    0  501  502  0.00000000000E+00  0.00000000000E+00  0.17980064259E+03  0.17980064259E+03  0.00000000000E+00 0.  1.
         21   -1    0    0  502  503 -0.00000000000E+00 -0.00000000000E+00 -0.47536945829E+03  0.47536945829E+03  0.00000000000E+00 0.  1.
         -6    2    1    2    0  503  0.68216265478E+02 -0.22721689240E+02 -0.40095893942E+03  0.44293335451E+03  0.17393145602E+03 0.  0.
        -24    2    3    3    0    0  0.25660173337E+02 -0.46785649415E+01 -0.71029780059E+02  0.10974884779E+03  0.79493688249E+02 0.  0.
          6    2    1    2  501    0 -0.68216265478E+02  0.22721689240E+02  0.10539012372E+03  0.21223674637E+03  0.16961021283E+03 0.  0.
         24    2    5    5    0    0 -0.93557573435E+02 -0.15352485694E+02  0.10994161072E+03  0.16603468235E+03  0.80570711870E+02 0.  0.
          5    1    5    5  501    0  0.25341307956E+02  0.38074174934E+02 -0.45514870014E+01  0.46202064021E+02  0.47000000000E+01 0. -1.
        -13    1    6    6    0    0 -0.91663068827E+02  0.83473032706E+00  0.51037085843E+02  0.10491710582E+03  0.00000000000E+00 0.  1.
         14    1    6    6    0    0 -0.18945046074E+01 -0.16187216021E+02  0.58904524880E+02  0.61117576535E+02  0.00000000000E+00 0. -1.
         -5    1    3    3    0  503  0.42556092141E+02 -0.18043124299E+02 -0.32992915936E+03  0.33318450671E+03  0.47000000000E+01 0.  1.
         11    1    4    4    0    0  0.38218836586E+02 -0.27311015683E+02 -0.17208233520E+02  0.50026936229E+02  0.00000000000E+00 0. -1.
        -12    1    4    4    0    0 -0.12558663248E+02  0.22632450742E+02 -0.53821546539E+02  0.59721911565E+02  0.00000000000E+00 0.  1.
</event>
<event>
12    1  0.8406581E-002  0.2077221E+03  0.7818608E-02  0.1145498E+00
         21   -1    0    0  501  502  0.00000000000E+00  0.00000000000E+00  0.44678603075E+03  0.44678603075E+03  0.00000000000E+00 0.  1.
         21   -1    0    0  502  503 -0.00000000000E+00 -0.00000000000E+00 -0.12362637046E+03  0.12362637046E+03  0.00000000000E+00 0.  1.
         -6    2    1    2    0  503 -0.76222803032E+02  0.29308979216E+02  0.20097253874E+02  0.20869208967E+03  0.19099622172E+03 0.  0.
        -24    2    3    3    0    0 -0.56175900062E+02 -0.49955892355E+02  0.34773338332E+02  0.12549187549E+03  0.94274613904E+02 0.  0.
          6    2    1    2  501    0  0.76222803032E+02 -0.29308979216E+02  0.30306240642E+03  0.36172031155E+03  0.17979385317E+03 0.  0.
         24    2    5    5    0    0  0.69356936225E+01 -0.72989726935E+02  0.14799811830E+03  0.18629016960E+03  0.86168324733E+02 0.  0.
          5    1    5    5  501    0  0.69287109409E+02  0.43680747719E+02  0.15506428812E+03  0.17543014194E+03  0.47000000000E+01 0. -1.
        -11    1    6    6    0    0 -0.22972762847E+02 -0.17731116524E+02  0.10794217842E+03  0.11177501603E+03  0.00000000000E+00 0.  1.
         12    1    6    6    0    0  0.29908456470E+02 -0.55258610412E+02  0.40055939879E+02  0.74515153577E+02  0.00000000000E+00 0. -1.
         -5    1    3    3    0  503 -0.20046902970E+02  0.79264871571E+02 -0.14676084458E+02  0.83200214176E+02  0.47000000000E+01 0.  1.
         13    1    4    4    0    0  0.11083308028E+02 -0.38543873183E+01  0.42020458148E+02  0.43628143685E+02  0.00000000000E+00 0. -1.
        -14    1    4    4    0    0 -0.67259208089E+02 -0.46101505037E+02 -0.72471198160E+01  0.81863731805E+02  0.00000000000E+00 0.  1.
</event>
<event>
12    1  0.8406581E-002  0.1942839E+03  0.7818608E-02  0.1154678E+00
         21   -1    0    0  503  502  0.00000000000E+00  0.00000000000E+00  0.41094998567E+03  0.41094998567E+03  0.00000000000E+00 0.  1.
         21   -1    0    0  501  503 -0.00000000000E+00 -0.00000000000E+00 -0.93420290951E+02  0.93420290951E+02  0.00000000000E+00 0. -1.
          6    2    1    2  501    0  0.85972803966E+02 -0.24936500534E+02  0.12557489402E+03  0.23133370714E+03  0.17243282162E+03 0.  0.
         24    2    3    3    0    0  0.11484297558E+03 -0.28487927116E+02  0.54060202224E+02  0.15398682238E+03  0.82395175660E+02 0.  0.
         -6    2    1    2    0  502 -0.85972803966E+02  0.24936500534E+02  0.19195480071E+03  0.27303656948E+03  0.17230545749E+03 0.  0.
        -24    2    5    5    0    0 -0.96445581791E+02 -0.40316421242E+01  0.64229198094E+02  0.14156508236E+03  0.81223631228E+02 0.  0.
          5    1    3    3  501    0 -0.28870171611E+02  0.35514265819E+01  0.71514691794E+02  0.77346884760E+02  0.47000000000E+01 0. -1.
        -11    1    4    4    0    0 -0.10534144066E+02 -0.14613543431E+02  0.57524761772E+01  0.18910706623E+02  0.00000000000E+00 0.  1.
         12    1    4    4    0    0  0.12537711964E+03 -0.13874383685E+02  0.48307726047E+02  0.13507611576E+03  0.00000000000E+00 0. -1.
         -5    1    5    5    0  502  0.10472777825E+02  0.28968142659E+02  0.12772560261E+03  0.13147148713E+03  0.47000000000E+01 0.  1.
         11    1    6    6    0    0  0.11878172708E+02  0.11116840838E+02  0.42217189000E+01  0.16807678232E+02  0.00000000000E+00 0. -1.
        -12    1    6    6    0    0 -0.10832375450E+03 -0.15148482962E+02  0.60007479194E+02  0.12475740412E+03  0.00000000000E+00 0.  1.
</event>
<event>
12    1  0.8406581E-002  0.2008129E+03  0.7818608E-02  0.1149584E+00
         21   -1    0    0  503  502  0.00000000000E+00  0.00000000000E+00  0.56409314801E+03  0.56409314801E+03  0.00000000000E+00 0. -1.
         21   -1    0    0  501  503 -0.00000000000E+00 -0.00000000000E+00 -0.72728421311E+02  0.72728421311E+02  0.00000000000E+00 0.  1.
          6    2    1    2  501    0  0.70566602584E+02 -0.69432235234E+02  0.19270131296E+03  0.27831567748E+03  0.17471502404E+03 0.  0.
         24    2    3    3    0    0  0.64076975890E+02  0.12536862232E+02  0.52265669560E+02  0.11551116854E+03  0.79674952707E+02 0.  0.
         -6    2    1    2    0  502 -0.70566602584E+02  0.69432235234E+02  0.29866341375E+03  0.35850589185E+03  0.17183177555E+03 0.  0.
        -24    2    5    5    0    0 -0.11198668560E+03  0.66713790265E+02  0.20372804106E+03  0.25478594098E+03  0.80118745900E+02 0.  0.
          5    1    3    3  501    0  0.64896266936E+01 -0.81969097466E+02  0.14043564340E+03  0.16280450894E+03  0.47000000000E+01 0. -1.
        -11    1    4    4    0    0  0.54974501417E+02 -0.27148571539E+02  0.39102409656E+02  0.72720280415E+02  0.00000000000E+00 0.  1.
         12    1    4    4    0    0  0.91024744737E+01  0.39685433772E+02  0.13163259904E+02  0.42790888124E+02  0.00000000000E+00 0. -1.
         -5    1    5    5    0  502  0.41420083019E+02  0.27184449688E+01  0.94935372684E+02  0.10371995086E+03  0.47000000000E+01 0.  1.
         13    1    6    6    0    0 -0.12120881860E+02  0.19142457970E+02  0.10205812526E+03  0.10454286396E+03  0.00000000000E+00 0. -1.
        -14    1    6    6    0    0 -0.99865803743E+02  0.47571332295E+02  0.10166991580E+03  0.15024307702E+03  0.00000000000E+00 0.  1.
</event>
<event>
12    1  0.8406581E-002  0.3534818E+03  0.7818608E-02  0.1061261E+00
         21   -1    0    0  503  502  0.00000000000E+00  0.00000000000E+00  0.45614016268E+03  0.45614016268E+03  0.00000000000E+00 0. -1.
         21   -1    0    0  501  503 -0.00000000000E+00 -0.00000000000E+00 -0.38840703422E+03  0.38840703422E+03  0.00000000000E+00 0. -1.
          6    2    1    2  501    0  0.15640832384E+03 -0.26591833132E+03 -0.19591267447E+03  0.40357270803E+03  0.17121049019E+03 0.  0.
         24    2    3    3    0    0  0.10554786508E+03 -0.27102476530E+03 -0.16096492003E+03  0.34147361405E+03  0.78100885921E+02 0.  0.
         -6    2    1    2    0  502 -0.15640832384E+03  0.26591833132E+03  0.26364580293E+03  0.44097448887E+03  0.17254931972E+03 0.  0.
        -24    2    5    5    0    0 -0.81419365179E+02  0.96717200455E+02  0.18800855692E+03  0.24098586522E+03  0.82119667989E+02 0.  0.
          5    1    3    3  501    0  0.50860458758E+02  0.51064339829E+01 -0.34947754432E+02  0.62099093978E+02  0.47000000000E+01 0. -1.
        -11    1    4    4    0    0 -0.12768911423E+02 -0.31790709905E+02 -0.18815988313E+02  0.39086260392E+02  0.00000000000E+00 0.  1.
         12    1    4    4    0    0  0.11831677650E+03 -0.23923405540E+03 -0.14214893172E+03  0.30238735366E+03  0.00000000000E+00 0. -1.
         -5    1    5    5    0  502 -0.74988958658E+02  0.16920113087E+03  0.75637246013E+02  0.19998862365E+03  0.47000000000E+01 0.  1.
         13    1    6    6    0    0 -0.77629686317E+02  0.10875005790E+03  0.18466563615E+03  0.22793494788E+03  0.00000000000E+00 0. -1.
        -14    1    6    6    0    0 -0.37896788616E+01 -0.12032857441E+02  0.33429207633E+01  0.13050917335E+02  0.00000000000E+00 0.  1.
</event>
<event>
12    1  0.8406581E-002  0.2260397E+03  0.7818608E-02  0.1129470E+00
         21   -1    0    0  503  502  0.00000000000E+00  0.00000000000E+00  0.32358437609E+02  0.32358437609E+02  0.00000000000E+00 0.  1.
         21   -1    0    0  501  503 -0.00000000000E+00 -0.00000000000E+00 -0.27518807406E+04  0.27518807406E+04  0.00000000000E+00 0.  1.
          6    2    1    2  501    0  0.12566309977E+03  0.75707006121E+02 -0.22688846573E+04  0.22801165580E+04  0.17196268383E+03 0.  0.
         24    2    3    3    0    0  0.68046001014E+02 -0.24019116191E+02 -0.12747225064E+04  0.12792941453E+04  0.80429258780E+02 0.  0.
         -6    2    1    2    0  502 -0.12566309977E+03 -0.75707006121E+02 -0.45063764572E+03  0.50412262021E+03  0.17187950154E+03 0.  0.
        -24    2    5    5    0    0 -0.15459871279E+03 -0.68911182887E+02 -0.42676970313E+03  0.46571400662E+03  0.78151412872E+02 0.  0.
          5    1    3    3  501    0  0.57617098753E+02  0.99726122312E+02 -0.99416215086E+03  0.10008224127E+04  0.47000000000E+01 0. -1.
        -11    1    4    4    0    0  0.31843594509E+02  0.88188960863E-01 -0.10453116211E+04  0.10457965421E+04  0.00000000000E+00 0.  1.
         12    1    4    4    0    0  0.36202406505E+02 -0.24107305152E+02 -0.22941088538E+03  0.23349760326E+03  0.00000000000E+00 0. -1.
         -5    1    5    5    0  502  0.28935613019E+02 -0.67958232341E+01 -0.23867942586E+02  0.38408613584E+02  0.47000000000E+01 0.  1.
         13    1    6    6    0    0 -0.61114797201E+02 -0.13228629350E+02 -0.25360735384E+03  0.26120242149E+03  0.00000000000E+00 0. -1.
        -14    1    6    6    0    0 -0.93483915585E+02 -0.55682553538E+02 -0.17316234929E+03  0.20451158513E+03  0.00000000000E+00 0.  1.
</event>
<event>
12    1  0.8406581E-002  0.1910518E+03  0.7818608E-02  0.1157779E+00
         21   -1    0    0  503  502  0.00000000000E+00  0.00000000000E+00  0.24408940035E+03  0.24408940035E+03  0.00000000000E+00 0. -1.
         21   -1    0    0  501  503 -0.00000000000E+00 -0.00000000000E+00 -0.23586710726E+03  0.23586710726E+03  0.00000000000E+00 0. -1.
          6    2    1    2  501    0  0.74769535088E+02  0.34201971209E+02 -0.14183152170E+03  0.23794321584E+03  0.17245444385E+03 0.  0.
         24    2    3    3    0    0  0.77033180985E+02 -0.34657101440E+02 -0.11584972798E+03  0.16416083594E+03  0.79952454188E+02 0.  0.
         -6    2    1    2    0  502 -0.74769535088E+02 -0.34201971209E+02  0.15005381479E+03  0.24201329176E+03  0.17115498195E+03 0.  0.
        -24    2    5    5    0    0 -0.24224229448E+02 -0.10288161198E+02  0.25996998236E+01  0.84242875486E+02  0.79984023891E+02 0.  0.
          5    1    3    3  501    0 -0.22636458974E+01  0.68859072649E+02 -0.25981793719E+02  0.73782379900E+02  0.47000000000E+01 0. -1.
        -13    1    4    4    0    0  0.27109660883E+02 -0.39054081041E+02 -0.12278127036E+02  0.49100991463E+02  0.00000000000E+00 0.  1.
         14    1    4    4    0    0  0.49923520102E+02  0.43969796006E+01 -0.10357160094E+03  0.11505984448E+03  0.00000000000E+00 0. -1.
         -5    1    5    5    0  502 -0.50545305639E+02 -0.23913810011E+02  0.14745411497E+03  0.15777041628E+03  0.47000000000E+01 0.  1.
         13    1    6    6    0    0  0.31721605682E+00 -0.12919604911E+02  0.38536803628E+02  0.40646058247E+02  0.00000000000E+00 0. -1.
        -14    1    6    6    0    0 -0.24541445505E+02  0.26314437135E+01 -0.35937103805E+02  0.43596817239E+02  0.00000000000E+00 0.  1.
</event>
<event>
12    1  0.8406581E-002  0.1958881E+03  0.7818608E-02  0.1154256E+00
         21   -1    0    0  501  502  0.00000000000E+00  0.00000000000E+00  0.96679233680E+02  0.96679233680E+02  0.00000000000E+00 0. -1.
         21   -1    0    0  502  503 -0.00000000000E+00 -0.00000000000E+00 -0.83768890317E+03  0.83768890317E+03  0.00000000000E+00 0.  1.
         -6    2    1    2    0  503  0.45372366814E+02 -0.79504496483E+02 -0.30131126661E+02  0.19819190114E+03  0.17318351034E+03 0.  0.
        -24    2    3    3    0    0 -0.37923056663E+02 -0.43107980401E+02  0.15174541041E+01  0.10182511942E+03  0.84080890079E+02 0.  0.
          6    2    1    2  501    0 -0.45372366814E+02  0.79504496483E+02 -0.71087854283E+03  0.73617623571E+03  0.16801050782E+03 0.  0.
         24    2    5    5    0    0 -0.25566255261E+02  0.12179685982E+03 -0.55435835632E+03  0.57277003988E+03  0.72554964625E+02 0.  0.
          5    1    5    5  501    0 -0.19806111553E+02 -0.42292363333E+02 -0.15652018650E+03  0.16340619582E+03  0.47000000000E+01 0. -1.
        -11    1    6    6    0    0  0.14170266584E+02  0.94140378106E+02 -0.38813417113E+03  0.39963901466E+03  0.00000000000E+00 0.  1.
         12    1    6    6    0    0 -0.39736521845E+02  0.27656481711E+02 -0.16622418520E+03  0.17313102522E+03  0.00000000000E+00 0. -1.
         -5    1    3    3    0  503  0.83295423477E+02 -0.36396516082E+02 -0.31648580765E+02  0.96366781723E+02  0.47000000000E+01 0.  1.
         13    1    4    4    0    0  0.91982941268E+01  0.20506896035E+02 -0.21226153307E+01  0.22575360366E+02  0.00000000000E+00 0. -1.
        -14    1    4    4    0    0 -0.47121350790E+02 -0.63614876435E+02  0.36400694347E+01  0.79249759051E+02  0.00000000000E+00 0.  1.
</event>
<event>
12    1  0.8406581E-002  0.1789001E+03  0.7818608E-02  0.1169181E+00
         21   -1    0    0  501  502  0.00000000000E+00  0.00000000000E+00  0.12611605708E+03  0.12611605708E+03  0.00000000000E+00 0.  1.
         21   -1    0    0  502  503 -0.00000000000E+00 -0.00000000000E+00 -0.37935873998E+03  0.37935873998E+03  0.00000000000E+00 0.  1.
         -6    2    1    2    0  503  0.31338233068E+02  0.32843848715E+02 -0.27336508267E+03  0.32670128856E+03  0.17304467709E+03 0.  0.
        -24    2    3    3    0    0 -0.39359478905E+02  0.47989647666E+02 -0.12299147976E+03  0.15978252941E+03  0.80940581584E+02 0.  0.
          6    2    1    2  501    0 -0.31338233068E+02 -0.32843848715E+02  0.20122399771E+02  0.17877350851E+03  0.17173890975E+03 0.  0.
         24    2    5    5    0    0 -0.11117984899E+02  0.16872315169E+02 -0.49306212222E+02  0.90893035419E+02  0.73635295318E+02 0.  0.
          5    1    5    5  501    0 -0.20220248169E+02 -0.49716163884E+02  0.69428611993E+02  0.87880473090E+02  0.47000000000E+01 0. -1.
        -13    1    6    6    0    0 -0.80538373141E+01 -0.18934785307E+02  0.89539708803E+01  0.22440231386E+02  0.00000000000E+00 0.  1.
         14    1    6    6    0    0 -0.30641475849E+01  0.35807100476E+02 -0.58260183102E+02  0.68452804033E+02  0.00000000000E+00 0. -1.
         -5    1    3    3    0  503  0.70697711973E+02 -0.15145798951E+02 -0.15037360291E+03  0.16691875915E+03  0.47000000000E+01 0.  1.
         13    1    4    4    0    0 -0.11654713725E+02 -0.15552088801E+02 -0.69664869936E+02  0.72324919090E+02  0.00000000000E+00 0. -1.
        -14    1    4    4    0    0 -0.27704765180E+02  0.63541736467E+02 -0.53326609824E+02  0.87457610316E+02  0.00000000000E+00 0.  1.
</event>
<event>
12    1  0.8406581E-002  0.2241379E+03  0.7818608E-02  0.1131045E+00
         21   -1    0    0  501  502  0.00000000000E+00  0.00000000000E+00  0.37147901395E+03  0.37147901395E+03  0.00000000000E+00 0.  1.
         21   -1    0    0  502  503 -0.00000000000E+00 -0.00000000000E+00 -0.15492219730E+03  0.15492219730E+03  0.00000000000E+00 0. -1.
         -6    2    1    2    0  503 -0.14083545226E+03  0.13563271989E+02  0.13063984221E+02  0.22451830932E+03  0.17383675266E+03 0.  0.
        -24    2    3    3    0    0  0.18791822937E+00 -0.12916586100E+02 -0.76591226562E+01  0.79465522146E+02  0.78033541124E+02 0.  0.
          6    2    1    2  501    0  0.14083545226E+03 -0.13563271989E+02  0.20349283243E+03  0.30188290194E+03  0.17235244899E+03 0.  0.
         24    2    5    5    0    0  0.12803251634E+03  0.27750704831E+02  0.21526812639E+03  0.25681065553E+03  0.49486560764E+02 0.  0.
          5    1    5    5  501    0  0.12802935916E+02 -0.41313976820E+02 -0.11775293957E+02  0.45072246411E+02  0.47000000000E+01 0. -1.
        -13    1    6    6    0    0  0.44673280166E+02  0.11087676864E+02  0.12310889030E+03  0.13143225407E+03  0.00000000000E+00 0.  1.
         14    1    6    6    0    0  0.83359236173E+02  0.16663027968E+02  0.92159236090E+02  0.12537840146E+03  0.00000000000E+00 0. -1.
         -5    1    3    3    0  503 -0.14102337048E+03  0.26479858089E+02  0.20723106877E+02  0.14505278717E+03  0.47000000000E+01 0.  1.
         11    1    4    4    0    0 -0.27834445336E+02  0.70138908389E+01 -0.27511064251E+02  0.39759397230E+02  0.00000000000E+00 0. -1.
        -12    1    4    4    0    0  0.28022363565E+02 -0.19930476939E+02  0.19851941595E+02  0.39706124916E+02  0.00000000000E+00 0.  1.
</event>
<event>
12    1  0.8406581E-002  0.2390615E+03  0.7818608E-02  0.1120544E+00
         21   -1    0    0  503  502  0.00000000000E+00  0.00000000000E+00  0.28810980180E+03  0.28810980180E+03  0.00000000000E+00 0. -1.
         21   -1    0    0  501  503 -0.00000000000E+00 -0.00000000000E+00 -0.19912576853E+03  0.19912576853E+03  0.00000000000E+00 0. -1.
          6    2    1    2  501    0 -0.10882014636E+03 -0.12414636328E+03  0.24166654564E+02  0.23954285758E+03  0.17187963712E+03 0.  0.
         24    2    3    3    0    0  0.13321170249E+01 -0.94982741085E+02 -0.48259435261E+01  0.12187086120E+03  0.76195284886E+02 0.  0.
         -6    2    1    2    0  502  0.10882014636E+03  0.12414636328E+03  0.64817378699E+02  0.24769271275E+03  0.17290530241E+03 0.  0.
        -24    2    5    5    0    0  0.14162621442E+03  0.91220774287E+02  0.30294793503E+02  0.18960457798E+03  0.81565355418E+02 0.  0.
          5    1    3    3  501    0 -0.11015226338E+03 -0.29163622191E+02  0.28992598090E+02  0.11767199638E+03  0.47000000000E+01 0. -1.
        -13    1    4    4    0    0  0.20263215410E+02 -0.49859110827E+02 -0.35170308560E+02  0.64292141319E+02  0.00000000000E+00 0.  1.
         14    1    4    4    0    0 -0.18931098385E+02 -0.45123630258E+02  0.30344365034E+02  0.57578719880E+02  0.00000000000E+00 0. -1.
         -5    1    5    5    0  502 -0.32806068068E+02  0.32925588989E+02  0.34522585196E+02  0.58088134769E+02  0.47000000000E+01 0.  1.
         11    1    6    6    0    0  0.19157585498E+02  0.55129308321E+02 -0.88488563990E-01  0.58363186585E+02  0.00000000000E+00 0. -1.
        -12    1    6    6    0    0  0.12246862893E+03  0.36091465966E+02  0.30383282067E+02  0.13124139140E+03  0.00000000000E+00 0.  1.
</event>
<event>
12    1  0.8406581E-002  0.2001268E+03  0.7818608E-02  0.1150017E+00
         21   -1    0    0  503  502  0.00000000000E+00  0.00000000000E+00  0.19230315574E+03  0.19230315574E+03  0.00000000000E+00 0.  1.
         21   -1    0    0  501  503 -0.00000000000E+00 -0.00000000000E+00 -0.23833197007E+03  0.23833197007E+03  0.00000000000E+00 0. -1.
          6    2    1    2  501    0  0.82173336623E+02 -0.61369603567E+02 -0.10175695223E+03  0.22289403076E+03  0.16973092271E+03 0.  0.
         24    2    3    3    0    0  0.10308448441E+03 -0.87614411538E+02 -0.10791238933E+03  0.18845502013E+03  0.74615781201E+02 0.  0.
         -6    2    1    2    0  502 -0.82173336623E+02  0.61369603567E+02  0.55728137905E+02  0.20774109506E+03  0.17184892123E+03 0.  0.
        -24    2    5    5    0    0 -0.22862100490E+02 -0.33559525837E+02  0.21609725564E+02  0.90627823387E+02  0.78086520729E+02 0.  0.
          5    1    3    3  501    0 -0.20911147791E+02  0.26244807970E+02  0.61554370955E+01  0.34439010630E+02  0.47000000000E+01 0. -1.
        -11    1    4    4    0    0  0.26271375645E+01  0.11435986983E+02 -0.16793373325E+01  0.11853430893E+02  0.00000000000E+00 0.  1.
         12    1    4    4    0    0  0.10045734685E+03 -0.99050398521E+02 -0.10623305200E+03  0.17660158923E+03  0.00000000000E+00 0. -1.
         -5    1    5    5    0  502 -0.59311236133E+02  0.94929129404E+02  0.34118412342E+02  0.11711327167E+03  0.47000000000E+01 0.  1.
         11    1    6    6    0    0 -0.62926424723E+01 -0.27327778626E+02 -0.26979657464E+02  0.38914094501E+02  0.00000000000E+00 0. -1.
        -12    1    6    6    0    0 -0.16569458018E+02 -0.62317472108E+01  0.48589383028E+02  0.51713728886E+02  0.00000000000E+00 0.  1.
</event>
<event>
12    1  0.8406581E-002  0.1754114E+03  0.7818608E-02  0.1172460E+00
         21   -1    0    0  501  502  0.00000000000E+00  0.00000000000E+00  0.32826153101E+03  0.32826153101E+03  0.00000000000E+00 0. -1.
         21   -1    0    0  502  503 -0.00000000000E+00 -0.00000000000E+00 -0.15861160870E+03  0.15861160870E+03  0.00000000000E+00 0. -1.
         -6    2    1    2    0  503 -0.15775866831E+02 -0.24984203216E+02 -0.71305169795E+02  0.18883203394E+03  0.17233694153E+03 0.  0.
        -24    2    3    3    0    0  0.16822492514E+02 -0.59729563000E+02  0.11347593944E+01  0.10200158767E+03  0.80947015122E+02 0.  0.
          6    2    1    2  501    0  0.15775866831E+02  0.24984203216E+02  0.24095509211E+03  0.29804110576E+03  0.17290475971E+03 0.  0.
         24    2    5    5    0    0 -0.92642646259E+01  0.79538935761E+02  0.17811650819E+03  0.21101234813E+03  0.79927790374E+02 0.  0.
          5    1    5    5  501    0  0.25040131456E+02 -0.54554732545E+02  0.62838583920E+02  0.87028757635E+02  0.47000000000E+01 0. -1.
        -13    1    6    6    0    0  0.31410591629E+02  0.10745116899E+02  0.50321866880E+02  0.60285761917E+02  0.00000000000E+00 0.  1.
         14    1    6    6    0    0 -0.40674856255E+02  0.68793818862E+02  0.12779464131E+03  0.15072658621E+03  0.00000000000E+00 0. -1.
         -5    1    3    3    0  503 -0.32598359345E+02  0.34745359784E+02 -0.72439929189E+02  0.86830446270E+02  0.47000000000E+01 0.  1.
         13    1    4    4    0    0  0.42079612168E+02 -0.63260612275E+02  0.52942587570E+01  0.76161853978E+02  0.00000000000E+00 0. -1.
        -14    1    4    4    0    0 -0.25257119653E+02  0.35310492752E+01 -0.41594993625E+01  0.25839733689E+02  0.00000000000E+00 0.  1.
</event>
<event>
12    1  0.8406581E-002  0.1889017E+03  0.7818608E-02  0.1159677E+00
         21   -1    0    0  501  502  0.00000000000E+00  0.00000000000E+00  0.39013081784E+02  0.39013081784E+02  0.00000000000E+00 0.  1.
         21   -1    0    0  502  503 -0.00000000000E+00 -0.00000000000E+00 -0.92929769179E+03  0.92929769179E+03  0.00000000000E+00 0.  1.
         -6    2    1    2    0  503 -0.88766504563E+01  0.78571376756E+02 -0.51608652579E+03  0.54957178514E+03  0.17155637194E+03 0.  0.
        -24    2    3    3    0    0  0.38821882425E+02  0.47198223860E+02 -0.15762288177E+03  0.18655980346E+03  0.78897252918E+02 0.  0.
          6    2    1    2  501    0  0.88766504563E+01 -0.78571376756E+02 -0.37419808422E+03  0.41873898844E+03  0.17048717851E+03 0.  0.
         24    2    5    5    0    0  0.66455266184E+02 -0.58896460467E+02 -0.18247385014E+03  0.21753592869E+03  0.78358655073E+02 0.  0.
          5    1    5    5  501    0 -0.57578615728E+02 -0.19674916289E+02 -0.19172423408E+03  0.20120305975E+03  0.47000000000E+01 0. -1.
        -11    1    6    6    0    0  0.46652634226E+02 -0.72425045627E+02 -0.10173856380E+03  0.13331388104E+03  0.00000000000E+00 0.  1.
         12    1    6    6    0    0  0.19802631958E+02  0.13528585160E+02 -0.80735286340E+02  0.84222047643E+02  0.00000000000E+00 0. -1.
         -5    1    3    3    0  503 -0.47698532881E+02  0.31373152896E+02 -0.35846364402E+03  0.36301198168E+03  0.47000000000E+01 0.  1.
         13    1    4    4    0    0 -0.15295847904E+02  0.42846039257E+02 -0.70496134909E+02  0.83901436700E+02  0.00000000000E+00 0. -1.
        -14    1    4    4    0    0  0.54117730329E+02  0.43521846029E+01 -0.87126746862E+02  0.10265836676E+03  0.00000000000E+00 0.  1.
</event>
<event>
12    1  0.8406581E-002  0.1898560E+03  0.7818608E-02  0.1159051E+00
         21   -1    0    0  503  502  0.00000000000E+00  0.00000000000E+00  0.17394660310E+03  0.17394660310E+03  0.00000000000E+00 0. -1.
         21   -1    0    0  501  503 -0.00000000000E+00 -0.00000000000E+00 -0.21543380752E+03  0.21543380752E+03  0.00000000000E+00 0.  1.
          6    2    1    2  501    0 -0.66981806479E+02 -0.30339330954E+02 -0.63657930550E+02  0.20024395262E+03  0.17503791314E+03 0.  0.
         24    2    3    3    0    0 -0.32555932116E+02 -0.81793288115E+02 -0.70835932334E+02  0.13774383867E+03  0.78775663034E+02 0.  0.
         -6    2    1    2    0  502  0.66981806479E+02  0.30339330954E+02  0.22170726129E+02  0.18913645800E+03  0.17284102882E+03 0.  0.
        -24    2    5    5    0    0  0.10826519873E+03 -0.15866099274E+00  0.27230162045E+02  0.13734713593E+03  0.80008596990E+02 0.  0.
          5    1    3    3  501    0 -0.34425874363E+02  0.51453957160E+02  0.71780017845E+01  0.62500113942E+02  0.47000000000E+01 0. -1.
        -11    1    4    4    0    0 -0.12161972333E+02  0.14866943708E+02 -0.91275862734E+01  0.21266227155E+02  0.00000000000E+00 0.  1.
         12    1    4    4    0    0 -0.20393959783E+02 -0.96660231822E+02 -0.61708346061E+02  0.11647761152E+03  0.00000000000E+00 0. -1.
         -5    1    5    5    0  502 -0.41283392253E+02  0.30497991947E+02 -0.50594359152E+01  0.51789322070E+02  0.47000000000E+01 0.  1.
         11    1    6    6    0    0  0.58460669514E+02  0.37688961445E+02  0.27493730901E+02  0.74793134268E+02  0.00000000000E+00 0. -1.
        -12    1    6    6    0    0  0.49804529218E+02 -0.37847622438E+02 -0.26356885659E+00  0.62554001657E+02  0.00000000000E+00 0.  1.
</event>
<event>
12    1  0.8406581E-002  0.3115972E+03  0.7818608E-02  0.1079657E+00
         21   -1    0    0  503  502  0.00000000000E+00  0.00000000000E+00  0.48314952764E+03  0.48314952764E+03  0.00000000000E+00 0.  1.
         21   -1    0    0  501  503 -0.00000000000E+00 -0.00000000000E+00 -0.28655520919E+03  0.28655520919E+03  0.00000000000E+00 0. -1.
          6    2    1    2  501    0 -0.24523519389E+03 -0.86627057507E+02 -0.11260215549E+03  0.33073402882E+03  0.17047347296E+03 0.  0.
         24    2    3    3    0    0 -0.39060506778E+02 -0.50911405654E+01 -0.35525778414E+02  0.95959743048E+02  0.79965920565E+02 0.  0.
         -6    2    1    2    0  502  0.24523519389E+03  0.86627057507E+02  0.30919647394E+03  0.43897070801E+03  0.17160499868E+03 0.  0.
        -24    2    5    5    0    0  0.82727884940E+02 -0.13366758472E+02  0.75252270335E+02  0.13704460927E+03  0.78075268558E+02 0.  0.
          5    1    3    3  501    0 -0.20617468711E+03 -0.81535916942E+02 -0.77076377074E+02  0.23477428577E+03  0.47000000000E+01 0. -1.
        -13    1    4    4    0    0 -0.27659542969E+02 -0.12663481072E+02  0.21540750659E+02  0.37274897841E+02  0.00000000000E+00 0.  1.
         14    1    4    4    0    0 -0.11400963809E+02  0.75723405065E+01 -0.57066529073E+02  0.58684845207E+02  0.00000000000E+00 0. -1.
         -5    1    5    5    0  502  0.16250730895E+03  0.99993815979E+02  0.23394420361E+03  0.30192609874E+03  0.47000000000E+01 0.  1.
         13    1    6    6    0    0  0.56239562971E+02  0.65213517178E+01  0.20003216979E+01  0.56651723347E+02  0.00000000000E+00 0. -1.
        -14    1    6    6    0    0  0.26488321969E+02 -0.19888110190E+02  0.73251948637E+02  0.80392885921E+02  0.00000000000E+00 0.  1.
</event>
<event>
12    1  0.8406581E-002  0.1990183E+03  0.7818608E-02  0.1150773E+00
         21   -1    0    0  501  502  0.00000000000E+00  0.00000000000E+00  0.19728678587E+04  0.19728678587E+04  0.00000000000E+00 0.  1.
         21   -1    0    0  502  503 -0.00000000000E+00 -0.00000000000E+00 -0.35750885501E+02  0.35750885501E+02  0.00000000000E+00 0.  1.
         -6    2    1    2    0  503  0.48929418006E+02 -0.84632437738E+02  0.30021947400E+03  0.35966704636E+03  0.17225537497E+03 0.  0.
        -24    2    3    3    0    0  0.56528504435E+02 -0.95072404711E+02  0.31289329485E+03  0.34097333727E+03  0.78271123734E+02 0.  0.
          6    2    1    2  501    0 -0.48929418006E+02  0.84632437738E+02  0.16368974992E+04  0.16489516979E+04  0.17335380430E+03 0.  0.
         24    2    5    5    0    0 -0.44674170783E+02  0.10486444029E+03  0.79523914349E+03  0.80702633369E+03  0.76771580465E+02 0.  0.
          5    1    5    5  501    0 -0.42552472231E+01 -0.20232002555E+02  0.84165835574E+03  0.84192536417E+03  0.47000000000E+01 0. -1.
        -13    1    6    6    0    0 -0.11010070486E+02 -0.31246896631E+01  0.24570196079E+03  0.24596836966E+03  0.00000000000E+00 0.  1.
         14    1    6    6    0    0 -0.33664100296E+02  0.10798912996E+03  0.54953718270E+03  0.56105796404E+03  0.00000000000E+00 0. -1.
         -5    1    3    3    0  503 -0.75990864290E+01  0.10439966973E+02 -0.12673820849E+02  0.18693709099E+02  0.47000000000E+01 0.  1.
         11    1    4    4    0    0  0.74291383732E+02 -0.58128990629E+02  0.20989112175E+03  0.23011404181E+03  0.00000000000E+00 0. -1.
        -12    1    4    4    0    0 -0.17762879297E+02 -0.36943414082E+02  0.10300217311E+03  0.11085929546E+03  0.00000000000E+00 0.  1.
</event>
<event>
12    1  0.8406581E-002  0.1813168E+03  0.7818608E-02  0.1169453E+00
         21   -1    0    0  503  502  0.00000000000E+00  0.00000000000E+00  0.18733890109E+04  0.18733890109E+04  0.00000000000E+00 0. -1.
         21   -1    0    0  501  503 -0.00000000000E+00 -0.00000000000E+00 -0.16441553460E+02  0.16441553460E+02  0.00000000000E+00 0. -1.
          6    2    1    2  501    0 -0.49453000579E+02 -0.29525602804E+02  0.98423008973E+03  0.10007920056E+04  0.17192558967E+03 0.  0.
         24    2    3    3    0    0 -0.58079402110E+02 -0.62727627729E+02  0.92413746929E+03  0.93143782549E+03  0.78983469013E+02 0.  0.
         -6    2    1    2    0  502  0.49453000579E+02  0.29525602804E+02  0.87271736767E+03  0.88903855876E+03  0.15948854076E+03 0.  0.
        -24    2    5    5    0    0  0.36659255894E+02  0.69778692376E+02  0.76623818686E+03  0.77439172247E+03  0.79678189504E+02 0.  0.
          5    1    3    3  501    0  0.86264015310E+01  0.33202024924E+02  0.60092620438E+02  0.69354180073E+02  0.47000000000E+01 0. -1.
        -13    1    4    4    0    0 -0.18782353317E+02  0.15060315726E+02  0.33805185053E+03  0.33890801635E+03  0.00000000000E+00 0.  1.
         14    1    4    4    0    0 -0.39297048793E+02 -0.77787943455E+02  0.58608561876E+03  0.59252980913E+03  0.00000000000E+00 0. -1.
         -5    1    5    5    0  502  0.12793744685E+02 -0.40253089572E+02  0.10647918081E+03  0.11464683628E+03  0.47000000000E+01 0.  1.
         11    1    6    6    0    0 -0.25380284387E+02  0.20347178566E+02  0.20122323741E+03  0.20383561462E+03  0.00000000000E+00 0. -1.
        -12    1    6    6    0    0  0.62039540281E+02  0.49431513810E+02  0.56501494945E+03  0.57055610786E+03  0.00000000000E+00 0.  1.
</event>
<event>
12    1  0.8406581E-002  0.1988141E+03  0.7818608E-02  0.1150902E+00
         21   -1    0    0  501  502  0.00000000000E+00  0.00000000000E+00  0.23324442638E+03  0.23324442638E+03  0.00000000000E+00 0. -1.
         21   -1    0    0  502  503 -0.00000000000E+00 -0.00000000000E+00 -0.19989056327E+04  0.19989056327E+04  0.00000000000E+00 0. -1.
         -6    2    1    2    0  503 -0.10504890941E+02  0.97794473433E+02 -0.19508718558E+04  0.19609762998E+04  0.17278002966E+03 0.  0.
        -24    2    3    3    0    0 -0.14948812640E+02  0.69433625775E+02 -0.57305362976E+03  0.58285103689E+03  0.79248805879E+02 0.  0.
          6    2    1    2  501    0  0.10504890941E+02 -0.97794473433E+02  0.18521064951E+03  0.27117375930E+03  0.17192472561E+03 0.  0.
         24    2    5    5    0    0  0.52346754226E+02 -0.11499742604E+03  0.13757326351E+03  0.20530955319E+03  0.85211613790E+02 0.  0.
          5    1    5    5  501    0 -0.41841863285E+02  0.17202952610E+02  0.47637385997E+02  0.65864206108E+02  0.47000000000E+01 0. -1.
        -13    1    6    6    0    0  0.65679254771E+02 -0.41476464620E+02  0.69945987325E+02  0.10452991327E+03  0.00000000000E+00 0.  1.
         14    1    6    6    0    0 -0.13332500545E+02 -0.73520961423E+02  0.67627276186E+02  0.10077963993E+03  0.00000000000E+00 0. -1.
         -5    1    3    3    0  503  0.44439216990E+01  0.28360847658E+02 -0.13778182261E+04  0.13781252629E+04  0.47000000000E+01 0.  1.
         13    1    4    4    0    0  0.25849879395E+02  0.48967225709E+02 -0.40267790433E+03  0.40646709596E+03  0.00000000000E+00 0. -1.
        -14    1    4    4    0    0 -0.40798692035E+02  0.20466400067E+02 -0.17037572542E+03  0.17638394093E+03  0.00000000000E+00 0.  1.
</event>
<event>
12    1  0.8406581E-002  0.2484623E+03  0.7818608E-02  0.1115140E+00
         21   -1    0    0  503  502  0.00000000000E+00  0.00000000000E+00  0.32607189913E+03  0.32607189913E+03  0.00000000000E+00 0.  1.
         21   -1    0    0  501  503 -0.00000000000E+00 -0.00000000000E+00 -0.41463314292E+03  0.41463314292E+03  0.00000000000E+00 0. -1.
          6    2    1    2  501    0  0.16294965089E+02 -0.17063481794E+03 -0.31950431803E+03  0.40148794835E+03  0.17241750623E+03 0.  0.
         24    2    3    3    0    0 -0.43960304578E+02 -0.13903180761E+03 -0.27353640392E+03  0.31924083952E+03  0.76355729590E+02 0.  0.
         -6    2    1    2    0  502 -0.16294965089E+02  0.17063481794E+03  0.23094307425E+03  0.33921709370E+03  0.17986596714E+03 0.  0.
        -24    2    5    5    0    0 -0.57276031912E+02  0.11414145545E+03  0.76221015266E+02  0.16941734877E+03  0.81140490578E+02 0.  0.
          5    1    3    3  501    0  0.60255269668E+02 -0.31603010324E+02 -0.45967914111E+02  0.82247108837E+02  0.47000000000E+01 0. -1.
        -13    1    4    4    0    0 -0.12234187576E+02 -0.59763045082E+01 -0.86269585802E+02  0.87337466163E+02  0.00000000000E+00 0.  1.
         14    1    4    4    0    0 -0.31726117003E+02 -0.13305550310E+03 -0.18726681811E+03  0.23190337335E+03  0.00000000000E+00 0. -1.
         -5    1    5    5    0  502  0.40981066823E+02  0.56493362481E+02  0.15472205898E+03  0.16979974493E+03  0.47000000000E+01 0.  1.
         11    1    6    6    0    0 -0.33298125509E+02 -0.60093173392E+00  0.99410292827E+01  0.34755580049E+02  0.00000000000E+00 0. -1.
        -12    1    6    6    0    0 -0.23977906403E+02  0.11474238719E+03  0.66279985983E+02  0.13466176872E+03  0.00000000000E+00 0.  1.
</event>
<event>
12    1  0.8406581E-002  0.2318564E+03  0.7818608E-02  0.1125621E+00
         21   -1    0    0  501  502  0.00000000000E+00  0.00000000000E+00  0.22977010986E+04  0.22977010986E+04  0.00000000000E+00 0.  1.
         21   -1    0    0  502  503 -0.00000000000E+00 -0.00000000000E+00 -0.24534997516E+02  0.24534997516E+02  0.00000000000E+00 0. -1.
         -6    2    1    2    0  503  0.93229589051E+02  0.12463368986E+03  0.86545908292E+03  0.89556289479E+03  0.16967074406E+03 0.  0.
        -24    2    3    3    0    0  0.76217653768E+02  0.13397100312E+02  0.53385575674E+03  0.54535461286E+03  0.80131590043E+02 0.  0.
          6    2    1    2  501    0 -0.93229589051E+02 -0.12463368986E+03  0.14077070181E+04  0.14266732013E+04  0.17184894958E+03 0.  0.
         24    2    5    5    0    0 -0.39451718243E+01 -0.62395148171E+02  0.38635409485E+03  0.39952704465E+03  0.80272373186E+02 0.  0.
          5    1    5    5  501    0 -0.89284417227E+02 -0.62238541690E+02  0.10213529233E+04  0.10271461567E+04  0.47000000000E+01 0. -1.
        -13    1    6    6    0    0  0.24515484637E+02  0.45794197991E+01  0.15513381615E+03  0.15712568532E+03  0.00000000000E+00 0.  1.
         14    1    6    6    0    0 -0.28460656461E+02 -0.66974567970E+02  0.23122027870E+03  0.24240135932E+03  0.00000000000E+00 0. -1.
         -5    1    3    3    0  503  0.17011935283E+02  0.11123658955E+03  0.33160332618E+03  0.35020828193E+03  0.47000000000E+01 0.  1.
         13    1    4    4    0    0  0.76701796015E+02  0.23311544755E+02  0.52752472277E+03  0.53358122790E+03  0.00000000000E+00 0. -1.
        -14    1    4    4    0    0 -0.48414224674E+00 -0.99144444433E+01  0.63310339637E+01  0.11773384959E+02  0.00000000000E+00 0.  1.
</event>
<event>
12    1  0.8406581E-002  0.2379950E+03  0.7818608E-02  0.1121554E+00
         21   -1    0    0  503  502  0.00000000000E+00  0.00000000000E+00  0.17401296575E+03  0.17401296575E+03  0.00000000000E+00 0. -1.
         21   -1    0    0  501  503 -0.00000000000E+00 -0.00000000000E+00 -0.35570752465E+03  0.35570752465E+03  0.00000000000E+00 0.  1.
          6    2    1    2  501    0  0.32169177184E+02 -0.16059202411E+03 -0.17264455658E+03  0.29402000945E+03  0.17267590705E+03 0.  0.
         24    2    3    3    0    0 -0.19248367827E+02 -0.17493845847E+02 -0.48854611747E+02  0.97890223346E+02  0.80741491386E+02 0.  0.
         -6    2    1    2    0  502 -0.32169177184E+02  0.16059202411E+03 -0.90500023235E+01  0.23570048095E+03  0.16925767341E+03 0.  0.
        -24    2    5    5    0    0 -0.28582203544E+02  0.15222576088E+03  0.45351780427E+02  0.18034251217E+03  0.80479892364E+02 0.  0.
          5    1    3    3  501    0  0.51417545011E+02 -0.14309817826E+03 -0.12378994483E+03  0.19612978611E+03  0.47000000000E+01 0. -1.
        -13    1    4    4    0    0 -0.72893435369E+01 -0.79553198541E+01 -0.70535525847E+02  0.71356023220E+02  0.00000000000E+00 0.  1.
         14    1    4    4    0    0 -0.11959024290E+02 -0.95385259932E+01  0.21680914100E+02  0.26534200126E+02  0.00000000000E+00 0. -1.
         -5    1    5    5    0  502 -0.35869736397E+01  0.83662632311E+01 -0.54401782750E+02  0.55357968774E+02  0.47000000000E+01 0.  1.
         13    1    6    6    0    0 -0.36611200410E+02  0.55895567735E+02  0.50172429742E+02  0.83558166531E+02  0.00000000000E+00 0. -1.
        -14    1    6    6    0    0  0.80289968656E+01  0.96330193143E+02 -0.48206493152E+01  0.96784345643E+02  0.00000000000E+00 0.  1.
</event>
<event>
12    1  0.8406581E-002  0.2009262E+03  0.7818608E-02  0.1149055E+00
         21   -1    0    0  501  502  0.00000000000E+00  0.00000000000E+00  0.41026182606E+03  0.41026182606E+03  0.00000000000E+00 0. -1.
         21   -1    0    0  502  503 -0.00000000000E+00 -0.00000000000E+00 -0.98270520047E+02  0.98270520047E+02  0.00000000000E+00 0.  1.
         -6    2    1    2    0  503  0.86485732280E+02  0.56232776467E+02  0.16380642907E+03  0.25923713397E+03  0.17242226766E+03 0.  0.
        -24    2    3    3    0    0  0.11574327250E+03  0.39431034305E+02  0.75341932468E+02  0.16444072392E+03  0.80081416690E+02 0.  0.
          6    2    1    2  501    0 -0.86485732280E+02 -0.56232776467E+02  0.14818487695E+03  0.24929521214E+03  0.17189368227E+03 0.  0.
         24    2    5    5    0    0  0.11112921429E+01  0.13470591589E+02  0.27476244236E+02  0.84600153877E+02  0.78864125118E+02 0.  0.
          5    1    5    5  501    0 -0.87597024423E+02 -0.69703368056E+02  0.12070863271E+03  0.16469505827E+03  0.47000000000E+01 0. -1.
        -11    1    6    6    0    0 -0.59011329098E+01 -0.24989268073E+02  0.36357448090E+02  0.44510121546E+02  0.00000000000E+00 0.  1.
         12    1    6    6    0    0  0.70124250528E+01  0.38459859662E+02 -0.88812038541E+01  0.40090032330E+02  0.00000000000E+00 0. -1.
         -5    1    3    3    0  503 -0.29257540221E+02  0.16801742162E+02  0.88464496603E+02  0.94796410051E+02  0.47000000000E+01 0.  1.
         13    1    4    4    0    0  0.69611148331E+02  0.60313147376E+02  0.65068036851E+02  0.11277072820E+03  0.00000000000E+00 0. -1.
        -14    1    4    4    0    0  0.46132124170E+02 -0.20882113071E+02  0.10273895617E+02  0.51669995721E+02  0.00000000000E+00 0.  1.
</event>
<event>
12    1  0.8406581E-002  0.1931864E+03  0.7818608E-02  0.1155747E+00
         21   -1    0    0  501  502  0.00000000000E+00  0.00000000000E+00  0.42687411790E+03  0.42687411790E+03  0.00000000000E+00 0.  1.
         21   -1    0    0  502  503 -0.00000000000E+00 -0.00000000000E+00 -0.89141694028E+02  0.89141694028E+02  0.00000000000E+00 0.  1.
         -6    2    1    2    0  503 -0.54706436234E+02  0.64698986696E+02  0.13069280349E+03  0.23324148574E+03  0.17361517429E+03 0.  0.
        -24    2    3    3    0    0 -0.38508641512E+02 -0.28578793097E+02  0.39915079749E+02  0.10199439860E+03  0.80684452454E+02 0.  0.
          6    2    1    2  501    0  0.54706436234E+02 -0.64698986696E+02  0.20703962038E+03  0.28277432618E+03  0.17296578302E+03 0.  0.
         24    2    5    5    0    0  0.69192914951E+02 -0.10230242644E+03  0.18603692694E+03  0.23708975681E+03  0.79676650694E+02 0.  0.
          5    1    5    5  501    0 -0.14486478717E+02  0.37603439748E+02  0.21002693443E+02  0.45684569368E+02  0.47000000000E+01 0. -1.
        -11    1    6    6    0    0  0.49860025141E+02 -0.15376804138E+02  0.38815158950E+02  0.65031413770E+02  0.00000000000E+00 0.  1.
         12    1    6    6    0    0  0.19332889810E+02 -0.86925622306E+02  0.14722176799E+03  0.17205834304E+03  0.00000000000E+00 0. -1.
         -5    1    3    3    0  503 -0.16197794722E+02  0.93277779793E+02  0.90777723741E+02  0.13124708715E+03  0.47000000000E+01 0.  1.
         13    1    4    4    0    0 -0.13773508691E+02  0.28495519788E+02  0.12904229571E+02  0.34179282182E+02  0.00000000000E+00 0. -1.
        -14    1    4    4    0    0 -0.24735132821E+02 -0.57074312885E+02  0.27010850178E+02  0.67815116415E+02  0.00000000000E+00 0.  1.
</event>
<event>
12    1  0.8406581E-002  0.1990630E+03  0.7818608E-02  0.1150923E+00
         21   -1    0    0  501  502  0.00000000000E+00  0.00000000000E+00  0.79384511891E+02  0.79384511891E+02  0.00000000000E+00 0. -1.
         21   -1    0    0  502  503 -0.00000000000E+00 -0.00000000000E+00 -0.59962866617E+03  0.59962866617E+03  0.00000000000E+00 0.  1.
         -6    2    1    2    0  503  0.96254057806E+02  0.28406774383E+02 -0.40321994869E+03  0.44968034250E+03  0.17191362637E+03 0.  0.
        -24    2    3    3    0    0  0.11705264865E+03  0.32658272232E+02 -0.19657696182E+03  0.24189663131E+03  0.71439436012E+02 0.  0.
          6    2    1    2  501    0 -0.96254057806E+02 -0.28406774383E+02 -0.11702420559E+03  0.22933283556E+03  0.16978544195E+03 0.  0.
         24    2    5    5    0    0 -0.13699323516E+03 -0.33890352656E+02 -0.92741218265E+02  0.18135884599E+03  0.66139209033E+02 0.  0.
          5    1    5    5  501    0  0.40739177352E+02  0.54835782731E+01 -0.24282987322E+02  0.47973989571E+02  0.47000000000E+01 0. -1.
        -11    1    6    6    0    0 -0.62202755990E+02  0.17795374534E+02 -0.43566672330E+02  0.77999443238E+02  0.00000000000E+00 0.  1.
         12    1    6    6    0    0 -0.74790479169E+02 -0.51685727191E+02 -0.49174545935E+02  0.10335940275E+03  0.00000000000E+00 0. -1.
         -5    1    3    3    0  503 -0.20798590841E+02 -0.42514978492E+01 -0.20664298686E+03  0.20778371119E+03  0.47000000000E+01 0.  1.
         13    1    4    4    0    0  0.92491899723E+02 -0.29286292841E+01 -0.16185566688E+03  0.18644190861E+03  0.00000000000E+00 0. -1.
        -14    1    4    4    0    0  0.24560748925E+02  0.35586901516E+02 -0.34721294944E+02  0.55454722701E+02  0.00000000000E+00 0.  1.
</event>
<event>
12    1  0.8406581E-002  0.1768541E+03  0.7818608E-02  0.1171471E+00
         21   -1    0    0  501  502  0.00000000000E+00  0.00000000000E+00  0.55951615683E+03  0.55951615683E+03  0.00000000000E+00 0. -1.
         21   -1    0    0  502  503 -0.00000000000E+00 -0.00000000000E+00 -0.66209164546E+02  0.66209164546E+02  0.00000000000E+00 0. -1.
         -6    2    1    2    0  503  0.27084020264E+00 -0.34432894900E+02  0.12021598296E+03  0.21384400106E+03  0.17346952650E+03 0.  0.
        -24    2    3    3    0    0  0.18494776730E+02 -0.30732824158E+02 -0.43389095817E+01  0.87820933165E+02  0.80044530847E+02 0.  0.
          6    2    1    2  501    0 -0.27084020264E+00  0.34432894900E+02  0.37309100932E+03  0.41188132031E+03  0.17106613686E+03 0.  0.
         24    2    5    5    0    0  0.59384869109E+02 -0.98733904436E+01  0.23226772065E+03  0.25258556015E+03  0.78912132276E+02 0.  0.
          5    1    5    5  501    0 -0.59655709312E+02  0.44306285344E+02  0.14082328867E+03  0.15929576017E+03  0.47000000000E+01 0. -1.
        -13    1    6    6    0    0 -0.56675477103E+01 -0.28542963932E+02  0.46298862146E+02  0.54684609563E+02  0.00000000000E+00 0.  1.
         14    1    6    6    0    0  0.65052416820E+02  0.18669573488E+02  0.18596885850E+03  0.19790095058E+03  0.00000000000E+00 0. -1.
         -5    1    3    3    0  503 -0.18223936527E+02 -0.37000707423E+01  0.12455489254E+03  0.12602306790E+03  0.47000000000E+01 0.  1.
         11    1    4    4    0    0 -0.26054446709E+02 -0.33996321332E+02  0.93373701014E+00  0.42842221257E+02  0.00000000000E+00 0. -1.
        -12    1    4    4    0    0  0.44549223439E+02  0.32634971741E+01 -0.52726465918E+01  0.44978711908E+02  0.00000000000E+00 0.  1.
</event>
<event>
12    1  0.8406581E-002  0.1741004E+03  0.7818608E-02  0.1173694E+00
         21   -1    0    0  501  502  0.00000000000E+00  0.00000000000E+00  0.16359684080E+04  0.16359684080E+04  0.00000000000E+00 0.  1.
         21   -1    0    0  502  503 -0.00000000000E+00 -0.00000000000E+00 -0.20559316375E+02  0.20559316375E+02  0.00000000000E+00 0.  1.
         -6    2    1    2    0  503  0.21805875351E+02 -0.86492028384E+01  0.54537345600E+03  0.57242108054E+03  0.17228865903E+03 0.  0.
        -24    2    3    3    0    0 -0.37960231804E+02  0.29741500281E+02  0.39335083323E+03  0.40455565384E+03  0.81331808099E+02 0.  0.
          6    2    1    2  501    0 -0.21805875351E+02  0.86492028384E+01  0.10700356356E+04  0.10841066439E+04  0.17251274963E+03 0.  0.
         24    2    5    5    0    0  0.40521130457E+02  0.46701686544E+02  0.57045631785E+03  0.57919652122E+03  0.78899873742E+02 0.  0.
          5    1    5    5  501    0 -0.62327005808E+02 -0.38052483705E+02  0.49957931780E+03  0.50491012264E+03  0.47000000000E+01 0. -1.
        -11    1    6    6    0    0  0.11945268177E+02  0.20140298432E+02  0.48140265556E+03  0.48197182266E+03  0.00000000000E+00 0.  1.
         12    1    6    6    0    0  0.28575862280E+02  0.26561388111E+02  0.89053662289E+02  0.97224698562E+02  0.00000000000E+00 0. -1.
         -5    1    3    3    0  503  0.59766107155E+02 -0.38390703120E+02  0.15202262277E+03  0.16786542671E+03  0.47000000000E+01 0.  1.
         13    1    4    4    0    0 -0.38216772958E+02 -0.19747801669E+02  0.14174681162E+03  0.14813053707E+03  0.00000000000E+00 0. -1.
        -14    1    4    4    0    0  0.25654115386E+00  0.49489301950E+02  0.25160402161E+03  0.25642511677E+03  0.00000000000E+00 0.  1.
</event>
<event>
12    1  0.8406581E-002  0.2192733E+03  0.7818608E-02  0.1135451E+00
         21   -1    0    0  503  502  0.00000000000E+00  0.00000000000E+00  0.14037948437E+03  0.14037948437E+03  0.00000000000E+00 0.  1.
         21   -1    0    0  501  503 -0.00000000000E+00 -0.00000000000E+00 -0.33420702949E+03  0.33420702949E+03  0.00000000000E+00 0.  1.
          6    2    1    2  501    0 -0.12907302416E+03 -0.14332535910E+02 -0.91822649594E+02  0.23274821475E+03  0.16992664694E+03 0.  0.
         24    2    3    3    0    0 -0.25690952550E+02 -0.56504883901E+02 -0.53437260764E+02  0.11458778254E+03  0.80137332881E+02 0.  0.
         -6    2    1    2    0  502  0.12907302416E+03  0.14332535910E+02 -0.10200489553E+03  0.24183829911E+03  0.17667907928E+03 0.  0.
        -24    2    5    5    0    0  0.41586851499E+02  0.68407537738E+02 -0.31477562546E+02  0.11704194128E+03  0.79365746003E+02 0.  0.
          5    1    3    3  501    0 -0.10338207161E+03  0.42172347991E+02 -0.38385388829E+02  0.11816043221E+03  0.47000000000E+01 0. -1.
        -13    1    4    4    0    0 -0.46354839350E+02 -0.57397046434E+02 -0.57463983770E+02  0.93516316765E+02  0.00000000000E+00 0.  1.
         14    1    4    4    0    0  0.20663886800E+02  0.89216253312E+00  0.40267230059E+01  0.21071465773E+02  0.00000000000E+00 0. -1.
         -5    1    5    5    0  502  0.87486172661E+02 -0.54075001828E+02 -0.70527332979E+02  0.12479635783E+03  0.47000000000E+01 0.  1.
         11    1    6    6    0    0  0.35581935055E+00 -0.16066747580E+02  0.40155323427E+01  0.16564766379E+02  0.00000000000E+00 0. -1.
        -12    1    6    6    0    0  0.41231032148E+02  0.84474285318E+02 -0.35493094889E+02  0.10047717490E+03  0.00000000000E+00 0.  1.
</event>
<event>
12    1  0.8406581E-002  0.2410416E+03  0.7818608E-02  0.1119459E+00
         21   -1    0    0  501  502  0.00000000000E+00  0.00000000000E+00  0.20387516534E+03  0.20387516534E+03  0.00000000000E+00 0.  1.
         21   -1    0    0  502  503 -0.00000000000E+00 -0.00000000000E+00 -0.30326786736E+03  0.30326786736E+03  0.00000000000E+00 0. -1.
         -6    2    1    2    0  503  0.14912893281E+03  0.79304978261E+02 -0.11635052350E+03  0.26765369333E+03  0.17196609275E+03 0.  0.
        -24    2    3    3    0    0  0.35189053131E+02  0.46664949029E+02 -0.11098161770E+03  0.14891623993E+03  0.80269795816E+02 0.  0.
          6    2    1    2  501    0 -0.14912893281E+03 -0.79304978261E+02  0.16957821477E+02  0.23948933938E+03  0.16893447780E+03 0.  0.
         24    2    5    5    0    0 -0.10001927681E+03 -0.70642778571E+02  0.73586955740E+02  0.16388682049E+03  0.80309351737E+02 0.  0.
          5    1    5    5  501    0 -0.49109655996E+02 -0.86621996895E+01 -0.56629134263E+02  0.75602518892E+02  0.47000000000E+01 0. -1.
        -11    1    6    6    0    0 -0.94882215303E+02 -0.86012936434E+02  0.55422687265E+02  0.13954402273E+03  0.00000000000E+00 0.  1.
         12    1    6    6    0    0 -0.51370615077E+01  0.15370157863E+02  0.18164268475E+02  0.24342797762E+02  0.00000000000E+00 0. -1.
         -5    1    3    3    0  503  0.11393987968E+03  0.32640029232E+02 -0.53689057968E+01  0.11873745339E+03  0.47000000000E+01 0.  1.
         13    1    4    4    0    0 -0.25307290114E+02  0.21215574381E+02 -0.29424221918E+02  0.44230581781E+02  0.00000000000E+00 0. -1.
        -14    1    4    4    0    0  0.60496343244E+02  0.25449374647E+02 -0.81557395783E+02  0.10468565815E+03  0.00000000000E+00 0.  1.
</event>
<event>
12    1  0.8406581E-002  0.2683573E+03  0.7818608E-02  0.1102413E+00
         21   -1    0    0  501  502  0.00000000000E+00  0.00000000000E+00  0.29254630129E+03  0.29254630129E+03  0.00000000000E+00 0.  1.
         21   -1    0    0  502  503 -0.00000000000E+00 -0.00000000000E+00 -0.34062160101E+03  0.34062160101E+03  0.00000000000E+00 0. -1.
         -6    2    1    2    0  503 -0.15568424259E+03  0.13355422690E+03 -0.19184315231E+03  0.32987788361E+03  0.17303556887E+03 0.  0.
        -24    2    3    3    0    0 -0.12995169772E+03  0.10089870118E+03 -0.62189743317E+02  0.19364043029E+03  0.81000373015E+02 0.  0.
          6    2    1    2  501    0  0.15568424259E+03 -0.13355422690E+03  0.14376785258E+03  0.30329001869E+03  0.17100095054E+03 0.  0.
         24    2    5    5    0    0  0.47574111326E+02 -0.13037287660E+03  0.63532701770E+02  0.16853954226E+03  0.71475800715E+02 0.  0.
          5    1    5    5  501    0  0.10811013127E+03 -0.31813502962E+01  0.80235150814E+02  0.13475047643E+03  0.47000000000E+01 0. -1.
        -13    1    6    6    0    0  0.39053232233E+02 -0.39346759695E+02  0.52676614525E+02  0.76473185916E+02  0.00000000000E+00 0.  1.
         14    1    6    6    0    0  0.85208790937E+01 -0.91026116905E+02  0.10856087245E+02  0.92066356339E+02  0.00000000000E+00 0. -1.
         -5    1    3    3    0  503 -0.25732544875E+02  0.32655525718E+02 -0.12965340899E+03  0.13623745332E+03  0.47000000000E+01 0.  1.
         13    1    4    4    0    0 -0.61408197621E+02  0.96880209139E+02 -0.37579946819E+02  0.12070208805E+03  0.00000000000E+00 0. -1.
        -14    1    4    4    0    0 -0.68543500098E+02  0.40184920395E+01 -0.24609796498E+02  0.72938342233E+02  0.00000000000E+00 0.  1.
</event>
<event>
12    1  0.8406581E-002  0.2127160E+03  0.7818608E-02  0.1139601E+00
         21   -1    0    0  501  502  0.00000000000E+00  0.00000000000E+00  0.16492489951E+03  0.16492489951E+03  0.00000000000E+00 0. -1.
         21   -1    0    0  502  503 -0.00000000000E+00 -0.00000000000E+00 -0.37362941287E+03  0.37362941287E+03  0.00000000000E+00 0. -1.
         -6    2    1    2    0  503  0.55630235684E+02 -0.11055763855E+03 -0.24408317764E+03  0.32376641043E+03  0.17300397785E+03 0.  0.
        -24    2    3    3    0    0 -0.13704497793E+02 -0.37061116648E+02 -0.18436647483E+03  0.20630484824E+03  0.83721883267E+02 0.  0.
          6    2    1    2  501    0 -0.55630235684E+02  0.11055763855E+03  0.35378664288E+02  0.21478790195E+03  0.17194324173E+03 0.  0.
         24    2    5    5    0    0  0.19886329424E+01 -0.47711026155E+01  0.30772251907E+02  0.85698934204E+02  0.79816400289E+02 0.  0.
          5    1    5    5  501    0 -0.57618868627E+02  0.11532874116E+03  0.46064123810E+01  0.12908896775E+03  0.47000000000E+01 0. -1.
        -13    1    6    6    0    0 -0.14937908877E+02  0.15526001109E+02 -0.19399425255E+02  0.28991990830E+02  0.00000000000E+00 0.  1.
         14    1    6    6    0    0  0.16926541820E+02 -0.20297103724E+02  0.50171677162E+02  0.56706943374E+02  0.00000000000E+00 0. -1.
         -5    1    3    3    0  503  0.69334733477E+02 -0.73496521899E+02 -0.59716702810E+02  0.11746156219E+03  0.47000000000E+01 0.  1.
         11    1    4    4    0    0 -0.34591964901E+02 -0.75985241199E+01 -0.26165370211E+02  0.44033716659E+02  0.00000000000E+00 0. -1.
        -12    1    4    4    0    0  0.20887467108E+02 -0.29462592528E+02 -0.15820110462E+03  0.16227113158E+03  0.00000000000E+00 0.  1.
</event>
<event>
12    1  0.8406581E-002  0.2151524E+03  0.7818608E-02  0.1138243E+00
         21   -1    0    0  501  502  0.00000000000E+00  0.00000000000E+00  0.43715723187E+03  0.43715723187E+03  0.00000000000E+00 0. -1.
         21   -1    0    0  502  503 -0.00000000000E+00 -0.00000000000E+00 -0.13672013497E+03  0.13672013497E+03  0.00000000000E+00 0. -1.
         -6    2    1    2    0  503 -0.72114671464E+02  0.10312763587E+03  0.11098205984E+02  0.21543845414E+03  0.17451281392E+03 0.  0.
        -24    2    3    3    0    0 -0.11516048733E+03  0.59368196382E+02 -0.31951000743E+01  0.15223861706E+03  0.79874071356E+02 0.  0.
          6    2    1    2  501    0  0.72114671464E+02 -0.10312763587E+03  0.28933889092E+03  0.35843891271E+03  0.17007535162E+03 0.  0.
         24    2    5    5    0    0  0.10752365193E+03 -0.90531726268E+02  0.17426826591E+03  0.23729523118E+03  0.78627406482E+02 0.  0.
          5    1    5    5  501    0 -0.35408980466E+02 -0.12595909603E+02  0.11507062500E+03  0.12114368153E+03  0.47000000000E+01 0. -1.
        -13    1    6    6    0    0  0.89280652046E+02 -0.24722311122E+02  0.95654047752E+02  0.13316127195E+03  0.00000000000E+00 0.  1.
         14    1    6    6    0    0  0.18242999885E+02 -0.65809415147E+02  0.78614218162E+02  0.10413395923E+03  0.00000000000E+00 0. -1.
         -5    1    3    3    0  503  0.43045815870E+02  0.43759439489E+02  0.14293306058E+02  0.63199837076E+02  0.47000000000E+01 0.  1.
         13    1    4    4    0    0 -0.18312568608E+02  0.24815703645E+02 -0.33010833391E+02  0.45176148990E+02  0.00000000000E+00 0. -1.
        -14    1    4    4    0    0 -0.96847918726E+02  0.34552492737E+02  0.29815733316E+02  0.10706246807E+03  0.00000000000E+00 0.  1.
</event>
<event>
12    1  0.8406581E-002  0.2068561E+03  0.7818608E-02  0.1144161E+00
         21   -1    0    0  501  502  0.00000000000E+00  0.00000000000E+00  0.22719251882E+03  0.22719251882E+03  0.00000000000E+00 0. -1.
         21   -1    0    0  502  503 -0.00000000000E+00 -0.00000000000E+00 -0.18800109631E+03  0.18800109631E+03  0.00000000000E+00 0. -1.
         -6    2    1    2    0  503 -0.99352025387E+02 -0.56034411287E+02  0.17288052337E+02  0.20757727188E+03  0.17256525389E+03 0.  0.
        -24    2    3    3    0    0 -0.55492503342E+02  0.36874226672E+02  0.40777351301E+01  0.10388409389E+03  0.79599940449E+02 0.  0.
          6    2    1    2  501    0  0.99352025387E+02  0.56034411287E+02  0.21903370165E+02  0.20761634325E+03  0.17208750147E+03 0.  0.
         24    2    5    5    0    0  0.39723780456E+02 -0.25460432290E+02 -0.31513959055E+02  0.93281579575E+02  0.74041279882E+02 0.  0.
          5    1    5    5  501    0  0.59628244932E+02  0.81494843577E+02  0.53417329220E+02  0.11433476367E+03  0.47000000000E+01 0. -1.
        -13    1    6    6    0    0  0.27637923886E+02 -0.44759974643E+02  0.21385620953E+01  0.52648681034E+02  0.00000000000E+00 0.  1.
         14    1    6    6    0    0  0.12085856570E+02  0.19299542353E+02 -0.33652521150E+02  0.40632898541E+02  0.00000000000E+00 0. -1.
         -5    1    3    3    0  503 -0.43859522046E+02 -0.92908637959E+02  0.13210317207E+02  0.10369317799E+03  0.47000000000E+01 0.  1.
         11    1    4    4    0    0 -0.37809898293E+02 -0.14579480978E+02 -0.19034481947E+02  0.44771209248E+02  0.00000000000E+00 0. -1.
        -12    1    4    4    0    0 -0.17682605048E+02  0.51453707650E+02  0.23112217077E+02  0.59112884640E+02  0.00000000000E+00 0.  1.
</event>
<event>
12    1  0.8406581E-002  0.2094938E+03  0.7818608E-02  0.1142047E+00
         21   -1    0    0  503  502  0.00000000000E+00  0.00000000000E+00  0.71547362719E+03  0.71547362719E+03  0.00000000000E+00 0. -1.
         21   -1    0    0  501  503 -0.00000000000E+00 -0.00000000000E+00 -0.75178151017E+02  0.75178151017E+02  0.00000000000E+00 0. -1.
          6    2    1    2  501    0 -0.11632755641E+03 -0.28516666233E+02  0.49021991351E+03  0.53294977947E+03  0.17139020742E+03 0.  0.
         24    2    3    3    0    0 -0.10315704325E+03 -0.24844425910E+01  0.18369479447E+03  0.22500355415E+03  0.78963750144E+02 0.  0.
         -6    2    1    2    0  502  0.11632755641E+03  0.28516666233E+02  0.15007556266E+03  0.25770199874E+03  0.17187886726E+03 0.  0.
        -24    2    5    5    0    0  0.11996730618E+03  0.45363890886E+02  0.16836970695E+03  0.23213165514E+03  0.95324235902E+02 0.  0.
          5    1    3    3  501    0 -0.13170513158E+02 -0.26032223642E+02  0.30652511905E+03  0.30794622532E+03  0.47000000000E+01 0. -1.
        -13    1    4    4    0    0 -0.30361411536E+02  0.34446173163E+02  0.87717465798E+02  0.99008625695E+02  0.00000000000E+00 0.  1.
         14    1    4    4    0    0 -0.72795631718E+02 -0.36930615754E+02  0.95977328668E+02  0.12599492845E+03  0.00000000000E+00 0. -1.
         -5    1    5    5    0  502 -0.36397497690E+01 -0.16847224653E+02 -0.18294144284E+02  0.25570343603E+02  0.47000000000E+01 0.  1.
         11    1    6    6    0    0  0.94512664196E+02  0.27199771763E+02  0.51233882947E+02  0.11089356176E+03  0.00000000000E+00 0. -1.
        -12    1    6    6    0    0  0.25454641985E+02  0.18164119123E+02  0.11713582400E+03  0.12123809338E+03  0.00000000000E+00 0.  1.
</event>
<event>
12    1  0.8406581E-002  0.2311495E+03  0.7818608E-02  0.1126765E+00
         21   -1    0    0  503  502  0.00000000000E+00  0.00000000000E+00  0.48384587150E+03  0.48384587150E+03  0.00000000000E+00 0.  1.
         21   -1    0    0  501  503 -0.00000000000E+00 -0.00000000000E+00 -0.11152460180E+03  0.11152460180E+03  0.00000000000E+00 0.  1.
          6    2    1    2  501    0  0.15527591377E+03  0.15430244520E+02  0.24170302322E+03  0.33444046260E+03  0.17053260611E+03 0.  0.
         24    2    3    3    0    0  0.39513961035E+02  0.25583590859E+02  0.38939543622E+02  0.10069051329E+03  0.80040103520E+02 0.  0.
         -6    2    1    2    0  502 -0.15527591377E+03 -0.15430244520E+02  0.13061824648E+03  0.26093001071E+03  0.16332373475E+03 0.  0.
        -24    2    5    5    0    0 -0.12147475691E+02  0.91458128685E+01  0.50888215537E+02  0.95193170454E+02  0.78999507352E+02 0.  0.
          5    1    3    3  501    0  0.11576195273E+03 -0.10153346339E+02  0.20276347960E+03  0.23374994930E+03  0.47000000000E+01 0. -1.
        -13    1    4    4    0    0 -0.15319951619E+02  0.21636713318E+02  0.37208866062E+02  0.45687503701E+02  0.00000000000E+00 0.  1.
         14    1    4    4    0    0  0.54833912654E+02  0.39468775412E+01  0.17306775600E+01  0.55003009591E+02  0.00000000000E+00 0. -1.
         -5    1    5    5    0  502 -0.14312843808E+03 -0.24576057389E+02  0.79730030948E+02  0.16573684026E+03  0.47000000000E+01 0.  1.
         13    1    6    6    0    0  0.72422875366E+01  0.38936732182E+02  0.96753432677E+01  0.40769254459E+02  0.00000000000E+00 0. -1.
        -14    1    6    6    0    0 -0.19389763228E+02 -0.29790919314E+02  0.41212872269E+02  0.54423915995E+02  0.00000000000E+00 0.  1.
</event>
<event>
12    1  0.8406581E-002  0.1991745E+03  0.7818608E-02  0.1150927E+00
         21   -1    0    0  503  502  0.00000000000E+00  0.00000000000E+00  0.80770587420E+03  0.80770587420E+03  0.00000000000E+00 0. -1.
         21   -1    0    0  501  503 -0.00000000000E+00 -0.00000000000E+00 -0.59360981963E+02  0.59360981963E+02  0.00000000000E+00 0. -1.
          6    2    1    2  501    0 -0.97123991668E+02  0.91221741171E+01  0.18739528333E+03  0.27180644928E+03  0.17101306921E+03 0.  0.
         24    2    3    3    0    0 -0.27313574490E+02 -0.37492392917E+02  0.33511334123E+02  0.96453171502E+02  0.77643376408E+02 0.  0.
         -6    2    1    2    0  502  0.97123991668E+02 -0.91221741171E+01  0.56094960891E+03  0.59526040688E+03  0.17364966007E+03 0.  0.
        -24    2    5    5    0    0  0.11356811350E+03 -0.24089409893E+02  0.55422629388E+03  0.57155976861E+03  0.77690206500E+02 0.  0.
          5    1    3    3  501    0 -0.69810417177E+02  0.46614567034E+02  0.15388394920E+03  0.17535327778E+03  0.47000000000E+01 0. -1.
        -11    1    4    4    0    0  0.16809654606E+02  0.13019873132E+02 -0.46747676669E+00  0.21267348657E+02  0.00000000000E+00 0.  1.
         12    1    4    4    0    0 -0.44123229097E+02 -0.50512266049E+02  0.33978810890E+02  0.75185822845E+02  0.00000000000E+00 0. -1.
         -5    1    5    5    0  502 -0.16444121833E+02  0.14967235776E+02  0.67233150295E+01  0.23700638274E+02  0.47000000000E+01 0.  1.
         11    1    6    6    0    0  0.53409143250E+02  0.12651292447E+02  0.12410597252E+03  0.13570145246E+03  0.00000000000E+00 0. -1.
        -12    1    6    6    0    0  0.60158970251E+02 -0.36740702340E+02  0.43012032136E+03  0.43585831615E+03  0.00000000000E+00 0.  1.
</event>
<event>
12    1  0.8406581E-002  0.2170410E+03  0.7818608E-02  0.1137308E+00
         21   -1    0    0  501  502  0.00000000000E+00  0.00000000000E+00  0.83004455184E+03  0.83004455184E+03  0.00000000000E+00 0. -1.
         21   -1    0    0  502  503 -0.00000000000E+00 -0.00000000000E+00 -0.15415918116E+03  0.15415918116E+03  0.00000000000E+00 0. -1.
         -6    2    1    2    0  503 -0.90027132313E+02 -0.84525844220E+02 -0.58203789582E+02  0.21870147193E+03  0.17086002987E+03 0.  0.
        -24    2    3    3    0    0 -0.95890318020E+02 -0.11503098432E+03 -0.23381602336E+02  0.17180141602E+03  0.80882301987E+02 0.  0.
          6    2    1    2  501    0  0.90027132313E+02  0.84525844220E+02  0.73408916026E+03  0.76550226107E+03  0.17848617198E+03 0.  0.
         24    2    5    5    0    0  0.44022220172E+02 -0.13442102373E+02  0.48244037479E+03  0.49152530632E+03  0.82035148212E+02 0.  0.
          5    1    5    5  501    0  0.46004912141E+02  0.97967946593E+02  0.25164878548E+03  0.27397695475E+03  0.47000000000E+01 0. -1.
        -13    1    6    6    0    0  0.90706331960E+01  0.80078658868E+01  0.39239452906E+03  0.39258103461E+03  0.00000000000E+00 0.  1.
         14    1    6    6    0    0  0.34951586976E+02 -0.21449968260E+02  0.90045845732E+02  0.98944271709E+02  0.00000000000E+00 0. -1.
         -5    1    3    3    0  503  0.58631857071E+01  0.30505140103E+02 -0.34822187246E+02  0.46900055906E+02  0.47000000000E+01 0.  1.
         13    1    4    4    0    0 -0.29700511074E+02 -0.17194654055E+02 -0.39788689575E+02  0.52544422199E+02  0.00000000000E+00 0. -1.
        -14    1    4    4    0    0 -0.66189806946E+02 -0.97836330268E+02  0.16407087239E+02  0.11925699382E+03  0.00000000000E+00 0.  1.
</event>
<event>
12    1  0.8406581E-002  0.2029120E+03  0.7818608E-02  0.1147605E+00
         21   -1    0    0  503  502  0.00000000000E+00  0.00000000000E+00  0.15644396641E+02  0.15644396641E+02  0.00000000000E+00 0. -1.
         21   -1    0    0  501  503 -0.00000000000E+00 -0.00000000000E+00 -0.29139983945E+04  0.29139983945E+04  0.00000000000E+00 0.  1.
          6    2    1    2  501    0  0.10462216406E+03 -0.26741501284E+02 -0.97386614667E+03  0.99448729827E+03  0.17008471329E+03 0.  0.
         24    2    3    3    0    0  0.41407926233E+02 -0.71991892147E+02 -0.71060227856E+03  0.71994478428E+03  0.80420427928E+02 0.  0.
         -6    2    1    2    0  502 -0.10462216406E+03  0.26741501284E+02 -0.19244878512E+04  0.19351554929E+04  0.17179169682E+03 0.  0.
        -24    2    5    5    0    0 -0.31968475707E+02  0.45822467881E+02 -0.15516291459E+04  0.15547762797E+04  0.81575679198E+02 0.  0.
          5    1    3    3  501    0  0.63214237832E+02  0.45250390864E+02 -0.26326386811E+03  0.27454251400E+03  0.47000000000E+01 0. -1.
        -13    1    4    4    0    0 -0.19881791455E+02  0.95592245784E+00 -0.10113947352E+03  0.10307954464E+03  0.00000000000E+00 0.  1.
         14    1    4    4    0    0  0.61289717688E+02 -0.72947814605E+02 -0.60946280504E+03  0.61686523964E+03  0.00000000000E+00 0. -1.
         -5    1    5    5    0  502 -0.72653688358E+02 -0.19080966597E+02 -0.37285870534E+03  0.38037921324E+03  0.47000000000E+01 0.  1.
         11    1    6    6    0    0  0.11504710417E+02  0.44776040076E+02 -0.46871880120E+03  0.47099317057E+03  0.00000000000E+00 0. -1.
        -12    1    6    6    0    0 -0.43473186124E+02  0.10464278049E+01 -0.10829103447E+04  0.10837831091E+04  0.00000000000E+00 0.  1.
</event>
<event>
12    1  0.8406581E-002  0.1936143E+03  0.7818608E-02  0.1155312E+00
         21   -1    0    0  503  502  0.00000000000E+00  0.00000000000E+00  0.94760680886E+03  0.94760680886E+03  0.00000000000E+00 0. -1.
         21   -1    0    0  501  503 -0.00000000000E+00 -0.00000000000E+00 -0.47605359589E+02  0.47605359589E+02  0.00000000000E+00 0.  1.
          6    2    1    2  501    0 -0.68592678626E+02  0.57033859097E+02  0.24428483979E+03  0.31150844423E+03  0.17147772809E+03 0.  0.
         24    2    3    3    0    0 -0.90874576166E+02  0.78809673875E+02  0.23921970193E+03  0.27959583404E+03  0.80489821307E+02 0.  0.
         -6    2    1    2    0  502  0.68592678626E+02 -0.57033859097E+02  0.65571660948E+03  0.68370372422E+03  0.17183915130E+03 0.  0.
        -24    2    5    5    0    0  0.76700474443E+02  0.23451100439E+02  0.33994182917E+03  0.35769856024E+03  0.77167971875E+02 0.  0.
          5    1    3    3  501    0  0.22281897540E+02 -0.21775814778E+02  0.50651378601E+01  0.31912610184E+02  0.47000000000E+01 0. -1.
        -13    1    4    4    0    0 -0.46033972941E+02  0.87200573475E+02  0.15234528037E+03  0.18147217729E+03  0.00000000000E+00 0.  1.
         14    1    4    4    0    0 -0.44840603224E+02 -0.83908995995E+01  0.86874421562E+02  0.98123656757E+02  0.00000000000E+00 0. -1.
         -5    1    5    5    0  502 -0.81077958175E+01 -0.80484959536E+02  0.31577478031E+03  0.32600516398E+03  0.47000000000E+01 0.  1.
         13    1    6    6    0    0  0.83614819691E+02  0.27408022703E+02  0.33831099883E+03  0.34956683154E+03  0.00000000000E+00 0. -1.
        -14    1    6    6    0    0 -0.69143452481E+01 -0.39569222643E+01  0.16308303376E+01  0.81317286972E+01  0.00000000000E+00 0.  1.
</event>
<event>
12    1  0.8406581E-002  0.1859201E+03  0.7818608E-02  0.1163074E+00
         21   -1    0    0  503  502  0.00000000000E+00  0.00000000000E+00  0.76343245242E+02  0.76343245242E+02  0.00000000000E+00 0.  1.
         21   -1    0    0  501  503 -0.00000000000E+00 -0.00000000000E+00 -0.82124938062E+03  0.82124938062E+03  0.00000000000E+00 0.  1.
          6    2    1    2  501    0 -0.29112192323E+02  0.71443492882E+02 -0.67469889408E+03  0.69885830351E+03  0.16502314472E+03 0.  0.
         24    2    3    3    0    0 -0.49571937911E+02  0.13566367993E+02 -0.21600624589E+03  0.23605229850E+03  0.80128434355E+02 0.  0.
         -6    2    1    2    0  502  0.29112192323E+02 -0.71443492882E+02 -0.70207241298E+02  0.19873432235E+03  0.16915845156E+03 0.  0.
        -24    2    5    5    0    0 -0.92234152325E+01 -0.91479168496E+02 -0.89248689297E+02  0.15123996641E+03  0.80341080665E+02 0.  0.
          5    1    3    3  501    0  0.20459745588E+02  0.57877124889E+02 -0.45869264819E+03  0.46280600501E+03  0.47000000000E+01 0. -1.
        -13    1    4    4    0    0  0.22000189578E+01 -0.36980461317E+00 -0.15426475360E+03  0.15428088359E+03  0.00000000000E+00 0.  1.
         14    1    4    4    0    0 -0.51771956869E+02  0.13936172606E+02 -0.61741492293E+02  0.81771414905E+02  0.00000000000E+00 0. -1.
         -5    1    5    5    0  502  0.38335607556E+02  0.20035675614E+02  0.19041448000E+02  0.47494355937E+02  0.47000000000E+01 0.  1.
         13    1    6    6    0    0 -0.26495642586E+02 -0.11438960555E+01 -0.36812289995E+02  0.45370389781E+02  0.00000000000E+00 0. -1.
        -14    1    6    6    0    0  0.17272227353E+02 -0.90335272440E+02 -0.52436399302E+02  0.10586957663E+03  0.00000000000E+00 0.  1.
</event>
<event>
12    1  0.8406581E-002  0.1975023E+03  0.7818608E-02  0.1152435E+00
         21   -1    0    0  503  502  0.00000000000E+00  0.00000000000E+00  0.89943903457E+02  0.89943903457E+02  0.00000000000E+00 0.  1.
         21   -1    0    0  501  503 -0.00000000000E+00 -0.00000000000E+00 -0.61488794161E+03  0.61488794161E+03  0.00000000000E+00 0.  1.
          6    2    1    2  501    0 -0.28264151223E+02 -0.93969973762E+02 -0.45804684663E+03  0.49881266691E+03  0.17139995551E+03 0.  0.
         24    2    3    3    0    0 -0.18774703199E+02 -0.70555441603E+02 -0.45919386121E+03  0.47308922269E+03  0.87314664509E+02 0.  0.
         -6    2    1    2    0  502  0.28264151223E+02  0.93969973762E+02 -0.66897191521E+02  0.20601917816E+03  0.16834324852E+03 0.  0.
        -24    2    5    5    0    0  0.27778018305E+02  0.13054325945E+03 -0.65871421229E+02  0.16912766483E+03  0.80324105892E+02 0.  0.
          5    1    3    3  501    0 -0.94894480239E+01 -0.23414532160E+02  0.11470145737E+01  0.25723444219E+02  0.47000000000E+01 0. -1.
        -11    1    4    4    0    0  0.15339457798E+02  0.10984413554E+02 -0.16011586497E+03  0.16122359170E+03  0.00000000000E+00 0.  1.
         12    1    4    4    0    0 -0.34114160997E+02 -0.81539855157E+02 -0.29907799624E+03  0.31186563099E+03  0.00000000000E+00 0. -1.
         -5    1    5    5    0  502  0.48613291817E+00 -0.36573285685E+02 -0.10257702926E+01  0.36891513329E+02  0.47000000000E+01 0.  1.
         13    1    6    6    0    0  0.25737637604E+02  0.41206181622E+02  0.12613346689E+02  0.50194341395E+02  0.00000000000E+00 0. -1.
        -14    1    6    6    0    0  0.20403807003E+01  0.89337077825E+02 -0.78484767918E+02  0.11893332343E+03  0.00000000000E+00 0.  1.
</event>
<event>
12    1  0.8406581E-002  0.1755365E+03  0.7818608E-02  0.1172611E+00
         21   -1    0    0  501  502  0.00000000000E+00  0.00000000000E+00  0.18853003406E+04  0.18853003406E+04  0.00000000000E+00 0. -1.
         21   -1    0    0  502  503 -0.00000000000E+00 -0.00000000000E+00 -0.16951112297E+02  0.16951112297E+02  0.00000000000E+00 0. -1.
         -6    2    1    2    0  503 -0.31586252463E+02  0.21645755700E+01  0.72834550018E+03  0.74881243846E+03  0.17096936458E+03 0.  0.
        -24    2    3    3    0    0  0.78623952173E+01  0.32209689701E+02  0.19956030488E+03  0.21768648592E+03  0.80397820248E+02 0.  0.
          6    2    1    2  501    0  0.31586252463E+02 -0.21645755700E+01  0.11400037282E+04  0.11534390145E+04  0.17265770520E+03 0.  0.
         24    2    5    5    0    0 -0.43082255083E+02 -0.19365821339E+02  0.51315733823E+03  0.52190931965E+03  0.82630311764E+02 0.  0.
          5    1    5    5  501    0  0.74668507546E+02  0.17201245769E+02  0.62684638994E+03  0.63152969483E+03  0.47000000000E+01 0. -1.
        -13    1    6    6    0    0  0.21257401302E+02 -0.42149341635E+01  0.56870858023E+02  0.60859980877E+02  0.00000000000E+00 0.  1.
         14    1    6    6    0    0 -0.64339656385E+02 -0.15150887175E+02  0.45628648021E+03  0.46104933878E+03  0.00000000000E+00 0. -1.
         -5    1    3    3    0  503 -0.39448647681E+02 -0.30045114131E+02  0.52878519531E+03  0.53112595254E+03  0.47000000000E+01 0.  1.
         13    1    4    4    0    0  0.28888944558E+02 -0.14988201253E+02  0.10502582434E+03  0.10995290389E+03  0.00000000000E+00 0. -1.
        -14    1    4    4    0    0 -0.21026549341E+02  0.47197890954E+02  0.94534480533E+02  0.10773358203E+03  0.00000000000E+00 0.  1.
</event>
<event>
12    1  0.8406581E-002  0.1743811E+03  0.7818608E-02  0.1173573E+00
         21   -1    0    0  501  502  0.00000000000E+00  0.00000000000E+00  0.12856574448E+03  0.12856574448E+03  0.00000000000E+00 0. -1.
         21   -1    0    0  502  503 -0.00000000000E+00 -0.00000000000E+00 -0.72013488087E+03  0.72013488087E+03  0.00000000000E+00 0. -1.
         -6    2    1    2    0  503  0.13290960086E+02 -0.18635010318E+02 -0.64371371894E+03  0.66669012895E+03  0.17200134551E+03 0.  0.
        -24    2    3    3    0    0 -0.45077951042E+02 -0.47850698411E+02 -0.38616614024E+03  0.40095843812E+03  0.85566758866E+02 0.  0.
          6    2    1    2  501    0 -0.13290960086E+02  0.18635010318E+02  0.52144582541E+02  0.18201049641E+03  0.17287235200E+03 0.  0.
         24    2    5    5    0    0 -0.23877686162E+02 -0.70485082073E+01 -0.35115312034E+02  0.90314798068E+02  0.79396802495E+02 0.  0.
          5    1    5    5  501    0  0.10586726076E+02  0.25683518525E+02  0.87259894575E+02  0.91695698340E+02  0.47000000000E+01 0. -1.
        -13    1    6    6    0    0 -0.43381902428E+02 -0.13151966707E+02 -0.48105239825E+02  0.66098999880E+02  0.00000000000E+00 0.  1.
         14    1    6    6    0    0  0.19504216266E+02  0.61034584994E+01  0.12989927791E+02  0.24215798187E+02  0.00000000000E+00 0. -1.
         -5    1    3    3    0  503  0.58368911128E+02  0.29215688093E+02 -0.25754757869E+03  0.26573169082E+03  0.47000000000E+01 0.  1.
         13    1    4    4    0    0 -0.17872464842E+02 -0.43471353384E+02 -0.35967851182E+03  0.36273656478E+03  0.00000000000E+00 0. -1.
        -14    1    4    4    0    0 -0.27205486200E+02 -0.43793450272E+01 -0.26487628424E+02  0.38221873342E+02  0.00000000000E+00 0.  1.
</event>
<event>
12    1  0.8406581E-002  0.1745632E+03  0.7818608E-02  0.1173619E+00
         21   -1    0    0  501  502  0.00000000000E+00  0.00000000000E+00  0.33325042338E+02  0.33325042338E+02  0.00000000000E+00 0. -1.
         21   -1    0    0  502  503 -0.00000000000E+00 -0.00000000000E+00 -0.90904979421E+03  0.90904979421E+03  0.00000000000E+00 0. -1.
         -6    2    1    2    0  503 -0.29152214641E+01  0.20544751103E+02 -0.40921797405E+03  0.44489512226E+03  0.17332551519E+03 0.  0.
        -24    2    3    3    0    0 -0.67882359659E+02  0.23399518167E+02 -0.22118819069E+03  0.24588213734E+03  0.79863994121E+02 0.  0.
          6    2    1    2  501    0  0.29152214641E+01 -0.20544751103E+02 -0.46650677782E+03  0.49747971428E+03  0.17154272662E+03 0.  0.
         24    2    5    5    0    0  0.53046687563E+02 -0.40843564810E+02 -0.24984801863E+03  0.27412279439E+03  0.90758614694E+02 0.  0.
          5    1    5    5  501    0 -0.50131466099E+02  0.20298813707E+02 -0.21665875919E+03  0.22335691989E+03  0.47000000000E+01 0. -1.
        -13    1    6    6    0    0 -0.25869324875E+02 -0.14023176303E+02 -0.64065638452E+02  0.70500194846E+02  0.00000000000E+00 0.  1.
         14    1    6    6    0    0  0.78916012439E+02 -0.26820388507E+02 -0.18578238018E+03  0.20362259954E+03  0.00000000000E+00 0. -1.
         -5    1    3    3    0  503  0.64967138194E+02 -0.28547670644E+01 -0.18802978336E+03  0.19901298493E+03  0.47000000000E+01 0.  1.
         11    1    4    4    0    0  0.44071511722E+01 -0.20065162042E+02 -0.67638972317E+02  0.70689916433E+02  0.00000000000E+00 0. -1.
        -12    1    4    4    0    0 -0.72289510831E+02  0.43464680210E+02 -0.15354921837E+03  0.17519222090E+03  0.00000000000E+00 0.  1.
</event>
<event>
12    1  0.8406581E-002  0.3312854E+03  0.7818608E-02  0.1070582E+00
         21   -1    0    0  503  502  0.00000000000E+00  0.00000000000E+00  0.15048069387E+03  0.15048069387E+03  0.00000000000E+00 0. -1.
         21   -1    0    0  501  503 -0.00000000000E+00 -0.00000000000E+00 -0.12234580718E+04  0.12234580718E+04  0.00000000000E+00 0.  1.
          6    2    1    2  501    0  0.16901253799E+03 -0.22659562308E+03 -0.97323822176E+03  0.10280771660E+04  0.17274029234E+03 0.  0.
         24    2    3    3    0    0  0.58810749990E+02 -0.47255117229E+02 -0.49957808984E+03  0.50973031141E+03  0.67490533405E+02 0.  0.
         -6    2    1    2    0  502 -0.16901253799E+03  0.22659562308E+03 -0.99739156196E+02  0.34586159968E+03  0.17251531079E+03 0.  0.
        -24    2    5    5    0    0 -0.36921020203E+02  0.15780526817E+03 -0.70439972479E+02  0.19400372479E+03  0.80062420110E+02 0.  0.
          5    1    3    3  501    0  0.11020178800E+03 -0.17934050585E+03 -0.47366013192E+03  0.51834685461E+03  0.47000000000E+01 0. -1.
        -13    1    4    4    0    0  0.26319170679E+02  0.11720868305E+02 -0.23323297470E+03  0.23500574033E+03  0.00000000000E+00 0.  1.
         14    1    4    4    0    0  0.32491579311E+02 -0.58975985534E+02 -0.26634511514E+03  0.27472457108E+03  0.00000000000E+00 0. -1.
         -5    1    5    5    0  502 -0.13209151779E+03  0.68790354907E+02 -0.29299183717E+02  0.15185787489E+03  0.47000000000E+01 0.  1.
         11    1    6    6    0    0  0.17163962431E+02  0.60572819586E+02 -0.12257588171E+01  0.62969600313E+02  0.00000000000E+00 0. -1.
        -12    1    6    6    0    0 -0.54084982633E+02  0.97232448582E+02 -0.69214213662E+02  0.13103412447E+03  0.00000000000E+00 0.  1.
</event>
<event>
12    1  0.8406581E-002  0.2052563E+03  0.7818608E-02  0.1145535E+00
         21   -1    0    0  503  502  0.00000000000E+00  0.00000000000E+00  0.95999966865E+02  0.95999966865E+02  0.00000000000E+00 0. -1.
         21   -1    0    0  501  503 -0.00000000000E+00 -0.00000000000E+00 -0.49891858685E+03  0.49891858685E+03  0.00000000000E+00 0.  1.
          6    2    1    2  501    0  0.50019770393E+02  0.97706740807E+02 -0.30639890918E+03  0.36879595379E+03  0.17344042020E+03 0.  0.
         24    2    3    3    0    0 -0.18695243354E+02  0.56584620773E+02 -0.25583289433E+03  0.27397088470E+03  0.77834724972E+02 0.  0.
         -6    2    1    2    0  502 -0.50019770393E+02 -0.97706740807E+02 -0.96519710807E+02  0.22612259992E+03  0.17253055089E+03 0.  0.
        -24    2    5    5    0    0 -0.11106424436E+02 -0.80700966020E+02  0.66816689842E+01  0.11442631681E+03  0.80079577284E+02 0.  0.
          5    1    3    3  501    0  0.68715013748E+02  0.41122120034E+02 -0.50566014845E+02  0.94825069089E+02  0.47000000000E+01 0. -1.
        -13    1    4    4    0    0  0.27916400802E+02  0.33250491777E+02 -0.14737607200E+03  0.15363797459E+03  0.00000000000E+00 0.  1.
         14    1    4    4    0    0 -0.46611644156E+02  0.23334128996E+02 -0.10845682233E+03  0.12033291011E+03  0.00000000000E+00 0. -1.
         -5    1    5    5    0  502 -0.38913345957E+02 -0.17005774787E+02 -0.10320137979E+03  0.11169628311E+03  0.47000000000E+01 0.  1.
         11    1    6    6    0    0 -0.45119642503E+02 -0.52674946233E+02  0.10673399384E+02  0.70173738355E+02  0.00000000000E+00 0. -1.
        -12    1    6    6    0    0  0.34013218067E+02 -0.28026019787E+02 -0.39917303998E+01  0.44252578456E+02  0.00000000000E+00 0.  1.
</event>
<event>
12    1  0.8406581E-002  0.1990943E+03  0.7818608E-02  0.1154076E+00
         21   -1    0    0  501  502  0.00000000000E+00  0.00000000000E+00  0.68200969891E+02  0.68200969891E+02  0.00000000000E+00 0.  1.
         21   -1    0    0  502  503 -0.00000000000E+00 -0.00000000000E+00 -0.15443547239E+04  0.15443547239E+04  0.00000000000E+00 0.  1.
         -6    2    1    2    0  503 -0.58446417371E+02  0.21141292067E+02 -0.14004146823E+04  0.14144963145E+04  0.18914439877E+03 0.  0.
        -24    2    3    3    0    0 -0.11092695378E+03  0.32758541225E+02 -0.11357948938E+04  0.11444317118E+04  0.79473210466E+02 0.  0.
          6    2    1    2  501    0  0.58446417371E+02 -0.21141292067E+02 -0.75739071728E+02  0.19805937924E+03  0.17212836137E+03 0.  0.
         24    2    5    5    0    0 -0.21358751653E+02 -0.93063017809E+01 -0.81815429215E+02  0.11701652565E+03  0.80351100137E+02 0.  0.
          5    1    5    5  501    0  0.79805169023E+02 -0.11834990286E+02  0.60763574869E+01  0.81042853591E+02  0.47000000000E+01 0. -1.
        -13    1    6    6    0    0 -0.77678225186E+01 -0.31521898153E+01  0.16003604319E+02  0.18066286793E+02  0.00000000000E+00 0.  1.
         14    1    6    6    0    0 -0.13590929134E+02 -0.61541119657E+01 -0.97819033533E+02  0.98950238859E+02  0.00000000000E+00 0. -1.
         -5    1    3    3    0  503  0.52480536414E+02 -0.11617249159E+02 -0.26461978847E+03  0.27006460270E+03  0.47000000000E+01 0.  1.
         11    1    4    4    0    0 -0.24203322213E+02  0.15698436151E+02 -0.81811471699E+02  0.86748824807E+02  0.00000000000E+00 0. -1.
        -12    1    4    4    0    0 -0.86723631571E+02  0.17060105074E+02 -0.10539834221E+04  0.10576828870E+04  0.00000000000E+00 0.  1.
</event>
<event>
12    1  0.8406581E-002  0.1743297E+03  0.7818608E-02  0.1174393E+00
         21   -1    0    0  501  502  0.00000000000E+00  0.00000000000E+00  0.26111451616E+03  0.26111451616E+03  0.00000000000E+00 0.  1.
         21   -1    0    0  502  503 -0.00000000000E+00 -0.00000000000E+00 -0.10010050741E+04  0.10010050741E+04  0.00000000000E+00 0.  1.
         -6    2    1    2    0  503 -0.58960580386E+00  0.25135702454E+02 -0.96451096516E+03  0.98013889478E+03  0.17250710124E+03 0.  0.
        -24    2    3    3    0    0  0.56025823290E+02 -0.43412867840E+01 -0.74269817161E+03  0.74927702030E+03  0.81594971617E+02 0.  0.
          6    2    1    2  501    0  0.58960580386E+00 -0.25135702454E+02  0.22462040721E+03  0.28198069550E+03  0.16860199918E+03 0.  0.
         24    2    5    5    0    0 -0.32922427082E+02 -0.73802793774E+02  0.14954848922E+03  0.18632806879E+03  0.76306356342E+02 0.  0.
          5    1    5    5  501    0  0.33512032886E+02  0.48667091320E+02  0.75071917984E+02  0.95652626705E+02  0.47000000000E+01 0. -1.
        -11    1    6    6    0    0 -0.17357275969E+02  0.13359611284E+02  0.21863223382E+02  0.30947613469E+02  0.00000000000E+00 0.  1.
         12    1    6    6    0    0 -0.15565151113E+02 -0.87162405058E+02  0.12768526584E+03  0.15538045533E+03  0.00000000000E+00 0. -1.
         -5    1    3    3    0  503 -0.56615429093E+02  0.29476989238E+02 -0.22181279355E+03  0.23086187448E+03  0.47000000000E+01 0.  1.
         11    1    4    4    0    0 -0.12228985692E+02  0.14703453547E+02 -0.32887474167E+03  0.32943031941E+03  0.00000000000E+00 0. -1.
        -12    1    4    4    0    0  0.68254808982E+02 -0.19044740331E+02 -0.41382342994E+03  0.41984670089E+03  0.00000000000E+00 0.  1.
</event>
<event>
12    1  0.8406581E-002  0.2471186E+03  0.7818608E-02  0.1115154E+00
         21   -1    0    0  501  502  0.00000000000E+00  0.00000000000E+00  0.74523433680E+03  0.74523433680E+03  0.00000000000E+00 0. -1.
         21   -1    0    0  502  503 -0.00000000000E+00 -0.00000000000E+00 -0.12751269987E+03  0.12751269987E+03  0.00000000000E+00 0. -1.
         -6    2    1    2    0  503  0.12152035291E+03 -0.12836587065E+03  0.47875868072E+02  0.25162562008E+03  0.17256407801E+03 0.  0.
        -24    2    3    3    0    0  0.15392090671E+03 -0.11974068183E+03  0.28614278617E+02  0.21267323123E+03  0.79885229772E+02 0.  0.
          6    2    1    2  501    0 -0.12152035291E+03  0.12836587065E+03  0.56984576886E+03  0.62112141659E+03  0.17269227240E+03 0.  0.
         24    2    5    5    0    0 -0.55535429068E+02  0.14826308924E+03  0.37575937419E+03  0.41510799936E+03  0.77803703852E+02 0.  0.
          5    1    5    5  501    0 -0.65984923840E+02 -0.19897218594E+02  0.19408639467E+03  0.20601341723E+03  0.47000000000E+01 0. -1.
        -13    1    6    6    0    0  0.15444291499E+02  0.59908817816E+02  0.15661264193E+03  0.16838976277E+03  0.00000000000E+00 0.  1.
         14    1    6    6    0    0 -0.70979720567E+02  0.88354271425E+02  0.21914673225E+03  0.24671823659E+03  0.00000000000E+00 0. -1.
         -5    1    3    3    0  503 -0.32400553800E+02 -0.86251888199E+01  0.19261589455E+02  0.38952388849E+02  0.47000000000E+01 0.  1.
         13    1    4    4    0    0  0.97032020603E+02 -0.10373077069E+03 -0.94883343501E+01  0.14235629350E+03  0.00000000000E+00 0. -1.
        -14    1    4    4    0    0  0.56888886104E+02 -0.16009911133E+02  0.38102612967E+02  0.70316937729E+02  0.00000000000E+00 0.  1.
</event>
<event>
12    1  0.8406581E-002  0.1791445E+03  0.7818608E-02  0.1169871E+00
         21   -1    0    0  503  502  0.00000000000E+00  0.00000000000E+00  0.83442554431E+02  0.83442554431E+02  0.00000000000E+00 0. -1.
         21   -1    0    0  501  503 -0.00000000000E+00 -0.00000000000E+00 -0.69842510500E+03  0.69842510500E+03  0.00000000000E+00 0. -1.
          6    2    1    2  501    0 -0.36387117846E+02  0.29079908703E+02 -0.57161037220E+03  0.59754754961E+03  0.16779449637E+03 0.  0.
         24    2    3    3    0    0  0.33112544316E+02  0.29662929671E+02 -0.43231938986E+03  0.44180863118E+03  0.79488878153E+02 0.  0.
         -6    2    1    2    0  502  0.36387117846E+02 -0.29079908703E+02 -0.43372178375E+02  0.18432010982E+03  0.17298292861E+03 0.  0.
        -24    2    5    5    0    0 -0.38344892249E+02 -0.37535446147E+02 -0.50942710854E+02  0.10858522745E+03  0.79475476415E+02 0.  0.
          5    1    3    3  501    0 -0.69499662162E+02 -0.58302096776E+00 -0.13929098234E+03  0.15573891843E+03  0.47000000000E+01 0. -1.
        -13    1    4    4    0    0  0.45021289334E+02 -0.87984092563E+01 -0.30038171727E+03  0.30386428643E+03  0.00000000000E+00 0.  1.
         14    1    4    4    0    0 -0.11908745018E+02  0.38461338927E+02 -0.13193767259E+03  0.13794434475E+03  0.00000000000E+00 0. -1.
         -5    1    5    5    0  502  0.74732010095E+02  0.84555374436E+01  0.75705324786E+01  0.75734882375E+02  0.47000000000E+01 0.  1.
         13    1    6    6    0    0  0.73323346922E+01 -0.40512667685E+02 -0.47237801058E+02  0.62661385428E+02  0.00000000000E+00 0. -1.
        -14    1    6    6    0    0 -0.45677226941E+02  0.29772215382E+01 -0.37049097954E+01  0.45923842018E+02  0.00000000000E+00 0.  1.
</event>
<event>
12    1  0.8406581E-002  0.1995331E+03  0.7818608E-02  0.1150393E+00
         21   -1    0    0  503  502  0.00000000000E+00  0.00000000000E+00  0.22170224916E+03  0.22170224916E+03  0.00000000000E+00 0. -1.
         21   -1    0    0  501  503 -0.00000000000E+00 -0.00000000000E+00 -0.42030702456E+03  0.42030702456E+03  0.00000000000E+00 0. -1.
          6    2    1    2  501    0  0.42444622271E+02  0.89038996594E+02 -0.34291998606E+03  0.39674624897E+03  0.17344734174E+03 0.  0.
         24    2    3    3    0    0  0.48255301141E+02  0.10290575835E+03 -0.15454794026E+03  0.20771670443E+03  0.79642917257E+02 0.  0.
         -6    2    1    2    0  502 -0.42444622271E+02 -0.89038996594E+02  0.14431521066E+03  0.24526302475E+03  0.17203947921E+03 0.  0.
        -24    2    5    5    0    0  0.27694195088E+01 -0.23617949738E+02  0.14363640698E+03  0.16559638355E+03  0.78900365031E+02 0.  0.
          5    1    3    3  501    0 -0.58106788694E+01 -0.13866761759E+02 -0.18837204580E+03  0.18902954454E+03  0.47000000000E+01 0. -1.
        -11    1    4    4    0    0  0.17342455013E+02 -0.83784573905E+01 -0.73499934130E+01  0.20615084217E+02  0.00000000000E+00 0.  1.
         12    1    4    4    0    0  0.30912846128E+02  0.11128421574E+03 -0.14719794685E+03  0.18710162021E+03  0.00000000000E+00 0. -1.
         -5    1    5    5    0  502 -0.45214041780E+02 -0.65421046855E+02  0.67880368522E+00  0.79666641200E+02  0.47000000000E+01 0.  1.
         11    1    6    6    0    0  0.86442143310E+01 -0.47488687606E+02  0.53003384088E+02  0.71688608696E+02  0.00000000000E+00 0. -1.
        -12    1    6    6    0    0 -0.58747948223E+01  0.23870737868E+02  0.90633022888E+02  0.93907774855E+02  0.00000000000E+00 0.  1.
</event>
<event>
12    1  0.8406581E-002  0.1902743E+03  0.7818608E-02  0.1158269E+00
         21   -1    0    0  503  502  0.00000000000E+00  0.00000000000E+00  0.15045571465E+03  0.15045571465E+03  0.00000000000E+00 0. -1.
         21   -1    0    0  501  503 -0.00000000000E+00 -0.00000000000E+00 -0.35982441994E+03  0.35982441994E+03  0.00000000000E+00 0.  1.
          6    2    1    2  501    0  0.41228784640E+02 -0.69023764133E+02 -0.25167346761E+03  0.31535961484E+03  0.17218611928E+03 0.  0.
         24    2    3    3    0    0 -0.42744345357E+02 -0.14688572135E+02 -0.11827211934E+03  0.14856090570E+03  0.77712388182E+02 0.  0.
         -6    2    1    2    0  502 -0.41228784640E+02  0.69023764133E+02  0.42304762313E+02  0.19492051975E+03  0.17245353985E+03 0.  0.
        -24    2    5    5    0    0 -0.71057875232E+02  0.88625288667E+02  0.63850397292E+02  0.15296460484E+03  0.80110134662E+02 0.  0.
          5    1    3    3  501    0  0.83973129997E+02 -0.54335191999E+02 -0.13340134827E+03  0.16679870914E+03  0.47000000000E+01 0. -1.
        -11    1    4    4    0    0 -0.16442980822E+02  0.32181402692E+02 -0.46178011714E+02  0.58638068380E+02  0.00000000000E+00 0.  1.
         12    1    4    4    0    0 -0.26301364535E+02 -0.46869974827E+02 -0.72094107627E+02  0.89922837317E+02  0.00000000000E+00 0. -1.
         -5    1    5    5    0  502  0.29829090592E+02 -0.19601524534E+02 -0.21545634978E+02  0.41955914914E+02  0.47000000000E+01 0.  1.
         13    1    6    6    0    0 -0.88802301537E+02  0.68641552481E+02  0.50157188906E+02  0.12293597962E+03  0.00000000000E+00 0. -1.
        -14    1    6    6    0    0  0.17744426305E+02  0.19983736186E+02  0.13693208386E+02  0.30028625223E+02  0.00000000000E+00 0.  1.
</event>
<event>
12    1  0.8406581E-002  0.2479275E+03  0.7818608E-02  0.1114688E+00
         21   -1    0    0  503  502  0.00000000000E+00  0.00000000000E+00  0.15851754013E+03  0.15851754013E+03  0.00000000000E+00 0.  1.
         21   -1    0    0  501  503 -0.00000000000E+00 -0.00000000000E+00 -0.40093133304E+03  0.40093133304E+03  0.00000000000E+00 0. -1.
          6    2    1    2  501    0  0.65999490173E+02  0.16542513048E+03 -0.17322580599E+03  0.30244875151E+03  0.17247220335E+03 0.  0.
         24    2    3    3    0    0  0.80308438990E+02  0.18482379534E+03 -0.13020231042E+03  0.25290921794E+03  0.80007188318E+02 0.  0.
         -6    2    1    2    0  502 -0.65999490173E+02 -0.16542513048E+03 -0.69187986910E+02  0.25700012166E+03  0.17187401928E+03 0.  0.
        -24    2    5    5    0    0  0.13485410261E+02 -0.94586156295E+02 -0.82849927225E+02  0.14955363138E+03  0.79835962860E+02 0.  0.
          5    1    3    3  501    0 -0.14308948817E+02 -0.19398664861E+02 -0.43023495571E+02  0.49539533564E+02  0.47000000000E+01 0. -1.
        -13    1    4    4    0    0  0.18236639938E+02  0.21355451489E+02  0.89137453709E+01  0.29463285646E+02  0.00000000000E+00 0.  1.
         14    1    4    4    0    0  0.62071799051E+02  0.16346834385E+03 -0.13911605579E+03  0.22344593230E+03  0.00000000000E+00 0. -1.
         -5    1    5    5    0  502 -0.79484900434E+02 -0.70838974187E+02  0.13661940315E+02  0.10744649028E+03  0.47000000000E+01 0.  1.
         13    1    6    6    0    0 -0.20903472396E+02 -0.85720611345E+02 -0.51374867761E+02  0.10209973264E+03  0.00000000000E+00 0. -1.
        -14    1    6    6    0    0  0.34388882657E+02 -0.88655449501E+01 -0.31475059464E+02  0.47453898743E+02  0.00000000000E+00 0.  1.
</event>
<event>
12    1  0.8406581E-002  0.1870374E+03  0.7818608E-02  0.1161297E+00
         21   -1    0    0  501  502  0.00000000000E+00  0.00000000000E+00  0.67910833522E+03  0.67910833522E+03  0.00000000000E+00 0.  1.
         21   -1    0    0  502  503 -0.00000000000E+00 -0.00000000000E+00 -0.18852639282E+03  0.18852639282E+03  0.00000000000E+00 0. -1.
         -6    2    1    2    0  503  0.59775046875E+02 -0.39396072110E+02 -0.12486393999E+03  0.22439557276E+03  0.17215476420E+03 0.  0.
        -24    2    3    3    0    0  0.31792152180E+02  0.44277414561E+02 -0.81952301796E+02  0.12617239088E+03  0.78943410549E+02 0.  0.
          6    2    1    2  501    0 -0.59775046875E+02  0.39396072110E+02  0.61544588238E+03  0.64323915528E+03  0.17279429972E+03 0.  0.
         24    2    5    5    0    0 -0.69359322266E+02  0.49338531752E+02  0.61755997476E+03  0.62849906623E+03  0.79910872408E+02 0.  0.
          5    1    5    5  501    0  0.95842753903E+01 -0.99424596423E+01 -0.21140923786E+01  0.14740089046E+02  0.47000000000E+01 0. -1.
        -13    1    6    6    0    0 -0.63693647791E+02  0.13789315453E+01  0.43583205603E+03  0.44046380474E+03  0.00000000000E+00 0.  1.
         14    1    6    6    0    0 -0.56656744746E+01  0.47959600207E+02  0.18172791873E+03  0.18803526149E+03  0.00000000000E+00 0. -1.
         -5    1    3    3    0  503  0.27982894695E+02 -0.83673486671E+02 -0.42911638192E+02  0.98223181884E+02  0.47000000000E+01 0.  1.
         13    1    4    4    0    0  0.56307349329E+02  0.16190062636E+02 -0.47828062631E+02  0.75631734687E+02  0.00000000000E+00 0. -1.
        -14    1    4    4    0    0 -0.24515197149E+02  0.28087351925E+02 -0.34124239165E+02  0.50540656189E+02  0.00000000000E+00 0.  1.
</event>
<event>
12    1  0.8406581E-002  0.1787532E+03  0.7818608E-02  0.1169049E+00
         21   -1    0    0  503  502  0.00000000000E+00  0.00000000000E+00  0.30480193857E+03  0.30480193857E+03  0.00000000000E+00 0. -1.
         21   -1    0    0  501  503 -0.00000000000E+00 -0.00000000000E+00 -0.40815732866E+03  0.40815732866E+03  0.00000000000E+00 0. -1.
          6    2    1    2  501    0 -0.49936409230E+02 -0.62587329744E+01 -0.35902311894E+03  0.40099979959E+03  0.17137801094E+03 0.  0.
         24    2    3    3    0    0 -0.26477171962E+02  0.26509102016E+02 -0.74503269868E+02  0.11360164139E+03  0.77141574912E+02 0.  0.
         -6    2    1    2    0  502  0.49936409230E+02  0.62587329744E+01  0.25566772885E+03  0.31195946764E+03  0.17152231683E+03 0.  0.
        -24    2    5    5    0    0  0.44265775190E+02 -0.59608934857E+02  0.19363618419E+03  0.22118112061E+03  0.76898844727E+02 0.  0.
          5    1    3    3  501    0 -0.23459237269E+02 -0.32767834990E+02 -0.28451984907E+03  0.28739815821E+03  0.47000000000E+01 0. -1.
        -13    1    4    4    0    0  0.13643989833E+02 -0.10703532866E+02  0.41062560731E+01  0.17820926275E+02  0.00000000000E+00 0.  1.
         14    1    4    4    0    0 -0.40121161794E+02  0.37212634882E+02 -0.78609525941E+02  0.95780715111E+02  0.00000000000E+00 0. -1.
         -5    1    5    5    0  502  0.56706340402E+01  0.65867667831E+02  0.62031544661E+02  0.90778347027E+02  0.47000000000E+01 0.  1.
         13    1    6    6    0    0  0.33237513508E+02  0.11292790965E+02  0.66297656724E+02  0.75017589398E+02  0.00000000000E+00 0. -1.
        -14    1    6    6    0    0  0.11028261682E+02 -0.70901725822E+02  0.12733852746E+03  0.14616353121E+03  0.00000000000E+00 0.  1.
</event>
<event>
12    1  0.8406581E-002  0.1994234E+03  0.7818608E-02  0.1150558E+00
         21   -1    0    0  501  502  0.00000000000E+00  0.00000000000E+00  0.61588822275E+03  0.61588822275E+03  0.00000000000E+00 0. -1.
         21   -1    0    0  502  503 -0.00000000000E+00 -0.00000000000E+00 -0.95262928200E+02  0.95262928200E+02  0.00000000000E+00 0. -1.
         -6    2    1    2    0  503 -0.10039544017E+03 -0.42939090832E+01  0.56154746809E+02  0.20567852738E+03  0.17044828827E+03 0.  0.
        -24    2    3    3    0    0 -0.13501097502E+03  0.15047795383E+02  0.51581748259E+02  0.16548724598E+03  0.79189344653E+02 0.  0.
          6    2    1    2  501    0  0.10039544017E+03  0.42939090832E+01  0.46447054774E+03  0.50547262358E+03  0.17225562807E+03 0.  0.
         24    2    5    5    0    0  0.79560375972E+02  0.32514728174E+02  0.45348612825E+03  0.46841507371E+03  0.79849557259E+02 0.  0.
          5    1    5    5  501    0  0.20835064200E+02 -0.28220819091E+02  0.10984419498E+02  0.37057549866E+02  0.47000000000E+01 0. -1.
        -11    1    6    6    0    0  0.24379804132E+02 -0.11926844906E+02  0.36677501175E+02  0.45627443183E+02  0.00000000000E+00 0.  1.
         12    1    6    6    0    0  0.55180571840E+02  0.44441573080E+02  0.41680862707E+03  0.42278763053E+03  0.00000000000E+00 0. -1.
         -5    1    3    3    0  503  0.34615534850E+02 -0.19341704466E+02  0.45729985498E+01  0.40191281397E+02  0.47000000000E+01 0.  1.
         13    1    4    4    0    0 -0.51571013072E+02  0.45105728889E+02  0.24348996888E+02  0.72711552159E+02  0.00000000000E+00 0. -1.
        -14    1    4    4    0    0 -0.83439961950E+02 -0.30057933506E+02  0.27232751371E+02  0.92775693822E+02  0.00000000000E+00 0.  1.
</event>
<event>
12    1  0.8406581E-002  0.1839550E+03  0.7818608E-02  0.1164429E+00
         21   -1    0    0  503  502  0.00000000000E+00  0.00000000000E+00  0.59090806893E+03  0.59090806893E+03  0.00000000000E+00 0. -1.
         21   -1    0    0  501  503 -0.00000000000E+00 -0.00000000000E+00 -0.73330750731E+02  0.73330750731E+02  0.00000000000E+00 0. -1.
          6    2    1    2  501    0  0.21845898280E+02  0.59569875687E+02  0.10174981345E+03  0.21022000233E+03  0.17266618511E+03 0.  0.
         24    2    3    3    0    0 -0.94384663650E+01  0.34207533032E+02  0.13287255223E+03  0.15910567200E+03  0.80001623505E+02 0.  0.
         -6    2    1    2    0  502 -0.21845898280E+02 -0.59569875687E+02  0.41582750475E+03  0.45401881734E+03  0.17086474016E+03 0.  0.
        -24    2    5    5    0    0  0.32234034579E+01  0.15163178198E+02  0.85730580320E+02  0.11460819766E+03  0.74464718264E+02 0.  0.
          5    1    3    3  501    0  0.31284364645E+02  0.25362342654E+02 -0.31122738772E+02  0.51114330327E+02  0.47000000000E+01 0. -1.
        -13    1    4    4    0    0  0.25171670496E+02  0.44247058111E+02  0.86627232747E+02  0.10047732381E+03  0.00000000000E+00 0.  1.
         14    1    4    4    0    0 -0.34610136861E+02 -0.10039525078E+02  0.46245319479E+02  0.58628348186E+02  0.00000000000E+00 0. -1.
         -5    1    5    5    0  502 -0.25069301738E+02 -0.74733053885E+02  0.33009692443E+03  0.33941061967E+03  0.47000000000E+01 0.  1.
         13    1    6    6    0    0 -0.38579432209E+01 -0.30025589818E+02  0.32149831411E+02  0.44159160200E+02  0.00000000000E+00 0. -1.
        -14    1    6    6    0    0  0.70813466788E+01  0.45188768016E+02  0.53580748909E+02  0.70449037461E+02  0.00000000000E+00 0.  1.
</event>
<event>
12    1  0.8406581E-002  0.2416526E+03  0.7818608E-02  0.1120557E+00
         21   -1    0    0  503  502  0.00000000000E+00  0.00000000000E+00  0.14734930430E+04  0.14734930430E+04  0.00000000000E+00 0. -1.
         21   -1    0    0  501  503 -0.00000000000E+00 -0.00000000000E+00 -0.57203250898E+02  0.57203250898E+02  0.00000000000E+00 0. -1.
          6    2    1    2  501    0  0.15815176071E+03  0.26983993939E+02  0.25213985913E+03  0.34172990832E+03  0.16572479095E+03 0.  0.
         24    2    3    3    0    0  0.92245877929E+02  0.37471051773E+02  0.24477119585E+03  0.27442499791E+03  0.74045657824E+02 0.  0.
         -6    2    1    2    0  502 -0.15815176071E+03 -0.26983993939E+02  0.11641499330E+04  0.11889663856E+04  0.18070939171E+03 0.  0.
        -24    2    5    5    0    0 -0.98579220815E+02 -0.83759966607E+02  0.89521479696E+03  0.90768255034E+03  0.75792379046E+02 0.  0.
          5    1    3    3  501    0  0.65905882783E+02 -0.10487057834E+02  0.73686632816E+01  0.67304910415E+02  0.47000000000E+01 0. -1.
        -11    1    4    4    0    0  0.50279743938E+02 -0.92499584536E+00  0.18582776142E+03  0.19251198712E+03  0.00000000000E+00 0.  1.
         12    1    4    4    0    0  0.41966133991E+02  0.38396047619E+02  0.58943434429E+02  0.81913010793E+02  0.00000000000E+00 0. -1.
         -5    1    5    5    0  502 -0.59572539896E+02  0.56775972667E+02  0.26893513601E+03  0.28128383524E+03  0.47000000000E+01 0.  1.
         13    1    6    6    0    0 -0.30858304249E+02  0.75672468299E+01  0.30230058246E+03  0.30396568938E+03  0.00000000000E+00 0. -1.
        -14    1    6    6    0    0 -0.67720916566E+02 -0.91327213437E+02  0.59291421450E+03  0.60371686096E+03  0.00000000000E+00 0.  1.
</event>
<event>
12    1  0.8406581E-002  0.2032474E+03  0.7818608E-02  0.1147882E+00
         21   -1    0    0  501  502  0.00000000000E+00  0.00000000000E+00  0.30155120258E+03  0.30155120258E+03  0.00000000000E+00 0. -1.
         21   -1    0    0  502  503 -0.00000000000E+00 -0.00000000000E+00 -0.20426946766E+03  0.20426946766E+03  0.00000000000E+00 0. -1.
         -6    2    1    2    0  503 -0.17875169010E+02  0.10533927501E+03 -0.99104279905E+02  0.22612204609E+03  0.17289776431E+03 0.  0.
        -24    2    3    3    0    0 -0.39906643624E+02  0.42823214399E+02 -0.12214819628E+03  0.15578886906E+03  0.76965069824E+02 0.  0.
          6    2    1    2  501    0  0.17875169010E+02 -0.10533927501E+03  0.19638601482E+03  0.27969862415E+03  0.16807132119E+03 0.  0.
         24    2    5    5    0    0  0.47089811134E+02 -0.12240255402E+03  0.19130899941E+03  0.24516578629E+03  0.79418473707E+02 0.  0.
          5    1    5    5  501    0 -0.29214642124E+02  0.17063279015E+02  0.50770154105E+01  0.34532837860E+02  0.47000000000E+01 0. -1.
        -11    1    6    6    0    0  0.19447949269E+01  0.10176911850E+02  0.28938006768E+02  0.30736948414E+02  0.00000000000E+00 0.  1.
         12    1    6    6    0    0  0.45145016207E+02 -0.13257946587E+03  0.16237099265E+03  0.21442883788E+03  0.00000000000E+00 0. -1.
         -5    1    3    3    0  503  0.22031474614E+02  0.62516060611E+02  0.23043916375E+02  0.70333177021E+02  0.47000000000E+01 0.  1.
         13    1    4    4    0    0 -0.50961938784E+02 -0.10765947393E+01 -0.57152927533E+02  0.76581560355E+02  0.00000000000E+00 0. -1.
        -14    1    4    4    0    0  0.11055295160E+02  0.43899809138E+02 -0.64995268747E+02  0.79207308709E+02  0.00000000000E+00 0.  1.
</event>
<event>
12    1  0.8406581E-002  0.2051515E+03  0.7818608E-02  0.1148283E+00
         21   -1    0    0  501  502  0.00000000000E+00  0.00000000000E+00  0.46175865533E+03  0.46175865533E+03  0.00000000000E+00 0. -1.
         21   -1    0    0  502  503 -0.00000000000E+00 -0.00000000000E+00 -0.27003245607E+03  0.27003245607E+03  0.00000000000E+00 0. -1.
         -6    2    1    2    0  503 -0.70750344185E+02  0.48304111048E+02 -0.20771863542E+03  0.28274400107E+03  0.17163403011E+03 0.  0.
        -24    2    3    3    0    0 -0.61857688808E+02 -0.15728035142E+02 -0.18950466516E+03  0.21541619271E+03  0.80114750267E+02 0.  0.
          6    2    1    2  501    0  0.70750344185E+02 -0.48304111048E+02  0.39944483468E+03  0.44904711033E+03  0.18640877929E+03 0.  0.
         24    2    5    5    0    0 -0.25509928065E+02  0.13132665218E+02  0.22499456786E+03  0.24049135499E+03  0.79939432907E+02 0.  0.
          5    1    5    5  501    0  0.96260272249E+02 -0.61436776267E+02  0.17445026681E+03  0.20855575533E+03  0.47000000000E+01 0. -1.
        -13    1    6    6    0    0  0.11709005647E+02  0.22718227323E+02  0.17779780978E+03  0.17962538748E+03  0.00000000000E+00 0.  1.
         14    1    6    6    0    0 -0.37218933712E+02 -0.95855621049E+01  0.47196758085E+02  0.60865967513E+02  0.00000000000E+00 0. -1.
         -5    1    3    3    0  503 -0.88926553768E+01  0.64032146191E+02 -0.18213970258E+02  0.67327808356E+02  0.47000000000E+01 0.  1.
         11    1    4    4    0    0  0.59804615454E+01 -0.20628048901E+02 -0.10382041238E+03  0.10601867925E+03  0.00000000000E+00 0. -1.
        -12    1    4    4    0    0 -0.67838150353E+02  0.49000137586E+01 -0.85684252776E+02  0.10939751346E+03  0.00000000000E+00 0.  1.
</event>
<event>
12    1  0.8406581E-002  0.1836828E+03  0.7818608E-02  0.1164330E+00
         21   -1    0    0  501  502  0.00000000000E+00  0.00000000000E+00  0.70481453556E+02  0.70481453556E+02  0.00000000000E+00 0.  1.
         21   -1    0    0  502  503 -0.00000000000E+00 -0.00000000000E+00 -0.47925384785E+03  0.47925384785E+03  0.00000000000E+00 0.  1.
         -6    2    1    2    0  503 -0.58951117606E+02 -0.30232608217E+02 -0.19147858546E+03  0.26520766457E+03  0.17111929111E+03 0.  0.
        -24    2    3    3    0    0 -0.31926906998E+01 -0.51713310347E+02 -0.18014628554E+03  0.20420820755E+03  0.81017578938E+02 0.  0.
          6    2    1    2  501    0  0.58951117606E+02  0.30232608217E+02 -0.21729380883E+03  0.28452763684E+03  0.17131880195E+03 0.  0.
         24    2    5    5    0    0  0.51295710181E+02  0.80821676157E+02 -0.12521460055E+03  0.17908319812E+03  0.85021776270E+02 0.  0.
          5    1    5    5  501    0  0.76554074256E+01 -0.50589067939E+02 -0.92079208288E+02  0.10544443872E+03  0.47000000000E+01 0. -1.
        -13    1    6    6    0    0  0.46225346861E+02  0.61005884140E+02 -0.13592544512E+03  0.15599431792E+03  0.00000000000E+00 0.  1.
         14    1    6    6    0    0  0.50703633192E+01  0.19815792017E+02  0.10710844575E+02  0.23088880201E+02  0.00000000000E+00 0. -1.
         -5    1    3    3    0  503 -0.55758426906E+02  0.21480702129E+02 -0.11332299927E+02  0.60999457019E+02  0.47000000000E+01 0.  1.
         13    1    4    4    0    0 -0.28852961402E+02 -0.56883331960E+02 -0.15624296837E+03  0.16876039820E+03  0.00000000000E+00 0. -1.
        -14    1    4    4    0    0  0.25660270702E+02  0.51700216133E+01 -0.23903317171E+02  0.35447809350E+02  0.00000000000E+00 0.  1.
</event>
<event>
12    1  0.8406581E-002  0.1826971E+03  0.7818608E-02  0.1166981E+00
         21   -1    0    0  503  502  0.00000000000E+00  0.00000000000E+00  0.15183017646E+04  0.15183017646E+04  0.00000000000E+00 0. -1.
         21   -1    0    0  501  503 -0.00000000000E+00 -0.00000000000E+00 -0.21530830892E+02  0.21530830892E+02  0.00000000000E+00 0. -1.
          6    2    1    2  501    0  0.12419417068E+02  0.48084946176E+02  0.62690249144E+03  0.65098539548E+03  0.16825233248E+03 0.  0.
         24    2    3    3    0    0 -0.48343515567E+02  0.51308342577E+02  0.27662818303E+03  0.29543412576E+03  0.76082386285E+02 0.  0.
         -6    2    1    2    0  502 -0.12419417068E+02 -0.48084946176E+02  0.86986844230E+03  0.88884720004E+03  0.17581761614E+03 0.  0.
        -24    2    5    5    0    0  0.28239915280E+02  0.29054502900E+02  0.33136628230E+03  0.34331045313E+03  0.80104913874E+02 0.  0.
          5    1    3    3  501    0  0.60762932635E+02 -0.32233964005E+01  0.35027430841E+03  0.35555126972E+03  0.47000000000E+01 0. -1.
        -11    1    4    4    0    0  0.70252289447E+01  0.82003002002E+01  0.15220539285E+03  0.15258794310E+03  0.00000000000E+00 0.  1.
         12    1    4    4    0    0 -0.55368744512E+02  0.43108042377E+02  0.12442279018E+03  0.14284618266E+03  0.00000000000E+00 0. -1.
         -5    1    5    5    0  502 -0.40659332348E+02 -0.77139449077E+02  0.53850215999E+03  0.54553674691E+03  0.47000000000E+01 0.  1.
         11    1    6    6    0    0  0.51639685946E+02 -0.10275464490E+01  0.19287414120E+03  0.19967009631E+03  0.00000000000E+00 0. -1.
        -12    1    6    6    0    0 -0.23399770666E+02  0.30082049349E+02  0.13849214110E+03  0.14364035682E+03  0.00000000000E+00 0.  1.
</event>
<event>
12    1  0.8406581E-002  0.1829020E+03  0.7818608E-02  0.1165187E+00
         21   -1    0    0  503  502  0.00000000000E+00  0.00000000000E+00  0.89447855532E+03  0.89447855532E+03  0.00000000000E+00 0.  1.
         21   -1    0    0  501  503 -0.00000000000E+00 -0.00000000000E+00 -0.44629022705E+02  0.44629022705E+02  0.00000000000E+00 0.  1.
          6    2    1    2  501    0 -0.59382833734E+02  0.22911614489E+02  0.23478124025E+03  0.29761614844E+03  0.17146975832E+03 0.  0.
         24    2    3    3    0    0 -0.18676317820E+01  0.68066754026E+02  0.15455806919E+03  0.18896610354E+03  0.84755061690E+02 0.  0.
         -6    2    1    2    0  502  0.59382833734E+02 -0.22911614489E+02  0.61506829237E+03  0.64149142959E+03  0.17073660105E+03 0.  0.
        -24    2    5    5    0    0  0.38334791681E+02 -0.80784714250E+02  0.42956748322E+03  0.44597939429E+03  0.79835275320E+02 0.  0.
          5    1    3    3  501    0 -0.57515201952E+02 -0.45155139538E+02  0.80223171061E+02  0.10865004490E+03  0.47000000000E+01 0. -1.
        -13    1    4    4    0    0  0.24037829641E+02  0.18342507480E+02  0.68896302049E+01  0.31011801606E+02  0.00000000000E+00 0.  1.
         14    1    4    4    0    0 -0.25905461423E+02  0.49724246546E+02  0.14766843898E+03  0.15795430193E+03  0.00000000000E+00 0. -1.
         -5    1    5    5    0  502  0.21048042053E+02  0.57873099762E+02  0.18550080915E+03  0.19551203529E+03  0.47000000000E+01 0.  1.
         13    1    6    6    0    0  0.42177491574E+02 -0.38077747372E+02  0.11260727241E+03  0.12613188907E+03  0.00000000000E+00 0. -1.
        -14    1    6    6    0    0 -0.38426998929E+01 -0.42706966878E+02  0.31696021081E+03  0.31984750522E+03  0.00000000000E+00 0.  1.
</event>
<event>
12    1  0.8406581E-002  0.2032326E+03  0.7818608E-02  0.1147110E+00
         21   -1    0    0  501  502  0.00000000000E+00  0.00000000000E+00  0.31481379851E+03  0.31481379851E+03  0.00000000000E+00 0. -1.
         21   -1    0    0  502  503 -0.00000000000E+00 -0.00000000000E+00 -0.72888992757E+03  0.72888992757E+03  0.00000000000E+00 0.  1.
         -6    2    1    2    0  503  0.80266496469E+02  0.71840774409E+02 -0.67965070850E+03  0.70928881375E+03  0.17193524486E+03 0.  0.
        -24    2    3    3    0    0  0.10751459594E+02 -0.17953324721E+02 -0.20154720354E+03  0.21786194020E+03  0.80028957148E+02 0.  0.
          6    2    1    2  501    0 -0.80266496469E+02 -0.71840774409E+02  0.26557457944E+03  0.33441491233E+03  0.17233591912E+03 0.  0.
         24    2    5    5    0    0 -0.78420322988E+00 -0.21122276747E+02  0.20831729233E+03  0.22400527565E+03  0.79595877324E+02 0.  0.
          5    1    5    5  501    0 -0.79482293240E+02 -0.50718497662E+02  0.57257287115E+02  0.11040963668E+03  0.47000000000E+01 0. -1.
        -13    1    6    6    0    0  0.19958375180E+02  0.18094655181E+02  0.30305656721E+02  0.40548564897E+02  0.00000000000E+00 0.  1.
         14    1    6    6    0    0 -0.20742578410E+02 -0.39216931928E+02  0.17801163561E+03  0.18345671076E+03  0.00000000000E+00 0. -1.
         -5    1    3    3    0  503  0.69515036876E+02  0.89794099130E+02 -0.47810350496E+03  0.49142687355E+03  0.47000000000E+01 0.  1.
         13    1    4    4    0    0  0.15956931616E+02  0.20050026444E+02 -0.20556404260E+02  0.32851072785E+02  0.00000000000E+00 0. -1.
        -14    1    4    4    0    0 -0.52054720226E+01 -0.38003351165E+02 -0.18099079928E+03  0.18501086742E+03  0.00000000000E+00 0.  1.
</event>
<event>
12    1  0.8406581E-002  0.1964022E+03  0.7818608E-02  0.1153343E+00
         21   -1    0    0  503  502  0.00000000000E+00  0.00000000000E+00  0.51868675733E+02  0.51868675733E+02  0.00000000000E+00 0.  1.
         21   -1    0    0  501  503 -0.00000000000E+00 -0.00000000000E+00 -0.78718951761E+03  0.78718951761E+03  0.00000000000E+00 0.  1.
          6    2    1    2  501    0  0.89878628405E+02 -0.14771153068E+02 -0.47410635428E+03  0.51224507675E+03  0.17123617807E+03 0.  0.
         24    2    3    3    0    0  0.12458064142E+03  0.11352682646E+02 -0.40238488890E+03  0.42826446532E+03  0.76469822953E+02 0.  0.
         -6    2    1    2    0  502 -0.89878628405E+02  0.14771153068E+02 -0.26121448759E+03  0.32681311659E+03  0.17400416615E+03 0.  0.
        -24    2    5    5    0    0 -0.11211997978E+03 -0.31682988398E+02 -0.21396906149E+03  0.25676395344E+03  0.81057182839E+02 0.  0.
          5    1    3    3  501    0 -0.34702013015E+02 -0.26123835714E+02 -0.71721465383E+02  0.83980611431E+02  0.47000000000E+01 0. -1.
        -11    1    4    4    0    0  0.92200867528E+02  0.41603844731E+02 -0.25387139503E+03  0.27328111000E+03  0.00000000000E+00 0.  1.
         12    1    4    4    0    0  0.32379773892E+02 -0.30251162085E+02 -0.14851349387E+03  0.15498335532E+03  0.00000000000E+00 0. -1.
         -5    1    5    5    0  502  0.22241351378E+02  0.46454141466E+02 -0.47245426105E+02  0.70049163152E+02  0.47000000000E+01 0.  1.
         11    1    6    6    0    0 -0.51653440510E+02  0.17042085859E+02 -0.13710826925E+03  0.14750317998E+03  0.00000000000E+00 0. -1.
        -12    1    6    6    0    0 -0.60466539273E+02 -0.48725074257E+02 -0.76860792235E+02  0.10926077345E+03  0.00000000000E+00 0.  1.
</event>
<event>
12    1  0.8406581E-002  0.2015570E+03  0.7818608E-02  0.1154156E+00
         21   -1    0    0  503  502  0.00000000000E+00  0.00000000000E+00  0.47037670681E+03  0.47037670681E+03  0.00000000000E+00 0.  1.
         21   -1    0    0  501  503 -0.00000000000E+00 -0.00000000000E+00 -0.16271961695E+03  0.16271961695E+03  0.00000000000E+00 0. -1.
          6    2    1    2  501    0  0.62207029658E+01 -0.53225582413E+02 -0.72463308448E+02  0.21418720392E+03  0.19430277271E+03 0.  0.
         24    2    3    3    0    0  0.60646257407E+02 -0.28099171236E+02  0.17988182345E+02  0.10557302574E+03  0.79715475901E+02 0.  0.
         -6    2    1    2    0  502 -0.62207029658E+01  0.53225582413E+02  0.38012039831E+03  0.41890911985E+03  0.16769518095E+03 0.  0.
        -24    2    5    5    0    0 -0.64770133006E+02  0.47436447456E+02  0.20906546054E+03  0.23795765791E+03  0.80436891359E+02 0.  0.
          5    1    3    3  501    0 -0.54425554441E+02 -0.25126411177E+02 -0.90451490793E+02  0.10861417818E+03  0.47000000000E+01 0. -1.
        -11    1    4    4    0    0  0.19238615662E+02  0.28099617043E+02  0.30871844885E+01  0.34194202997E+02  0.00000000000E+00 0.  1.
         12    1    4    4    0    0  0.41407641745E+02 -0.56198788279E+02  0.14900997857E+02  0.71378822742E+02  0.00000000000E+00 0. -1.
         -5    1    5    5    0  502  0.58549430041E+02  0.57891349571E+01  0.17105493777E+03  0.18095146194E+03  0.47000000000E+01 0.  1.
         13    1    6    6    0    0 -0.50990081277E+02  0.44921103841E+02  0.21286078181E+03  0.22344486208E+03  0.00000000000E+00 0. -1.
        -14    1    6    6    0    0 -0.13780051729E+02  0.25153436154E+01 -0.37953212719E+01  0.14512795827E+02  0.00000000000E+00 0.  1.
</event>
<event>
12    1  0.8406581E-002  0.2302633E+03  0.7818608E-02  0.1126706E+00
         21   -1    0    0  501  502  0.00000000000E+00  0.00000000000E+00  0.46193130829E+03  0.46193130829E+03  0.00000000000E+00 0.  1.
         21   -1    0    0  502  503 -0.00000000000E+00 -0.00000000000E+00 -0.18936913769E+03  0.18936913769E+03  0.00000000000E+00 0. -1.
         -6    2    1    2    0  503 -0.15101709946E+03 -0.62581232129E+01 -0.69317805708E+02  0.23910738594E+03  0.17181983409E+03 0.  0.
        -24    2    3    3    0    0 -0.16447739208E+03  0.97938523710E+01 -0.14174090024E+02  0.17993167490E+03  0.70892670671E+02 0.  0.
          6    2    1    2  501    0  0.15101709946E+03  0.62581232129E+01  0.34187997631E+03  0.41219306004E+03  0.17371203788E+03 0.  0.
         24    2    5    5    0    0  0.16217474431E+03  0.47347942833E+02  0.26526509338E+03  0.32441608925E+03  0.79610010760E+02 0.  0.
          5    1    5    5  501    0 -0.11157644850E+02 -0.41089819620E+02  0.76614882924E+02  0.87776970787E+02  0.47000000000E+01 0. -1.
        -11    1    6    6    0    0  0.13186988860E+03  0.63497175476E+02  0.24240438758E+03  0.28316328493E+03  0.00000000000E+00 0.  1.
         12    1    6    6    0    0  0.30304855712E+02 -0.16149232643E+02  0.22860705807E+02  0.41252804325E+02  0.00000000000E+00 0. -1.
         -5    1    3    3    0  503  0.13460292619E+02 -0.16051975584E+02 -0.55143715683E+02  0.59175711039E+02  0.47000000000E+01 0.  1.
         13    1    4    4    0    0 -0.13169333614E+03  0.10741780153E+02 -0.40147003204E+02  0.13809526600E+03  0.00000000000E+00 0. -1.
        -14    1    4    4    0    0 -0.32784055942E+02 -0.94792778198E+00  0.25972913180E+02  0.41836408906E+02  0.00000000000E+00 0.  1.
</event>
<event>
12    1  0.8406581E-002  0.2004179E+03  0.7818608E-02  0.1149579E+00
         21   -1    0    0  501  502  0.00000000000E+00  0.00000000000E+00  0.10826692048E+04  0.10826692048E+04  0.00000000000E+00 0. -1.
         21   -1    0    0  502  503 -0.00000000000E+00 -0.00000000000E+00 -0.77176503328E+02  0.77176503328E+02  0.00000000000E+00 0. -1.
         -6    2    1    2    0  503 -0.18731742539E+02  0.10019607242E+03  0.84519006497E+02  0.21751047492E+03  0.17256075200E+03 0.  0.
        -24    2    3    3    0    0 -0.43436321484E+02  0.10901857811E+02  0.85300714234E+02  0.12473939078E+03  0.79234709793E+02 0.  0.
          6    2    1    2  501    0  0.18731742539E+02 -0.10019607242E+03  0.92097369501E+03  0.94233523325E+03  0.17150222684E+03 0.  0.
         24    2    5    5    0    0 -0.37351280702E+01  0.72848316099E+01  0.27360086863E+03  0.28569943515E+03  0.81851768319E+02 0.  0.
          5    1    5    5  501    0  0.22466870609E+02 -0.10748090403E+03  0.64737282639E+03  0.65663579810E+03  0.47000000000E+01 0. -1.
        -13    1    6    6    0    0  0.31478897878E+02  0.21242316494E+02  0.81684604348E+02  0.90080694986E+02  0.00000000000E+00 0.  1.
         14    1    6    6    0    0 -0.35214025948E+02 -0.13957484884E+02  0.19191626428E+03  0.19561874016E+03  0.00000000000E+00 0. -1.
         -5    1    3    3    0  503  0.24704578945E+02  0.89294214613E+02 -0.78170773704E+00  0.92771084133E+02  0.47000000000E+01 0.  1.
         11    1    4    4    0    0  0.15264803092E+02  0.86207801313E+01 -0.38740063278E+01  0.17953829356E+02  0.00000000000E+00 0. -1.
        -12    1    4    4    0    0 -0.58701124575E+02  0.22810776801E+01  0.89174720562E+02  0.10678556143E+03  0.00000000000E+00 0.  1.
</event>
<event>
12    1  0.8406581E-002  0.2697459E+03  0.7818608E-02  0.1101456E+00
         21   -1    0    0  503  502  0.00000000000E+00  0.00000000000E+00  0.10534157174E+04  0.10534157174E+04  0.00000000000E+00 0. -1.
         21   -1    0    0  501  503 -0.00000000000E+00 -0.00000000000E+00 -0.78086912341E+02  0.78086912341E+02  0.00000000000E+00 0. -1.
          6    2    1    2  501    0 -0.10198144887E+03  0.18044732231E+03  0.29503226665E+03  0.39975851299E+03  0.17263075713E+03 0.  0.
         24    2    3    3    0    0 -0.40040354711E+02  0.23167923209E+02  0.11414018325E+03  0.15213471696E+03  0.89314097435E+02 0.  0.
         -6    2    1    2    0  502  0.10198144887E+03 -0.18044732231E+03  0.68029653845E+03  0.73174411679E+03  0.17229225225E+03 0.  0.
        -24    2    5    5    0    0  0.94727318633E+02 -0.16130785533E+03  0.68114199717E+03  0.71072635282E+03  0.78638662263E+02 0.  0.
          5    1    3    3  501    0 -0.61941094154E+02  0.15727939910E+03  0.18089208340E+03  0.24762379604E+03  0.47000000000E+01 0. -1.
        -13    1    4    4    0    0  0.83938176427E+01 -0.62938139641E+01 -0.10724765114E+02  0.15002961560E+02  0.00000000000E+00 0.  1.
         14    1    4    4    0    0 -0.48434172354E+02  0.29461737173E+02  0.12486494836E+03  0.13713175540E+03  0.00000000000E+00 0. -1.
         -5    1    5    5    0  502  0.72541302323E+01 -0.19139466981E+02 -0.84545871726E+00  0.21017763967E+02  0.47000000000E+01 0.  1.
         13    1    6    6    0    0  0.35682487449E+02 -0.13093038788E+03  0.42649767653E+03  0.44756706142E+03  0.00000000000E+00 0. -1.
        -14    1    6    6    0    0  0.59044831184E+02 -0.30377467443E+02  0.25464432063E+03  0.26315929140E+03  0.00000000000E+00 0.  1.
</event>
<event>
12    1  0.8406581E-002  0.2082336E+03  0.7818608E-02  0.1143171E+00
         21   -1    0    0  503  502  0.00000000000E+00  0.00000000000E+00  0.70405195450E+02  0.70405195450E+02  0.00000000000E+00 0.  1.
         21   -1    0    0  501  503 -0.00000000000E+00 -0.00000000000E+00 -0.90605723305E+03  0.90605723305E+03  0.00000000000E+00 0. -1.
          6    2    1    2  501    0 -0.75569491265E+02 -0.86844882405E+02 -0.69618260127E+03  0.72665771446E+03  0.17351783212E+03 0.  0.
         24    2    3    3    0    0 -0.11909948911E+03 -0.60523833251E+02 -0.53356478490E+03  0.55620448762E+03  0.82608895785E+02 0.  0.
         -6    2    1    2    0  502  0.75569491265E+02  0.86844882405E+02 -0.13946943633E+03  0.24980471404E+03  0.17233075720E+03 0.  0.
        -24    2    5    5    0    0  0.40176354495E+02  0.12239599370E+03 -0.12636560054E+03  0.19774363302E+03  0.80866313539E+02 0.  0.
          5    1    3    3  501    0  0.43529997840E+02 -0.26321049154E+02 -0.16261781637E+03  0.17045322684E+03  0.47000000000E+01 0. -1.
        -13    1    4    4    0    0 -0.50677873809E+02 -0.32706703975E+02 -0.10308258189E+03  0.11943196418E+03  0.00000000000E+00 0.  1.
         14    1    4    4    0    0 -0.68421615296E+02 -0.27817129276E+02 -0.43048220301E+03  0.43677252344E+03  0.00000000000E+00 0. -1.
         -5    1    5    5    0  502  0.35393136771E+02 -0.35551111298E+02 -0.13103835798E+02  0.52061081026E+02  0.47000000000E+01 0.  1.
         13    1    6    6    0    0 -0.41852930712E+01  0.45604626685E+02 -0.91747801471E+02  0.10254246792E+03  0.00000000000E+00 0. -1.
        -14    1    6    6    0    0  0.44361647566E+02  0.76791367017E+02 -0.34617799065E+02  0.95201165094E+02  0.00000000000E+00 0.  1.
</event>
<event>
12    1  0.8406581E-002  0.2581944E+03  0.7818608E-02  0.1108263E+00
         21   -1    0    0  503  502  0.00000000000E+00  0.00000000000E+00  0.46480998280E+02  0.46480998280E+02  0.00000000000E+00 0.  1.
         21   -1    0    0  501  503 -0.00000000000E+00 -0.00000000000E+00 -0.14331271731E+04  0.14331271731E+04  0.00000000000E+00 0.  1.
          6    2    1    2  501    0 -0.15361347177E+03 -0.11645368338E+03 -0.69349663586E+03  0.74000128823E+03  0.17177241788E+03 0.  0.
         24    2    3    3    0    0 -0.99289713162E+02 -0.14561742847E+03 -0.56577795058E+03  0.59810080427E+03  0.80975305443E+02 0.  0.
         -6    2    1    2    0  502  0.15361347177E+03  0.11645368338E+03 -0.69314953900E+03  0.73960688319E+03  0.17147448549E+03 0.  0.
        -24    2    5    5    0    0  0.16369213281E+03  0.87870664840E+02 -0.43632639498E+03  0.48095888753E+03  0.80152108232E+02 0.  0.
          5    1    3    3  501    0 -0.54323758605E+02  0.29163745091E+02 -0.12771868529E+03  0.14190048396E+03  0.47000000000E+01 0. -1.
        -11    1    4    4    0    0 -0.80272873631E+02 -0.84149905120E+02 -0.45839058952E+03  0.47291317737E+03  0.00000000000E+00 0.  1.
         12    1    4    4    0    0 -0.19016839530E+02 -0.61467523350E+02 -0.10738736106E+03  0.12518762689E+03  0.00000000000E+00 0. -1.
         -5    1    5    5    0  502 -0.10078661047E+02  0.28583018539E+02 -0.25682314402E+03  0.25864799566E+03  0.47000000000E+01 0.  1.
         11    1    6    6    0    0  0.76135096311E+02  0.14067251654E+02 -0.25505096949E+03  0.26654350020E+03  0.00000000000E+00 0. -1.
        -12    1    6    6    0    0  0.87557036503E+02  0.73803413186E+02 -0.18127542549E+03  0.21441538733E+03  0.00000000000E+00 0.  1.
</event>
<event>
12    1  0.8406581E-002  0.2120573E+03  0.7818608E-02  0.1141175E+00
         21   -1    0    0  503  502  0.00000000000E+00  0.00000000000E+00  0.57578233796E+03  0.57578233796E+03  0.00000000000E+00 0.  1.
         21   -1    0    0  501  503 -0.00000000000E+00 -0.00000000000E+00 -0.21731225304E+03  0.21731225304E+03  0.00000000000E+00 0.  1.
          6    2    1    2  501    0  0.28148359871E+02  0.12015678396E+03 -0.14163389194E+03  0.24988901300E+03  0.16478585066E+03 0.  0.
         24    2    3    3    0    0  0.51351345780E+02  0.13873313547E+03 -0.90617759180E+02  0.19065899365E+03  0.79091276322E+02 0.  0.
         -6    2    1    2    0  502 -0.28148359871E+02 -0.12015678396E+03  0.50010397686E+03  0.54320557801E+03  0.17244804843E+03 0.  0.
        -24    2    5    5    0    0 -0.43182687849E+02 -0.13879273230E+03  0.48930472254E+03  0.51652143511E+03  0.79038688978E+02 0.  0.
          5    1    3    3  501    0 -0.23202985909E+02 -0.18576351508E+02 -0.51016132764E+02  0.59230019354E+02  0.47000000000E+01 0. -1.
        -13    1    4    4    0    0  0.27316631359E+02  0.40791469702E+01 -0.30796804546E+02  0.41367631780E+02  0.00000000000E+00 0.  1.
         14    1    4    4    0    0  0.24034714421E+02  0.13465398849E+03 -0.59820954634E+02  0.14929136187E+03  0.00000000000E+00 0. -1.
         -5    1    5    5    0  502  0.15034327978E+02  0.18635948341E+02  0.10799254323E+02  0.26684142899E+02  0.47000000000E+01 0.  1.
         11    1    6    6    0    0  0.86569197812E+01 -0.39426867291E+02  0.56481684387E+02  0.69423344745E+02  0.00000000000E+00 0. -1.
        -12    1    6    6    0    0 -0.51839607630E+02 -0.99365865007E+02  0.43282303815E+03  0.44709809036E+03  0.00000000000E+00 0.  1.
</event>
<event>
12    1  0.8406581E-002  0.1981808E+03  0.7818608E-02  0.1151778E+00
         21   -1    0    0  501  502  0.00000000000E+00  0.00000000000E+00  0.41107375696E+03  0.41107375696E+03  0.00000000000E+00 0. -1.
         21   -1    0    0  502  503 -0.00000000000E+00 -0.00000000000E+00 -0.10452710215E+03  0.10452710215E+03  0.00000000000E+00 0. -1.
         -6    2    1    2    0  503  0.89453316813E+02 -0.31021699656E+02  0.73987087597E+02  0.21154130429E+03  0.17410167303E+03 0.  0.
        -24    2    3    3    0    0  0.84400296696E+02 -0.10538790960E+02  0.11596124388E+03  0.16432899280E+03  0.79514348364E+02 0.  0.
          6    2    1    2  501    0 -0.89453316813E+02  0.31021699656E+02  0.23255956721E+03  0.30405955482E+03  0.17147600076E+03 0.  0.
         24    2    5    5    0    0 -0.68340066928E+02  0.60968101942E+02  0.72977531572E+02  0.14025762434E+03  0.77194603880E+02 0.  0.
          5    1    5    5  501    0 -0.21113249885E+02 -0.29946402286E+02  0.15958203564E+03  0.16380193048E+03  0.47000000000E+01 0. -1.
        -13    1    6    6    0    0  0.38962443319E+01  0.31258420210E+02 -0.25535132114E+01  0.31603638772E+02  0.00000000000E+00 0.  1.
         14    1    6    6    0    0 -0.72236311260E+02  0.29709681732E+02  0.75531044784E+02  0.10865398557E+03  0.00000000000E+00 0. -1.
         -5    1    3    3    0  503  0.50530201169E+01 -0.20482908696E+02 -0.41974156280E+02  0.47212311491E+02  0.47000000000E+01 0.  1.
         11    1    4    4    0    0 -0.38873895336E+01  0.17621681863E+02  0.31213360385E+01  0.18313334151E+02  0.00000000000E+00 0. -1.
        -12    1    4    4    0    0  0.88287686230E+02 -0.28160472823E+02  0.11283990784E+03  0.14601565865E+03  0.00000000000E+00 0.  1.
</event>
<event>
12    1  0.8406581E-002  0.1880003E+03  0.7818608E-02  0.1160724E+00
         21   -1    0    0  503  502  0.00000000000E+00  0.00000000000E+00  0.81135806997E+02  0.81135806997E+02  0.00000000000E+00 0. -1.
         21   -1    0    0  501  503 -0.00000000000E+00 -0.00000000000E+00 -0.59163365818E+03  0.59163365818E+03  0.00000000000E+00 0.  1.
          6    2    1    2  501    0  0.48556087640E+02  0.53480590410E+02 -0.42948899123E+03  0.46805861215E+03  0.17146487576E+03 0.  0.
         24    2    3    3    0    0  0.37300932408E+02  0.50941367488E+02 -0.44007365674E+03  0.45171078916E+03  0.79946427114E+02 0.  0.
         -6    2    1    2    0  502 -0.48556087640E+02 -0.53480590410E+02 -0.81008859953E+02  0.20471085303E+03  0.17356909506E+03 0.  0.
        -24    2    5    5    0    0  0.33527555536E+02 -0.59835793706E+02 -0.36275019084E+02  0.11089550458E+03  0.79230781504E+02 0.  0.
          5    1    3    3  501    0  0.11255155233E+02  0.25392229220E+01  0.10584665511E+02  0.16347822985E+02  0.47000000000E+01 0. -1.
        -11    1    4    4    0    0 -0.77805092718E+01  0.47367742864E+02 -0.13450758681E+03  0.14281642167E+03  0.00000000000E+00 0.  1.
         12    1    4    4    0    0  0.45081441680E+02  0.35736246245E+01 -0.30556606993E+03  0.30889436749E+03  0.00000000000E+00 0. -1.
         -5    1    5    5    0  502 -0.82083643176E+02  0.63552032960E+01 -0.44733840869E+02  0.93815348450E+02  0.47000000000E+01 0.  1.
         13    1    6    6    0    0  0.97099222851E+01 -0.73576398590E+02 -0.37936551444E+02  0.83348371044E+02  0.00000000000E+00 0. -1.
        -14    1    6    6    0    0  0.23817633250E+02  0.13740604884E+02  0.16615323600E+01  0.27547133535E+02  0.00000000000E+00 0.  1.
</event>
<event>
12    1  0.8406581E-002  0.1857583E+03  0.7818608E-02  0.1162423E+00
         21   -1    0    0  503  502  0.00000000000E+00  0.00000000000E+00  0.10287396162E+03  0.10287396162E+03  0.00000000000E+00 0.  1.
         21   -1    0    0  501  503 -0.00000000000E+00 -0.00000000000E+00 -0.24598084786E+04  0.24598084786E+04  0.00000000000E+00 0.  1.
          6    2    1    2  501    0  0.49503107204E+02 -0.51030452572E+02 -0.23695644992E+04  0.23768344609E+04  0.17161431663E+03 0.  0.
         24    2    3    3    0    0 -0.43002041723E+02 -0.23813199383E+02 -0.11488035940E+04  0.11522621849E+04  0.74445960318E+02 0.  0.
         -6    2    1    2    0  502 -0.49503107204E+02  0.51030452572E+02  0.12629982271E+02  0.18584797933E+03  0.17124628538E+03 0.  0.
        -24    2    5    5    0    0 -0.61114795099E+02  0.43766578589E+02 -0.50774609622E+02  0.12081085582E+03  0.79791417587E+02 0.  0.
          5    1    3    3  501    0  0.92505148927E+02 -0.27217253189E+02 -0.12207609052E+04  0.12245722760E+04  0.47000000000E+01 0. -1.
        -11    1    4    4    0    0 -0.28119660990E+02 -0.18786943954E+01 -0.10361102244E+04  0.10364934355E+04  0.00000000000E+00 0.  1.
         12    1    4    4    0    0 -0.14882380733E+02 -0.21934504988E+02 -0.11269336967E+03  0.11576874938E+03  0.00000000000E+00 0. -1.
         -5    1    5    5    0  502  0.11611687895E+02  0.72638739825E+01  0.63404591893E+02  0.65037123508E+02  0.47000000000E+01 0.  1.
         13    1    6    6    0    0 -0.71606951230E+02  0.50556061643E+02 -0.23410063952E+02  0.90727624941E+02  0.00000000000E+00 0. -1.
        -14    1    6    6    0    0  0.10492156131E+02 -0.67894830539E+01 -0.27364545670E+02  0.30083230880E+02  0.00000000000E+00 0.  1.
</event>
<event>
12    1  0.8406581E-002  0.2564874E+03  0.7818608E-02  0.1109705E+00
         21   -1    0    0  501  502  0.00000000000E+00  0.00000000000E+00  0.64971610996E+03  0.64971610996E+03  0.00000000000E+00 0.  1.
         21   -1    0    0  502  503 -0.00000000000E+00 -0.00000000000E+00 -0.12421944181E+03  0.12421944181E+03  0.00000000000E+00 0. -1.
         -6    2    1    2    0  503 -0.75255145870E+02 -0.17587898671E+03  0.91224547041E+02  0.26957648159E+03  0.16659173599E+03 0.  0.
        -24    2    3    3    0    0 -0.89317914714E+02 -0.57456268890E+02  0.55579023271E+02  0.14501968761E+03  0.81625787850E+02 0.  0.
          6    2    1    2  501    0  0.75255145870E+02  0.17587898671E+03  0.43427212112E+03  0.50435907018E+03  0.17084800716E+03 0.  0.
         24    2    5    5    0    0  0.13483343413E+02  0.24670428495E+02  0.90219394042E+02  0.12347306012E+03  0.79470918714E+02 0.  0.
          5    1    5    5  501    0  0.61771802457E+02  0.15120855821E+03  0.34405272708E+03  0.38088601007E+03  0.47000000000E+01 0. -1.
        -13    1    6    6    0    0  0.24312634100E+02  0.45026957509E+02  0.30773892956E+02  0.59712340158E+02  0.00000000000E+00 0.  1.
         14    1    6    6    0    0 -0.10829290687E+02 -0.20356529014E+02  0.59445501085E+02  0.63760719958E+02  0.00000000000E+00 0. -1.
         -5    1    3    3    0  503  0.14062768844E+02 -0.11842271782E+03  0.35645523770E+02  0.12455679398E+03  0.47000000000E+01 0.  1.
         11    1    4    4    0    0  0.12080397664E+02 -0.16232147783E+02 -0.36556801694E+01  0.20561678601E+02  0.00000000000E+00 0. -1.
        -12    1    4    4    0    0 -0.10139831238E+03 -0.41224121106E+02  0.59234703441E+02  0.12445800901E+03  0.00000000000E+00 0.  1.
</event>
<event>
12    1  0.8406581E-002  0.2471896E+03  0.7818608E-02  0.1115222E+00
         21   -1    0    0  503  502  0.00000000000E+00  0.00000000000E+00  0.20452648896E+03  0.20452648896E+03  0.00000000000E+00 0.  1.
         21   -1    0    0  501  503 -0.00000000000E+00 -0.00000000000E+00 -0.30723896311E+03  0.30723896311E+03  0.00000000000E+00 0. -1.
          6    2    1    2  501    0 -0.10551600171E+03 -0.14163598017E+03 -0.96311297841E+02  0.26528958531E+03  0.17294022229E+03 0.  0.
         24    2    3    3    0    0 -0.12076524293E+03 -0.67678130764E+02 -0.25403322462E+02  0.16159612448E+03  0.79393988256E+02 0.  0.
         -6    2    1    2    0  502  0.10551600171E+03  0.14163598017E+03 -0.64011763166E+01  0.24647586676E+03  0.17179930250E+03 0.  0.
        -24    2    5    5    0    0  0.40581029683E+02  0.98941648816E+02  0.61166585151E+02  0.14338925796E+03  0.73367965217E+02 0.  0.
          5    1    3    3  501    0  0.15249241216E+02 -0.73957849408E+02 -0.70907975379E+02  0.10369346083E+03  0.47000000000E+01 0. -1.
        -11    1    4    4    0    0 -0.29786943231E+02 -0.60112772909E+02 -0.20591709364E+02  0.70177104161E+02  0.00000000000E+00 0.  1.
         12    1    4    4    0    0 -0.90978299699E+02 -0.75653578548E+01 -0.48116130984E+01  0.91419020319E+02  0.00000000000E+00 0. -1.
         -5    1    5    5    0  502  0.64934972032E+02  0.42694331357E+02 -0.67567761468E+02  0.10308660879E+03  0.47000000000E+01 0.  1.
         13    1    6    6    0    0  0.59910316421E+02  0.55233032024E+02  0.32997017398E+02  0.87913235621E+02  0.00000000000E+00 0. -1.
        -14    1    6    6    0    0 -0.19329286738E+02  0.43708616792E+02  0.28169567753E+02  0.55476022343E+02  0.00000000000E+00 0.  1.
</event>
<event>
12    1  0.8406581E-002  0.1734815E+03  0.7818608E-02  0.1174727E+00
         21   -1    0    0  503  502  0.00000000000E+00  0.00000000000E+00  0.22464686355E+03  0.22464686355E+03  0.00000000000E+00 0. -1.
         21   -1    0    0  501  503 -0.00000000000E+00 -0.00000000000E+00 -0.21327144381E+03  0.21327144381E+03  0.00000000000E+00 0. -1.
          6    2    1    2  501    0  0.74849478629E+00 -0.45740204058E+02 -0.12897739906E+03  0.21617352536E+03  0.16734125937E+03 0.  0.
         24    2    3    3    0    0 -0.18883879305E+02 -0.86554825423E+02 -0.68088631082E+02  0.14014198259E+03  0.84589449109E+02 0.  0.
         -6    2    1    2    0  502 -0.74849478629E+00  0.45740204058E+02  0.14035281880E+03  0.22174478200E+03  0.16546633521E+03 0.  0.
        -24    2    5    5    0    0  0.35981382904E+02  0.19674085471E+02  0.15074876482E+03  0.17528305424E+03  0.79481000586E+02 0.  0.
          5    1    3    3  501    0  0.19632374091E+02  0.40814621364E+02 -0.60888767982E+02  0.76031542770E+02  0.47000000000E+01 0. -1.
        -13    1    4    4    0    0 -0.35904037576E+02 -0.37460325616E+01 -0.31930215826E+02  0.48194100852E+02  0.00000000000E+00 0.  1.
         14    1    4    4    0    0  0.17020158271E+02 -0.82808792861E+02 -0.36158415257E+02  0.91947881740E+02  0.00000000000E+00 0. -1.
         -5    1    5    5    0  502 -0.36729877690E+02  0.26066118588E+02 -0.10395946014E+02  0.46461727765E+02  0.47000000000E+01 0.  1.
         11    1    6    6    0    0  0.12299805030E+02 -0.28017211275E+02  0.86987665620E+02  0.92212273052E+02  0.00000000000E+00 0. -1.
        -12    1    6    6    0    0  0.23681577874E+02  0.47691296746E+02  0.63761099195E+02  0.83070781184E+02  0.00000000000E+00 0.  1.
</event>
<event>
12    1  0.8406581E-002  0.1744181E+03  0.7818608E-02  0.1173865E+00
         21   -1    0    0  501  502  0.00000000000E+00  0.00000000000E+00  0.16981539718E+04  0.16981539718E+04  0.00000000000E+00 0. -1.
         21   -1    0    0  502  503 -0.00000000000E+00 -0.00000000000E+00 -0.35702520466E+02  0.35702520466E+02  0.00000000000E+00 0. -1.
         -6    2    1    2    0  503 -0.21663650108E+02 -0.31665700760E+01  0.21295559144E+03  0.27390446583E+03  0.17086319549E+03 0.  0.
        -24    2    3    3    0    0  0.72929703266E+01  0.29781886127E+02  0.40726296362E+02  0.96114964689E+02  0.81481943179E+02 0.  0.
          6    2    1    2  501    0  0.21663650108E+02  0.31665700760E+01  0.14494958599E+04  0.14599520264E+04  0.17303852386E+03 0.  0.
         24    2    5    5    0    0  0.70847594276E+02  0.24963303949E+02  0.70984000346E+03  0.71832743547E+03  0.80491775190E+02 0.  0.
          5    1    5    5  501    0 -0.49183944168E+02 -0.21796733873E+02  0.73965585640E+03  0.74162459093E+03  0.47000000000E+01 0. -1.
        -11    1    6    6    0    0 -0.42622717062E+00 -0.54796396766E+01  0.14148256908E+01  0.56753724390E+01  0.00000000000E+00 0.  1.
         12    1    6    6    0    0  0.71273821447E+02  0.30442943626E+02  0.70842517777E+03  0.71265206303E+03  0.00000000000E+00 0. -1.
         -5    1    3    3    0  503 -0.28956620435E+02 -0.32948456203E+02  0.17222929508E+03  0.17778950114E+03  0.47000000000E+01 0.  1.
         11    1    4    4    0    0  0.24738773418E+02 -0.18823403665E+02  0.30343362464E+02  0.43440155172E+02  0.00000000000E+00 0. -1.
        -12    1    4    4    0    0 -0.17445803091E+02  0.48605289792E+02  0.10382933898E+02  0.52674809517E+02  0.00000000000E+00 0.  1.
</event>
<event>
12    1  0.8406581E-002  0.1883394E+03  0.7818608E-02  0.1161867E+00
         21   -1    0    0  503  502  0.00000000000E+00  0.00000000000E+00  0.36726737383E+03  0.36726737383E+03  0.00000000000E+00 0.  1.
         21   -1    0    0  501  503 -0.00000000000E+00 -0.00000000000E+00 -0.28690313798E+03  0.28690313798E+03  0.00000000000E+00 0.  1.
          6    2    1    2  501    0 -0.41591962131E+02  0.64864454812E+02 -0.22878385287E+03  0.29633387373E+03  0.17185582496E+03 0.  0.
         24    2    3    3    0    0 -0.46880250032E+02  0.65606522485E+02 -0.24949531166E+03  0.27443476009E+03  0.81021931415E+02 0.  0.
         -6    2    1    2    0  502  0.41591962131E+02 -0.64864454812E+02  0.30914808872E+03  0.35783663807E+03  0.16290251679E+03 0.  0.
        -24    2    5    5    0    0  0.29910743204E+02 -0.95703103662E+02  0.29456708846E+03  0.32147500022E+03  0.80763045734E+02 0.  0.
          5    1    3    3  501    0  0.52882879014E+01 -0.74206767268E+00  0.20711458785E+02  0.21899113644E+02  0.47000000000E+01 0. -1.
        -11    1    4    4    0    0  0.25523683025E+01  0.33890796474E+02 -0.18119445180E+03  0.18435435995E+03  0.00000000000E+00 0.  1.
         12    1    4    4    0    0 -0.49432618335E+02  0.31715726011E+02 -0.68300859857E+02  0.90080400138E+02  0.00000000000E+00 0. -1.
         -5    1    5    5    0  502  0.11681218927E+02  0.30838648849E+02  0.14581000263E+02  0.36361637850E+02  0.47000000000E+01 0.  1.
         11    1    6    6    0    0 -0.64672171919E+00 -0.55789595713E+02  0.61450859538E+02  0.83000634797E+02  0.00000000000E+00 0. -1.
        -12    1    6    6    0    0  0.30557464923E+02 -0.39913507949E+02  0.23311622892E+03  0.23847436543E+03  0.00000000000E+00 0.  1.
</event>
<event>
12    1  0.8406581E-002  0.2461048E+03  0.7818608E-02  0.1116067E+00
         21   -1    0    0  503  502  0.00000000000E+00  0.00000000000E+00  0.17396753848E+03  0.17396753848E+03  0.00000000000E+00 0. -1.
         21   -1    0    0  501  503 -0.00000000000E+00 -0.00000000000E+00 -0.48537335036E+03  0.48537335036E+03  0.00000000000E+00 0. -1.
          6    2    1    2  501    0  0.69800983490E+02 -0.16166539802E+03 -0.33290537707E+03  0.41399708373E+03  0.17192939550E+03 0.  0.
         24    2    3    3    0    0  0.71113997689E+02 -0.67995823029E+02 -0.93158680822E+02  0.15655528128E+03  0.78424381839E+02 0.  0.
         -6    2    1    2    0  502 -0.69800983490E+02  0.16166539802E+03  0.21499565189E+02  0.24534380511E+03  0.16948000822E+03 0.  0.
        -24    2    5    5    0    0 -0.14999758506E+02  0.62452472200E+02  0.67914897738E+02  0.12277606055E+03  0.79600399940E+02 0.  0.
          5    1    3    3  501    0 -0.13130141992E+01 -0.93669574996E+02 -0.23974669625E+03  0.25744180245E+03  0.47000000000E+01 0. -1.
        -11    1    4    4    0    0 -0.37539073927E+01 -0.38783550919E+02 -0.86073827103E+01  0.39904168701E+02  0.00000000000E+00 0.  1.
         12    1    4    4    0    0  0.74867905082E+02 -0.29212272110E+02 -0.84551298112E+02  0.11665111258E+03  0.00000000000E+00 0. -1.
         -5    1    5    5    0  502 -0.54801224984E+02  0.99212925825E+02 -0.46415332549E+02  0.12256774456E+03  0.47000000000E+01 0.  1.
         11    1    6    6    0    0  0.27032061546E+02  0.36588508120E-01  0.18117797177E+02  0.32542099882E+02  0.00000000000E+00 0. -1.
        -12    1    6    6    0    0 -0.42031820052E+02  0.62415883692E+02  0.49797100561E+02  0.90233960670E+02  0.00000000000E+00 0.  1.
</event>
<event>
12    1  0.8406581E-002  0.2761680E+03  0.7818608E-02  0.1098611E+00
         21   -1    0    0  501  502  0.00000000000E+00  0.00000000000E+00  0.71590313262E+03  0.71590313262E+03  0.00000000000E+00 0. -1.
         21   -1    0    0  502  503 -0.00000000000E+00 -0.00000000000E+00 -0.12035927553E+03  0.12035927553E+03  0.00000000000E+00 0. -1.
         -6    2    1    2    0  503 -0.91467820518E+02 -0.18958852774E+03  0.14242275428E+03  0.30561419753E+03  0.16972219878E+03 0.  0.
        -24    2    3    3    0    0 -0.34685793718E+02 -0.18142247339E+03  0.14607217969E+03  0.24794018851E+03  0.77588899092E+02 0.  0.
          6    2    1    2  501    0  0.91467820518E+02  0.18958852774E+03  0.45312110281E+03  0.53064821062E+03  0.17876973342E+03 0.  0.
         24    2    5    5    0    0  0.10330817783E+03  0.19361664296E+03  0.32118688271E+03  0.39803920563E+03  0.84345785612E+02 0.  0.
          5    1    5    5  501    0 -0.11840357309E+02 -0.40281152272E+01  0.13193422010E+03  0.13260900499E+03  0.47000000000E+01 0. -1.
        -13    1    6    6    0    0  0.10315723834E+03  0.11417654362E+03  0.18780797727E+03  0.24279525378E+03  0.00000000000E+00 0.  1.
         14    1    6    6    0    0  0.15093949238E+00  0.79440099338E+02  0.13337890545E+03  0.15524395184E+03  0.00000000000E+00 0. -1.
         -5    1    3    3    0  503 -0.56782026800E+02 -0.81660543464E+01 -0.36494254101E+01  0.57674009025E+02  0.47000000000E+01 0.  1.
         13    1    4    4    0    0 -0.21129346226E+02 -0.93090146467E+02  0.27266946656E+02  0.99275933746E+02  0.00000000000E+00 0. -1.
        -14    1    4    4    0    0 -0.13556447492E+02 -0.88332326922E+02  0.11880523303E+03  0.14866425476E+03  0.00000000000E+00 0.  1.
</event>
<event>
12    1  0.8406581E-002  0.1987293E+03  0.7818608E-02  0.1150982E+00
         21   -1    0    0  501  502  0.00000000000E+00  0.00000000000E+00  0.83333157861E+03  0.83333157861E+03  0.00000000000E+00 0. -1.
         21   -1    0    0  502  503 -0.00000000000E+00 -0.00000000000E+00 -0.68385517109E+02  0.68385517109E+02  0.00000000000E+00 0. -1.
         -6    2    1    2    0  503 -0.34203459014E+02  0.89245146297E+02  0.13104022579E+03  0.23739040181E+03  0.17334384716E+03 0.  0.
        -24    2    3    3    0    0  0.35443832943E+02  0.42488880763E+01  0.46121567086E+02  0.98435812878E+02  0.79297490269E+02 0.  0.
          6    2    1    2  501    0  0.34203459014E+02 -0.89245146297E+02  0.63390583571E+03  0.66432669391E+03  0.17423769669E+03 0.  0.
         24    2    5    5    0    0 -0.30774166245E+02 -0.69863142020E+02  0.23269461977E+03  0.25739883338E+03  0.79243078167E+02 0.  0.
          5    1    5    5  501    0  0.64977625259E+02 -0.19382004277E+02  0.40121121594E+03  0.40692786053E+03  0.47000000000E+01 0. -1.
        -13    1    6    6    0    0 -0.51428568373E+01 -0.41529097332E+02  0.30898568528E+02  0.52017655068E+02  0.00000000000E+00 0.  1.
         14    1    6    6    0    0 -0.25631309408E+02 -0.28334044688E+02  0.20179605124E+03  0.20538117832E+03  0.00000000000E+00 0. -1.
         -5    1    3    3    0  503 -0.69647291957E+02  0.84996258221E+02  0.84918658702E+02  0.13895458893E+03  0.47000000000E+01 0.  1.
         11    1    4    4    0    0  0.36667686877E+02  0.31968044273E+02  0.51015757314E+01  0.48913200575E+02  0.00000000000E+00 0. -1.
        -12    1    4    4    0    0 -0.12238539335E+01 -0.27719156196E+02  0.41019991354E+02  0.49522612304E+02  0.00000000000E+00 0.  1.
</event>
<event>
12    1  0.8406581E-002  0.1766355E+03  0.7818608E-02  0.1171847E+00
         21   -1    0    0  503  502  0.00000000000E+00  0.00000000000E+00  0.32520811603E+03  0.32520811603E+03  0.00000000000E+00 0. -1.
         21   -1    0    0  501  503 -0.00000000000E+00 -0.00000000000E+00 -0.94575640944E+02  0.94575640944E+02  0.00000000000E+00 0. -1.
          6    2    1    2  501    0 -0.33637533081E+02  0.23727048252E+02  0.10547554411E+03  0.20573085429E+03  0.17177205114E+03 0.  0.
         24    2    3    3    0    0 -0.68723876480E+02  0.23106791902E+02  0.12530162444E+03  0.16515253899E+03  0.79485652904E+02 0.  0.
         -6    2    1    2    0  502  0.33637533081E+02 -0.23727048252E+02  0.12515693098E+03  0.21405290268E+03  0.16870071524E+03 0.  0.
        -24    2    5    5    0    0 -0.48535315426E+01  0.46653191038E+02  0.77554143945E+02  0.12065560362E+03  0.79643282452E+02 0.  0.
          5    1    3    3  501    0  0.35086343398E+02  0.62025634957E+00 -0.19826080335E+02  0.40578315299E+02  0.47000000000E+01 0. -1.
        -11    1    4    4    0    0 -0.35907160006E+02  0.35716753716E+02  0.20545539358E+02  0.54654641370E+02  0.00000000000E+00 0.  1.
         12    1    4    4    0    0 -0.32816716474E+02 -0.12609961814E+02  0.10475608508E+03  0.11049789762E+03  0.00000000000E+00 0. -1.
         -5    1    5    5    0  502  0.38491064624E+02 -0.70380239289E+02  0.47602787032E+02  0.93397299059E+02  0.47000000000E+01 0.  1.
         11    1    6    6    0    0 -0.18104654066E+02  0.55875462341E+02  0.21864416614E+02  0.62672948746E+02  0.00000000000E+00 0. -1.
        -12    1    6    6    0    0  0.13251122524E+02 -0.92222713032E+01  0.55689727332E+02  0.57982654876E+02  0.00000000000E+00 0.  1.
</event>
<event>
12    1  0.8406581E-002  0.2657194E+03  0.7818608E-02  0.1103833E+00
         21   -1    0    0  501  502  0.00000000000E+00  0.00000000000E+00  0.14652131383E+04  0.14652131383E+04  0.00000000000E+00 0. -1.
         21   -1    0    0  502  503 -0.00000000000E+00 -0.00000000000E+00 -0.54472491621E+02  0.54472491621E+02  0.00000000000E+00 0. -1.
         -6    2    1    2    0  503  0.12776200507E+03 -0.15624512589E+03  0.44469909451E+03  0.51776593844E+03  0.17201340951E+03 0.  0.
        -24    2    3    3    0    0  0.14174472416E+02 -0.11943174478E+03  0.21321290661E+03  0.25725624997E+03  0.79096000355E+02 0.  0.
          6    2    1    2  501    0 -0.12776200507E+03  0.15624512589E+03  0.96604155213E+03  0.10019196914E+04  0.17283263101E+03 0.  0.
         24    2    5    5    0    0 -0.72653412420E+02  0.13253612893E+03  0.88248709436E+03  0.89895119658E+03  0.80532219061E+02 0.  0.
          5    1    5    5  501    0 -0.55108592646E+02  0.23708996960E+02  0.83554457773E+02  0.10296849486E+03  0.47000000000E+01 0. -1.
        -13    1    6    6    0    0 -0.25827325899E+02  0.12002800829E+03  0.63824952451E+03  0.64995094359E+03  0.00000000000E+00 0.  1.
         14    1    6    6    0    0 -0.46826086520E+02  0.12508120638E+02  0.24423756985E+03  0.24900025299E+03  0.00000000000E+00 0. -1.
         -5    1    3    3    0  503  0.11358753265E+03 -0.36813381110E+02  0.23148618790E+03  0.26050968848E+03  0.47000000000E+01 0.  1.
         13    1    4    4    0    0  0.39954366816E+02 -0.56193002615E+02  0.14587637064E+03  0.16135030363E+03  0.00000000000E+00 0. -1.
        -14    1    4    4    0    0 -0.25779894400E+02 -0.63238742168E+02  0.67336535966E+02  0.95905946334E+02  0.00000000000E+00 0.  1.
</event>
<event>
12    1  0.8406581E-002  0.1745262E+03  0.7818608E-02  0.1173336E+00
         21   -1    0    0  501  502  0.00000000000E+00  0.00000000000E+00  0.26067390302E+04  0.26067390302E+04  0.00000000000E+00 0.  1.
         21   -1    0    0  502  503 -0.00000000000E+00 -0.00000000000E+00 -0.12689463983E+02  0.12689463983E+02  0.00000000000E+00 0.  1.
         -6    2    1    2    0  503  0.19771137302E+02 -0.14235612716E+02  0.92407595585E+03  0.94041254717E+03  0.17281734912E+03 0.  0.
        -24    2    3    3    0    0  0.13130366326E+02 -0.64056210292E+01  0.92575313179E+03  0.92899713969E+03  0.76179958209E+02 0.  0.
          6    2    1    2  501    0 -0.19771137302E+02  0.14235612716E+02  0.16699736104E+04  0.16790159470E+04  0.17230536979E+03 0.  0.
         24    2    5    5    0    0 -0.62357199481E+02 -0.15056119152E+02  0.66538009814E+03  0.67308265247E+03  0.78704987211E+02 0.  0.
          5    1    5    5  501    0  0.42586062178E+02  0.29291731868E+02  0.10045935122E+04  0.10059332945E+04  0.47000000000E+01 0. -1.
        -13    1    6    6    0    0 -0.20615634677E+02  0.23342196995E+02  0.96928437167E+02  0.10180856784E+03  0.00000000000E+00 0.  1.
         14    1    6    6    0    0 -0.41741564804E+02 -0.38398316147E+02  0.56845166097E+03  0.57127408463E+03  0.00000000000E+00 0. -1.
         -5    1    3    3    0  503  0.66407709760E+01 -0.78299916869E+01 -0.16771759337E+01  0.11415407487E+02  0.47000000000E+01 0.  1.
         11    1    4    4    0    0 -0.25191425305E+02  0.14039910841E+02  0.54736920500E+03  0.54812842800E+03  0.00000000000E+00 0. -1.
        -12    1    4    4    0    0  0.38321791632E+02 -0.20445531870E+02  0.37838392679E+03  0.38086871168E+03  0.00000000000E+00 0.  1.
</event>
<event>
12    1  0.8406581E-002  0.2432083E+03  0.7818608E-02  0.1117764E+00
         21   -1    0    0  501  502  0.00000000000E+00  0.00000000000E+00  0.11768763599E+03  0.11768763599E+03  0.00000000000E+00 0. -1.
         21   -1    0    0  502  503 -0.00000000000E+00 -0.00000000000E+00 -0.63890521874E+03  0.63890521874E+03  0.00000000000E+00 0.  1.
         -6    2    1    2    0  503 -0.17103078685E+03 -0.75242085099E+01 -0.84922240418E+02  0.25708919805E+03  0.17197361737E+03 0.  0.
        -24    2    3    3    0    0 -0.15808799439E+03 -0.10373045664E+02 -0.74732149097E+01  0.17837405782E+03  0.81621330029E+02 0.  0.
          6    2    1    2  501    0  0.17103078685E+03  0.75242085099E+01 -0.43629534233E+03  0.49950365668E+03  0.17274875840E+03 0.  0.
         24    2    5    5    0    0  0.12265798967E+03  0.61727407890E+02 -0.36307944529E+03  0.39625361111E+03  0.79592621579E+02 0.  0.
          5    1    5    5  501    0  0.48372797184E+02 -0.54203199380E+02 -0.73215897041E+02  0.10325004557E+03  0.47000000000E+01 0. -1.
        -11    1    6    6    0    0  0.43921767245E+01 -0.88398732780E+01 -0.88734152304E+02  0.89281489465E+02  0.00000000000E+00 0.  1.
         12    1    6    6    0    0  0.11826581294E+03  0.70567281168E+02 -0.27434529299E+03  0.30697212164E+03  0.00000000000E+00 0. -1.
         -5    1    3    3    0  503 -0.12942792466E+02  0.28488371541E+01 -0.77449025508E+02  0.78715140234E+02  0.47000000000E+01 0.  1.
         11    1    4    4    0    0 -0.57279518043E+01  0.13408908245E+02  0.16827673303E+02  0.22266091732E+02  0.00000000000E+00 0. -1.
        -12    1    4    4    0    0 -0.15236004258E+03 -0.23781953909E+02 -0.24300888213E+02  0.15610796608E+03  0.00000000000E+00 0.  1.
</event>
<event>
12    1  0.8406581E-002  0.2364423E+03  0.7818608E-02  0.1122248E+00
         21   -1    0    0  501  502  0.00000000000E+00  0.00000000000E+00  0.56118359173E+03  0.56118359173E+03  0.00000000000E+00 0.  1.
         21   -1    0    0  502  503 -0.00000000000E+00 -0.00000000000E+00 -0.14552914500E+03  0.14552914500E+03  0.00000000000E+00 0. -1.
         -6    2    1    2    0  503  0.11322542475E+03  0.11632284988E+03  0.91359470153E+01  0.23661870136E+03  0.17191260016E+03 0.  0.
        -24    2    3    3    0    0  0.75559342233E+02  0.12403595193E+03  0.56311003241E+02  0.17557935630E+03  0.81012651499E+02 0.  0.
          6    2    1    2  501    0 -0.11322542475E+03 -0.11632284988E+03  0.40651849972E+03  0.47009403536E+03  0.17140626960E+03 0.  0.
         24    2    5    5    0    0 -0.12354258521E+03 -0.36931531874E+02  0.30732300740E+03  0.34253518279E+03  0.79096220917E+02 0.  0.
          5    1    5    5  501    0  0.10317160460E+02 -0.79391318003E+02  0.99195492321E+02  0.12755885258E+03  0.47000000000E+01 0. -1.
        -11    1    6    6    0    0 -0.81794739463E+02 -0.13780582346E+02  0.26844933101E+03  0.28097211103E+03  0.00000000000E+00 0.  1.
         12    1    6    6    0    0 -0.41747845750E+02 -0.23150949528E+02  0.38873676382E+02  0.61563071758E+02  0.00000000000E+00 0. -1.
         -5    1    3    3    0  503  0.37666082520E+02 -0.77131020540E+01 -0.47175056226E+02  0.61039345062E+02  0.47000000000E+01 0.  1.
         11    1    4    4    0    0  0.31251421200E+02  0.41313522266E+02 -0.19080769842E+02  0.55204476511E+02  0.00000000000E+00 0. -1.
        -12    1    4    4    0    0  0.44307921033E+02  0.82722429664E+02  0.75391773083E+02  0.12037487979E+03  0.00000000000E+00 0.  1.
</event>
<event>
12    1  0.8406581E-002  0.2141205E+03  0.7818608E-02  0.1139006E+00
         21   -1    0    0  503  502  0.00000000000E+00  0.00000000000E+00  0.38805681630E+03  0.38805681630E+03  0.00000000000E+00 0. -1.
         21   -1    0    0  501  503 -0.00000000000E+00 -0.00000000000E+00 -0.19461897525E+03  0.19461897525E+03  0.00000000000E+00 0. -1.
          6    2    1    2  501    0 -0.72007635893E+02 -0.10596089891E+03 -0.88579872890E+02  0.22858320051E+03  0.16730533150E+03 0.  0.
         24    2    3    3    0    0 -0.79285748574E+02 -0.15628082250E+02 -0.68002268591E+02  0.13553205066E+03  0.84936219255E+02 0.  0.
         -6    2    1    2    0  502  0.72007635893E+02  0.10596089891E+03  0.28201771394E+03  0.35409259104E+03  0.17156561522E+03 0.  0.
        -24    2    5    5    0    0  0.71345671796E+02  0.11951763484E+03  0.14578503026E+03  0.21710479089E+03  0.80663159232E+02 0.  0.
          5    1    3    3  501    0  0.72781126808E+01 -0.90332816656E+02 -0.20577604299E+02  0.93051149847E+02  0.47000000000E+01 0. -1.
        -11    1    4    4    0    0  0.82295796204E+01 -0.60871911733E+01  0.12557715876E+02  0.16201114317E+02  0.00000000000E+00 0.  1.
         12    1    4    4    0    0 -0.87515328194E+02 -0.95408910764E+01 -0.80559984467E+02  0.11933093634E+03  0.00000000000E+00 0. -1.
         -5    1    5    5    0  502  0.66196409656E+00 -0.13556735935E+02  0.13623268369E+03  0.13698780015E+03  0.47000000000E+01 0.  1.
         11    1    6    6    0    0  0.80684464747E+02  0.94057771590E+02  0.14392232613E+03  0.18992230834E+03  0.00000000000E+00 0. -1.
        -12    1    6    6    0    0 -0.93387929507E+01  0.25459863250E+02  0.18627041248E+01  0.27182482542E+02  0.00000000000E+00 0.  1.
</event>
<event>
12    1  0.8406581E-002  0.1931939E+03  0.7818608E-02  0.1155754E+00
         21   -1    0    0  503  502  0.00000000000E+00  0.00000000000E+00  0.33552502731E+03  0.33552502731E+03  0.00000000000E+00 0. -1.
         21   -1    0    0  501  503 -0.00000000000E+00 -0.00000000000E+00 -0.15750250977E+03  0.15750250977E+03  0.00000000000E+00 0.  1.
          6    2    1    2  501    0 -0.44691903152E+02  0.73924245891E+02  0.22325208008E+03  0.29523780584E+03  0.17280541195E+03 0.  0.
         24    2    3    3    0    0 -0.42565200058E+01  0.88555039422E+02  0.82505297922E+02  0.14799369894E+03  0.85058202257E+02 0.  0.
         -6    2    1    2    0  502  0.44691903152E+02 -0.73924245891E+02 -0.45229562549E+02  0.19778973124E+03  0.17208400308E+03 0.  0.
        -24    2    5    5    0    0 -0.41267499873E+01 -0.10241516942E+03 -0.55392166843E+02  0.14016714761E+03  0.77927146287E+02 0.  0.
          5    1    3    3  501    0 -0.40435383147E+02 -0.14630793531E+02  0.14074678216E+03  0.14724410690E+03  0.47000000000E+01 0. -1.
        -13    1    4    4    0    0 -0.42576164509E+02  0.27908861448E+02  0.29952922701E+02  0.59066165526E+02  0.00000000000E+00 0.  1.
         14    1    4    4    0    0  0.38319644503E+02  0.60646177974E+02  0.52552375221E+02  0.88927533414E+02  0.00000000000E+00 0. -1.
         -5    1    5    5    0  502  0.48818653140E+02  0.28490923528E+02  0.10162604294E+02  0.57622583627E+02  0.47000000000E+01 0.  1.
         13    1    6    6    0    0 -0.29463856126E+02 -0.80189926425E+01 -0.81133826928E+01  0.31595095181E+02  0.00000000000E+00 0. -1.
        -14    1    6    6    0    0  0.25337106138E+02 -0.94396176776E+02 -0.47278784151E+02  0.10857205243E+03  0.00000000000E+00 0.  1.
</event>
<event>
12    1  0.8406581E-002  0.1934570E+03  0.7818608E-02  0.1155642E+00
         21   -1    0    0  501  502  0.00000000000E+00  0.00000000000E+00  0.16901910908E+02  0.16901910908E+02  0.00000000000E+00 0.  1.
         21   -1    0    0  502  503 -0.00000000000E+00 -0.00000000000E+00 -0.22987284523E+04  0.22987284523E+04  0.00000000000E+00 0.  1.
         -6    2    1    2    0  503 -0.31284937021E+02 -0.83560169738E+02 -0.13833559043E+04  0.13968175092E+04  0.17165240073E+03 0.  0.
        -24    2    3    3    0    0 -0.76497438887E+01  0.23045430929E+02 -0.67234980696E+03  0.67746006192E+03  0.79424568635E+02 0.  0.
          6    2    1    2  501    0  0.31284937021E+02  0.83560169738E+02 -0.89847063703E+03  0.91881285398E+03  0.17031302298E+03 0.  0.
         24    2    5    5    0    0 -0.52281335853E+02  0.52136664403E+02 -0.51195967932E+03  0.52209687362E+03  0.70928572104E+02 0.  0.
          5    1    5    5  501    0  0.83566272874E+02  0.31423505335E+02 -0.38651095770E+03  0.39671598036E+03  0.47000000000E+01 0. -1.
        -13    1    6    6    0    0 -0.19687369528E+02  0.59570615129E+02 -0.23900330676E+03  0.24710085259E+03  0.00000000000E+00 0.  1.
         14    1    6    6    0    0 -0.32593966326E+02 -0.74339507269E+01 -0.27295637256E+03  0.27499602103E+03  0.00000000000E+00 0. -1.
         -5    1    3    3    0  503 -0.23635193132E+02 -0.10660560067E+03 -0.71100609736E+03  0.71935744726E+03  0.47000000000E+01 0.  1.
         13    1    4    4    0    0 -0.84532867779E+01  0.16905947015E+02 -0.32622124875E+02  0.37702415482E+02  0.00000000000E+00 0. -1.
        -14    1    4    4    0    0  0.80354288925E+00  0.61394839141E+01 -0.63972768209E+03  0.63975764644E+03  0.00000000000E+00 0.  1.
</event>
<event>
12    1  0.8406581E-002  0.1853934E+03  0.7818608E-02  0.1165619E+00
         21   -1    0    0  501  502  0.00000000000E+00  0.00000000000E+00  0.58144412439E+03  0.58144412439E+03  0.00000000000E+00 0.  1.
         21   -1    0    0  502  503 -0.00000000000E+00 -0.00000000000E+00 -0.55464380308E+02  0.55464380308E+02  0.00000000000E+00 0.  1.
         -6    2    1    2    0  503 -0.89933584974E+01  0.13202339796E+02  0.25445866806E+03  0.31483319148E+03  0.18470393184E+03 0.  0.
        -24    2    3    3    0    0  0.55266038630E+01  0.71839620882E+02  0.97605787741E+02  0.14668422151E+03  0.82449357553E+02 0.  0.
          6    2    1    2  501    0  0.89933584974E+01 -0.13202339796E+02  0.27152107603E+03  0.32207531322E+03  0.17249240674E+03 0.  0.
         24    2    5    5    0    0  0.20449749271E+02  0.57527896633E+02  0.18126086223E+03  0.20673663181E+03  0.78465811775E+02 0.  0.
          5    1    5    5  501    0 -0.11456390774E+02 -0.70730236428E+02  0.90260213797E+02  0.11533868141E+03  0.47000000000E+01 0. -1.
        -13    1    6    6    0    0 -0.25114866711E+02  0.98585308877E+01  0.91248846131E+02  0.95154080740E+02  0.00000000000E+00 0.  1.
         14    1    6    6    0    0  0.45564615982E+02  0.47669365745E+02  0.90012016099E+02  0.11158255107E+03  0.00000000000E+00 0. -1.
         -5    1    3    3    0  503 -0.14519962360E+02 -0.58637281087E+02  0.15685288032E+03  0.16814896997E+03  0.47000000000E+01 0.  1.
         13    1    4    4    0    0 -0.24397501505E+02 -0.47081409790E+01  0.10651271459E+02  0.27034316245E+02  0.00000000000E+00 0. -1.
        -14    1    4    4    0    0  0.29924105368E+02  0.76547761861E+02  0.86954516282E+02  0.11964990526E+03  0.00000000000E+00 0.  1.
</event>
<event>
12    1  0.8406581E-002  0.1796009E+03  0.7818608E-02  0.1168205E+00
         21   -1    0    0  501  502  0.00000000000E+00  0.00000000000E+00  0.16692245177E+03  0.16692245177E+03  0.00000000000E+00 0.  1.
         21   -1    0    0  502  503 -0.00000000000E+00 -0.00000000000E+00 -0.22701937739E+03  0.22701937739E+03  0.00000000000E+00 0. -1.
         -6    2    1    2    0  503 -0.51380881137E+02 -0.14226456820E+02 -0.10610753576E+03  0.20860317945E+03  0.17150536526E+03 0.  0.
        -24    2    3    3    0    0 -0.21101340744E+02 -0.31836585224E+02 -0.13654814732E+03  0.16195890841E+03  0.78271685422E+02 0.  0.
          6    2    1    2  501    0  0.51380881137E+02  0.14226456820E+02  0.46010610136E+02  0.18533864970E+03  0.17143818655E+03 0.  0.
         24    2    5    5    0    0 -0.29245988192E+01 -0.46204484090E+02  0.44331400319E+02  0.10393905807E+03  0.81820823202E+02 0.  0.
          5    1    5    5  501    0  0.54305479956E+02  0.60430940909E+02  0.16792098167E+01  0.81399591633E+02  0.47000000000E+01 0. -1.
        -11    1    6    6    0    0 -0.24089829211E+02 -0.17457117563E+02  0.58421771472E+02  0.65560462223E+02  0.00000000000E+00 0.  1.
         12    1    6    6    0    0  0.21165230391E+02 -0.28747366527E+02 -0.14090371153E+02  0.38378595844E+02  0.00000000000E+00 0. -1.
         -5    1    3    3    0  503 -0.30279540393E+02  0.17610128404E+02  0.30440611558E+02  0.46644271040E+02  0.47000000000E+01 0.  1.
         13    1    4    4    0    0 -0.11177912415E+02  0.25326275937E+02 -0.31355054582E+02  0.41827089627E+02  0.00000000000E+00 0. -1.
        -14    1    4    4    0    0 -0.99234283299E+01 -0.57162861161E+02 -0.10519309273E+03  0.12013181879E+03  0.00000000000E+00 0.  1.
</event>
<event>
12    1  0.8406581E-002  0.1812501E+03  0.7818608E-02  0.1166635E+00
         21   -1    0    0  503  502  0.00000000000E+00  0.00000000000E+00  0.15822955011E+04  0.15822955011E+04  0.00000000000E+00 0. -1.
         21   -1    0    0  501  503 -0.00000000000E+00 -0.00000000000E+00 -0.65379914796E+02  0.65379914796E+02  0.00000000000E+00 0. -1.
          6    2    1    2  501    0 -0.98884454241E+01 -0.55801430782E+02  0.77853585221E+02  0.19726325475E+03  0.17216280061E+03 0.  0.
         24    2    3    3    0    0  0.20377952190E+02 -0.99273282763E+02  0.54217210786E+02  0.13906853905E+03  0.78294999849E+02 0.  0.
         -6    2    1    2    0  502  0.98884454241E+01  0.55801430782E+02  0.14390620011E+04  0.14504121612E+04  0.17200120120E+03 0.  0.
        -24    2    5    5    0    0  0.55532652842E+02  0.71188429813E+02  0.12270215654E+04  0.12329187365E+04  0.79718383883E+02 0.  0.
          5    1    3    3  501    0 -0.30266397614E+02  0.43471851981E+02  0.23636374435E+02  0.58194715702E+02  0.47000000000E+01 0. -1.
        -13    1    4    4    0    0  0.26305682343E+02  0.22078472664E+01  0.11961731722E+02  0.28981831186E+02  0.00000000000E+00 0.  1.
         14    1    4    4    0    0 -0.59277301531E+01 -0.10148113003E+03  0.42255479064E+02  0.11008670786E+03  0.00000000000E+00 0. -1.
         -5    1    5    5    0  502 -0.45644207418E+02 -0.15386999031E+02  0.21204043568E+03  0.21749342467E+03  0.47000000000E+01 0.  1.
         13    1    6    6    0    0  0.15381613001E+02  0.28077908907E+02  0.11601477646E+03  0.12035111692E+03  0.00000000000E+00 0. -1.
        -14    1    6    6    0    0  0.40151039841E+02  0.43110520906E+02  0.11110067890E+04  0.11125676196E+04  0.00000000000E+00 0.  1.
</event>
<event>
12    1  0.8406581E-002  0.1972904E+03  0.7818608E-02  0.1152420E+00
         21   -1    0    0  503  502  0.00000000000E+00  0.00000000000E+00  0.28652778857E+03  0.28652778857E+03  0.00000000000E+00 0. -1.
         21   -1    0    0  501  503 -0.00000000000E+00 -0.00000000000E+00 -0.16227540475E+03  0.16227540475E+03  0.00000000000E+00 0. -1.
          6    2    1    2  501    0 -0.30615657181E+02  0.87689168661E+02 -0.30230752570E+02  0.19959308400E+03  0.17405973692E+03 0.  0.
         24    2    3    3    0    0 -0.33220803383E+02 -0.12709886590E+02  0.15743340093E+02  0.89037829589E+02  0.80091943078E+02 0.  0.
         -6    2    1    2    0  502  0.30615657181E+02 -0.87689168661E+02  0.15448313639E+03  0.24921010933E+03  0.17208698497E+03 0.  0.
        -24    2    5    5    0    0  0.68286761159E+02 -0.29859487069E+02  0.14165234690E+03  0.17885313876E+03  0.79802175071E+02 0.  0.
          5    1    3    3  501    0  0.26051462022E+01  0.10039905525E+03 -0.45974092664E+02  0.11055525441E+03  0.47000000000E+01 0. -1.
        -13    1    4    4    0    0 -0.55366335330E+01  0.13790239403E+02 -0.27499092722E+02  0.31257400950E+02  0.00000000000E+00 0.  1.
         14    1    4    4    0    0 -0.27684169850E+02 -0.26500125992E+02  0.43242432815E+02  0.57780428639E+02  0.00000000000E+00 0. -1.
         -5    1    5    5    0  502 -0.37671103978E+02 -0.57829681592E+02  0.12830789494E+02  0.70356970564E+02  0.47000000000E+01 0.  1.
         11    1    6    6    0    0 -0.10778747570E+02 -0.25816299057E+02  0.23017478653E+02  0.36227986692E+02  0.00000000000E+00 0. -1.
        -12    1    6    6    0    0  0.79065508730E+02 -0.40431880123E+01  0.11863486824E+03  0.14262515207E+03  0.00000000000E+00 0.  1.
</event>
<event>
12    1  0.8406581E-002  0.1882783E+03  0.7818608E-02  0.1161174E+00
         21   -1    0    0  501  502  0.00000000000E+00  0.00000000000E+00  0.35563147331E+02  0.35563147331E+02  0.00000000000E+00 0. -1.
         21   -1    0    0  502  503 -0.00000000000E+00 -0.00000000000E+00 -0.14625116532E+04  0.14625116532E+04  0.00000000000E+00 0. -1.
         -6    2    1    2    0  503 -0.50788618056E+02 -0.29556822316E+02 -0.11541718609E+04  0.11694278118E+04  0.17887323171E+03 0.  0.
        -24    2    3    3    0    0 -0.53533949766E+02  0.51219413050E+02 -0.54874924455E+03  0.55861608021E+03  0.73735199360E+02 0.  0.
          6    2    1    2  501    0  0.50788618056E+02  0.29556822316E+02 -0.27277664494E+03  0.32864698871E+03  0.17363368249E+03 0.  0.
         24    2    5    5    0    0  0.62413900398E+02  0.74564911205E+02 -0.24201511757E+03  0.27270740683E+03  0.79640389643E+02 0.  0.
          5    1    5    5  501    0 -0.11625282342E+02 -0.45008088889E+02 -0.30761527369E+02  0.55939581881E+02  0.47000000000E+01 0. -1.
        -13    1    6    6    0    0  0.17516413816E+02  0.78082382695E+02 -0.16764016097E+03  0.18576034778E+03  0.00000000000E+00 0.  1.
         14    1    6    6    0    0  0.44897486582E+02 -0.35174714904E+01 -0.74374956602E+02  0.86947059045E+02  0.00000000000E+00 0. -1.
         -5    1    3    3    0  503  0.27453317102E+01 -0.80776235366E+02 -0.60542261637E+03  0.61081173160E+03  0.47000000000E+01 0.  1.
         11    1    4    4    0    0 -0.23045885380E+02 -0.81363681310E+01 -0.30251212898E+03  0.30349777841E+03  0.00000000000E+00 0. -1.
        -12    1    4    4    0    0 -0.30488064386E+02  0.59355781181E+02 -0.24623711557E+03  0.25511830180E+03  0.00000000000E+00 0.  1.
</event>
<event>
12    1  0.8406581E-002  0.1761635E+03  0.7818608E-02  0.1171587E+00
         21   -1    0    0  503  502  0.00000000000E+00  0.00000000000E+00  0.40859352077E+02  0.40859352077E+02  0.00000000000E+00 0.  1.
         21   -1    0    0  501  503 -0.00000000000E+00 -0.00000000000E+00 -0.97218928657E+03  0.97218928657E+03  0.00000000000E+00 0.  1.
          6    2    1    2  501    0  0.37820662946E+02 -0.63457331279E+01 -0.70267256168E+03  0.72440045294E+03  0.17186220181E+03 0.  0.
         24    2    3    3    0    0 -0.39250331074E+02 -0.26906863383E+02 -0.30959485318E+03  0.32328342125E+03  0.79991434237E+02 0.  0.
         -6    2    1    2    0  502 -0.37820662946E+02  0.63457331279E+01 -0.22865737281E+03  0.28864818571E+03  0.17193868120E+03 0.  0.
        -24    2    5    5    0    0  0.40504149147E+02  0.28359289544E+01 -0.13623084980E+03  0.16735578252E+03  0.88320353903E+02 0.  0.
          5    1    3    3  501    0  0.77070994020E+02  0.20561130255E+02 -0.39307770850E+03  0.40111703169E+03  0.47000000000E+01 0. -1.
        -11    1    4    4    0    0 -0.41350927970E+02 -0.52550554153E+02 -0.23753809224E+03  0.24677075444E+03  0.00000000000E+00 0.  1.
         12    1    4    4    0    0  0.21005968956E+01  0.25643690770E+02 -0.72056760947E+02  0.76512666806E+02  0.00000000000E+00 0. -1.
         -5    1    5    5    0  502 -0.78324812093E+02  0.35098041736E+01 -0.92426523011E+02  0.12129240319E+03  0.47000000000E+01 0.  1.
         13    1    6    6    0    0 -0.20836301322E+02 -0.22511509459E+02 -0.47619116031E+02  0.56643620316E+02  0.00000000000E+00 0. -1.
        -14    1    6    6    0    0  0.61340450469E+02  0.25347438413E+02 -0.88611733772E+02  0.11071216220E+03  0.00000000000E+00 0.  1.
</event>
<event>
12    1  0.8406581E-002  0.2147735E+03  0.7818608E-02  0.1140572E+00
         21   -1    0    0  503  502  0.00000000000E+00  0.00000000000E+00  0.98409033534E+02  0.98409033534E+02  0.00000000000E+00 0.  1.
         21   -1    0    0  501  503 -0.00000000000E+00 -0.00000000000E+00 -0.43930971652E+03  0.43930971652E+03  0.00000000000E+00 0. -1.
          6    2    1    2  501    0  0.66452834977E+02 -0.98577488185E+02 -0.17419829185E+03  0.27653696540E+03  0.17886908032E+03 0.  0.
         24    2    3    3    0    0  0.86115818914E+02 -0.69091260985E+02 -0.47292825484E+02  0.14469176099E+03  0.80681830330E+02 0.  0.
         -6    2    1    2    0  502 -0.66452834977E+02  0.98577488185E+02 -0.16670239114E+03  0.26118178466E+03  0.16215035298E+03 0.  0.
        -24    2    5    5    0    0 -0.44302995014E+02  0.13036994663E+03 -0.10539932945E+03  0.18850764072E+03  0.73939391466E+02 0.  0.
          5    1    3    3  501    0 -0.19662983938E+02 -0.29486227200E+02 -0.12690546636E+03  0.13184520440E+03  0.47000000000E+01 0. -1.
        -11    1    4    4    0    0  0.73891936299E+02 -0.13497714125E+02 -0.80304939163E+01  0.75542672505E+02  0.00000000000E+00 0.  1.
         12    1    4    4    0    0  0.12223882615E+02 -0.55593546860E+02 -0.39262331568E+02  0.69149088489E+02  0.00000000000E+00 0. -1.
         -5    1    5    5    0  502 -0.22149839962E+02 -0.31792458444E+02 -0.61303061695E+02  0.72674143940E+02  0.47000000000E+01 0.  1.
         11    1    6    6    0    0 -0.36126595455E+02  0.21423743958E+02 -0.93320623549E+01  0.43025516756E+02  0.00000000000E+00 0. -1.
        -12    1    6    6    0    0 -0.81763995594E+01  0.10894620267E+03 -0.96067267094E+02  0.14548212396E+03  0.00000000000E+00 0.  1.
</event>
<event>
12    1  0.8406581E-002  0.2409803E+03  0.7818608E-02  0.1119167E+00
         21   -1    0    0  503  502  0.00000000000E+00  0.00000000000E+00  0.14598166088E+04  0.14598166088E+04  0.00000000000E+00 0.  1.
         21   -1    0    0  501  503 -0.00000000000E+00 -0.00000000000E+00 -0.61586553098E+02  0.61586553098E+02  0.00000000000E+00 0.  1.
          6    2    1    2  501    0  0.21366252986E+02 -0.16748523110E+03  0.24604886820E+03  0.34429101816E+03  0.17172198532E+03 0.  0.
         24    2    3    3    0    0  0.20462907129E+02 -0.44007176310E+02  0.36483940308E+02  0.10100683238E+03  0.80721373579E+02 0.  0.
         -6    2    1    2    0  502 -0.21366252986E+02  0.16748523110E+03  0.11521811875E+04  0.11771121438E+04  0.17194095119E+03 0.  0.
        -24    2    5    5    0    0  0.35564524696E+02  0.10382647719E+03  0.91582471139E+03  0.92575577482E+03  0.79019490203E+02 0.  0.
          5    1    3    3  501    0  0.90334585765E+00 -0.12347805479E+03  0.20956492789E+03  0.24328418578E+03  0.47000000000E+01 0. -1.
        -13    1    4    4    0    0  0.33751600979E+02 -0.31683111366E+02  0.57132172979E+02  0.73532817869E+02  0.00000000000E+00 0.  1.
         14    1    4    4    0    0 -0.13288693851E+02 -0.12324064944E+02 -0.20648232671E+02  0.27474014512E+02  0.00000000000E+00 0. -1.
         -5    1    5    5    0  502 -0.56930777683E+02  0.63658753911E+02  0.23635647616E+03  0.25135636896E+03  0.47000000000E+01 0.  1.
         13    1    6    6    0    0 -0.12697625899E+01  0.10155355443E+02  0.40391044608E+03  0.40404008711E+03  0.00000000000E+00 0. -1.
        -14    1    6    6    0    0  0.36834287286E+02  0.93671121748E+02  0.51191426531E+03  0.52171568771E+03  0.00000000000E+00 0.  1.
</event>
<event>
12    1  0.8406581E-002  0.1815185E+03  0.7818608E-02  0.1170035E+00
         21   -1    0    0  501  502  0.00000000000E+00  0.00000000000E+00  0.40973826883E+03  0.40973826883E+03  0.00000000000E+00 0. -1.
         21   -1    0    0  502  503 -0.00000000000E+00 -0.00000000000E+00 -0.33990580810E+03  0.33990580810E+03  0.00000000000E+00 0. -1.
         -6    2    1    2    0  503 -0.33995537012E+02  0.42542092166E+01 -0.29685313995E+03  0.34048972589E+03  0.16321051408E+03 0.  0.
        -24    2    3    3    0    0 -0.12954378583E+02  0.60729320348E+02 -0.16782260810E+03  0.19800065026E+03  0.84758264721E+02 0.  0.
          6    2    1    2  501    0  0.33995537012E+02 -0.42542092166E+01  0.36668560068E+03  0.40915435104E+03  0.17825587900E+03 0.  0.
         24    2    5    5    0    0 -0.34647214798E+01  0.37896020237E+02  0.88214477274E+02  0.12499212734E+03  0.79957021273E+02 0.  0.
          5    1    5    5  501    0  0.37460258492E+02 -0.42150229454E+02  0.27847112341E+03  0.28416222370E+03  0.47000000000E+01 0. -1.
        -11    1    6    6    0    0  0.30094913879E+01 -0.12687811393E+02 -0.85633187396E+01  0.15600257183E+02  0.00000000000E+00 0.  1.
         12    1    6    6    0    0 -0.64742128677E+01  0.50583831630E+02  0.96777796013E+02  0.10939187015E+03  0.00000000000E+00 0. -1.
         -5    1    3    3    0  503 -0.21041158429E+02 -0.56475111132E+02 -0.12903053185E+03  0.14248907563E+03  0.47000000000E+01 0.  1.
         11    1    4    4    0    0 -0.25262640869E+02  0.31887410591E+02 -0.16079889720E+03  0.16586528666E+03  0.00000000000E+00 0. -1.
        -12    1    4    4    0    0  0.12308262286E+02  0.28841909757E+02 -0.70237109032E+01  0.32135363601E+02  0.00000000000E+00 0.  1.
</event>
<event>
12    1  0.8406581E-002  0.1885092E+03  0.7818608E-02  0.1160778E+00
         21   -1    0    0  501  502  0.00000000000E+00  0.00000000000E+00  0.49739054756E+02  0.49739054756E+02  0.00000000000E+00 0. -1.
         21   -1    0    0  502  503 -0.00000000000E+00 -0.00000000000E+00 -0.15643707191E+04  0.15643707191E+04  0.00000000000E+00 0.  1.
         -6    2    1    2    0  503  0.59694249960E+02 -0.26114379918E+02 -0.13538696834E+04  0.13663596557E+04  0.17242454818E+03 0.  0.
        -24    2    3    3    0    0  0.24113034096E+02 -0.23012552703E+02 -0.12918791955E+04  0.12946619930E+04  0.78017973752E+02 0.  0.
          6    2    1    2  501    0 -0.59694249960E+02  0.26114379918E+02 -0.16076198098E+03  0.24775011818E+03  0.17689076350E+03 0.  0.
         24    2    5    5    0    0 -0.36871287058E+02  0.39986552752E+02 -0.13077114393E+02  0.97596081825E+02  0.79972295555E+02 0.  0.
          5    1    5    5  501    0 -0.22822962902E+02 -0.13872172834E+02 -0.14768486659E+03  0.15015403636E+03  0.47000000000E+01 0. -1.
        -11    1    6    6    0    0 -0.12237509480E+02  0.54004390195E+02 -0.31582295519E+02  0.63746938662E+02  0.00000000000E+00 0.  1.
         12    1    6    6    0    0 -0.24633777578E+02 -0.14017837443E+02  0.18505181126E+02  0.33849143162E+02  0.00000000000E+00 0. -1.
         -5    1    3    3    0  503  0.35581215864E+02 -0.31018272145E+01 -0.61990487838E+02  0.71697662701E+02  0.47000000000E+01 0.  1.
         11    1    4    4    0    0  0.33207922051E+01 -0.47751887784E+00 -0.11175036508E+01  0.35361701822E+01  0.00000000000E+00 0. -1.
        -12    1    4    4    0    0  0.20792241891E+02 -0.22535033826E+02 -0.12907616919E+04  0.12911258228E+04  0.00000000000E+00 0.  1.
</event>
<event>
12    1  0.8406581E-002  0.2175354E+03  0.7818608E-02  0.1135838E+00
         21   -1    0    0  503  502  0.00000000000E+00  0.00000000000E+00  0.26529303562E+03  0.26529303562E+03  0.00000000000E+00 0.  1.
         21   -1    0    0  501  503 -0.00000000000E+00 -0.00000000000E+00 -0.18078359365E+03  0.18078359365E+03  0.00000000000E+00 0. -1.
          6    2    1    2  501    0 -0.17555648966E+02 -0.13125327114E+03  0.70353292546E+02  0.22862905422E+03  0.17258631657E+03 0.  0.
         24    2    3    3    0    0  0.26606386478E+02 -0.40840799101E+02 -0.16848348346E+02  0.95396488196E+02  0.80254298611E+02 0.  0.
         -6    2    1    2    0  502  0.17555648966E+02  0.13125327114E+03  0.14156149421E+02  0.21744757505E+03  0.17189365704E+03 0.  0.
        -24    2    5    5    0    0 -0.46416287404E+02  0.58065622973E+02 -0.15397436445E+02  0.11574042227E+03  0.87365187525E+02 0.  0.
          5    1    3    3  501    0 -0.44162035445E+02 -0.90412472040E+02  0.87201640892E+02  0.13323256602E+03  0.47000000000E+01 0. -1.
        -13    1    4    4    0    0  0.93917982986E+01 -0.38798830862E+02  0.27035480548E+02  0.48212782123E+02  0.00000000000E+00 0.  1.
         14    1    4    4    0    0  0.17214588180E+02 -0.20419682384E+01 -0.43883828894E+02  0.47183706074E+02  0.00000000000E+00 0. -1.
         -5    1    5    5    0  502  0.63971936371E+02  0.73187648168E+02  0.29553585866E+02  0.10170715277E+03  0.47000000000E+01 0.  1.
         13    1    6    6    0    0  0.21305510135E+02  0.11214107258E+02 -0.22671874531E+02  0.33071057716E+02  0.00000000000E+00 0. -1.
        -14    1    6    6    0    0 -0.67721797540E+02  0.46851515715E+02  0.72744380861E+01  0.82669364557E+02  0.00000000000E+00 0.  1.
</event>
<event>
12    1  0.8406581E-002  0.2155132E+03  0.7818608E-02  0.1137520E+00
         21   -1    0    0  501  502  0.00000000000E+00  0.00000000000E+00  0.11223968442E+04  0.11223968442E+04  0.00000000000E+00 0. -1.
         21   -1    0    0  502  503 -0.00000000000E+00 -0.00000000000E+00 -0.48275594030E+02  0.48275594030E+02  0.00000000000E+00 0. -1.
         -6    2    1    2    0  503 -0.56525315666E+02 -0.11567064333E+03  0.31056541076E+03  0.37728511597E+03  0.17122609419E+03 0.  0.
        -24    2    3    3    0    0 -0.40171425947E+02  0.16885627278E+02  0.92988448612E+02  0.12194134956E+03  0.65756925763E+02 0.  0.
          6    2    1    2  501    0  0.56525315666E+02  0.11567064333E+03  0.76355583946E+03  0.79338732231E+03  0.17283261900E+03 0.  0.
         24    2    5    5    0    0 -0.26965146016E+01  0.33703528406E+02  0.18800002412E+03  0.20899668269E+03  0.84808049659E+02 0.  0.
          5    1    5    5  501    0  0.59221830268E+02  0.81967114923E+02  0.57555581534E+03  0.58439063962E+03  0.47000000000E+01 0. -1.
        -11    1    6    6    0    0 -0.12705997708E+02 -0.26892132079E+02  0.56013347204E+02  0.63420219256E+02  0.00000000000E+00 0.  1.
         12    1    6    6    0    0  0.10009483106E+02  0.60595660485E+02  0.13198667692E+03  0.14557646343E+03  0.00000000000E+00 0. -1.
         -5    1    3    3    0  503 -0.16353889719E+02 -0.13255627061E+03  0.21757696215E+03  0.25534376641E+03  0.47000000000E+01 0.  1.
         13    1    4    4    0    0  0.38777280282E+00 -0.58506177515E+01 -0.84897962874E+01  0.10317787400E+02  0.00000000000E+00 0. -1.
        -14    1    4    4    0    0 -0.40559198750E+02  0.22736245029E+02  0.10147824490E+03  0.11162356216E+03  0.00000000000E+00 0.  1.
</event>
<event>
12    1  0.8406581E-002  0.2177008E+03  0.7818608E-02  0.1135837E+00
         21   -1    0    0  503  502  0.00000000000E+00  0.00000000000E+00  0.16833847810E+03  0.16833847810E+03  0.00000000000E+00 0.  1.
         21   -1    0    0  501  503 -0.00000000000E+00 -0.00000000000E+00 -0.29250785198E+03  0.29250785198E+03  0.00000000000E+00 0. -1.
          6    2    1    2  501    0  0.10376487460E+03  0.83287822660E+02 -0.10960494082E+03  0.24265893266E+03  0.17078086527E+03 0.  0.
         24    2    3    3    0    0  0.42644137995E+02 -0.21701567452E+02 -0.59551756186E+02  0.11118297375E+03  0.80782185232E+02 0.  0.
         -6    2    1    2    0  502 -0.10376487460E+03 -0.83287822660E+02 -0.14564433052E+02  0.21818739742E+03  0.17230672384E+03 0.  0.
        -24    2    5    5    0    0 -0.13633307142E+03 -0.85782184341E+02  0.41020024588E+01  0.18027387610E+03  0.80848960839E+02 0.  0.
          5    1    3    3  501    0  0.61120736605E+02  0.10498939011E+03 -0.50053184635E+02  0.13147595891E+03  0.47000000000E+01 0. -1.
        -11    1    4    4    0    0 -0.18485262046E+02 -0.22479731647E+02 -0.34443948079E+02  0.45093556159E+02  0.00000000000E+00 0.  1.
         12    1    4    4    0    0  0.61129400042E+02  0.77816419499E+00 -0.25107808107E+02  0.66089417587E+02  0.00000000000E+00 0. -1.
         -5    1    5    5    0  502  0.32568196818E+02  0.24943616814E+01 -0.18666435510E+02  0.37913521319E+02  0.47000000000E+01 0.  1.
         13    1    6    6    0    0 -0.32455650675E+01 -0.10909785443E+01 -0.20353990160E+02  0.20639981643E+02  0.00000000000E+00 0. -1.
        -14    1    6    6    0    0 -0.13308750635E+03 -0.84691205797E+02  0.24455992618E+02  0.15963389446E+03  0.00000000000E+00 0.  1.
</event>
<event>
12    1  0.8406581E-002  0.2514020E+03  0.7818608E-02  0.1112473E+00
         21   -1    0    0  503  502  0.00000000000E+00  0.00000000000E+00  0.62892417447E+02  0.62892417447E+02  0.00000000000E+00 0. -1.
         21   -1    0    0  501  503 -0.00000000000E+00 -0.00000000000E+00 -0.26291430754E+04  0.26291430754E+04  0.00000000000E+00 0. -1.
          6    2    1    2  501    0  0.18342828074E+03 -0.10839304717E+02 -0.23418130371E+04  0.23552688302E+04  0.17157953687E+03 0.  0.
         24    2    3    3    0    0  0.73871724326E+02 -0.17561644296E+02 -0.60372817043E+03  0.61371523575E+03  0.79957762663E+02 0.  0.
         -6    2    1    2    0  502 -0.18342828074E+03  0.10839304717E+02 -0.22443762087E+03  0.33676666258E+03  0.17110264363E+03 0.  0.
        -24    2    5    5    0    0 -0.19947660495E+03 -0.31808537233E+01 -0.22979095426E+03  0.31429753418E+03  0.78600404444E+02 0.  0.
          5    1    3    3  501    0  0.10955655642E+03  0.67223395790E+01 -0.17380848666E+04  0.17415535945E+04  0.47000000000E+01 0. -1.
        -11    1    4    4    0    0 -0.14983188045E+02 -0.13148552934E+02 -0.15280212420E+03  0.15409694847E+03  0.00000000000E+00 0.  1.
         12    1    4    4    0    0  0.88854912371E+02 -0.44130913624E+01 -0.45092604623E+03  0.45961828728E+03  0.00000000000E+00 0. -1.
         -5    1    5    5    0  502  0.16048324208E+02  0.14020158440E+02  0.53533333895E+01  0.22469128398E+02  0.47000000000E+01 0.  1.
         11    1    6    6    0    0 -0.81787462502E+02  0.49251025656E+01 -0.15293939847E+03  0.17350477014E+03  0.00000000000E+00 0. -1.
        -12    1    6    6    0    0 -0.11768914245E+03 -0.81059562889E+01 -0.76851555785E+02  0.14079276403E+03  0.00000000000E+00 0.  1.
</event>
<event>
12    1  0.8406581E-002  0.2072354E+03  0.7818608E-02  0.1144219E+00
         21   -1    0    0  501  502  0.00000000000E+00  0.00000000000E+00  0.53875371168E+03  0.53875371168E+03  0.00000000000E+00 0. -1.
         21   -1    0    0  502  503 -0.00000000000E+00 -0.00000000000E+00 -0.88758008461E+02  0.88758008461E+02  0.00000000000E+00 0. -1.
         -6    2    1    2    0  503 -0.60437400165E+01 -0.11349846346E+03  0.12135161192E+03  0.24015148112E+03  0.17328615688E+03 0.  0.
        -24    2    3    3    0    0 -0.21475253345E+02 -0.14210802381E+03  0.71280730488E+02  0.18026975006E+03  0.82221428540E+02 0.  0.
          6    2    1    2  501    0  0.60437400165E+01  0.11349846346E+03  0.32864409130E+03  0.38736023903E+03  0.17065341495E+03 0.  0.
         24    2    5    5    0    0 -0.12169308147E+02  0.10660468097E+02  0.62483246097E+02  0.10140385436E+03  0.78210280625E+02 0.  0.
          5    1    5    5  501    0  0.18213048163E+02  0.10283799536E+03  0.26616084520E+03  0.28595638467E+03  0.47000000000E+01 0. -1.
        -13    1    6    6    0    0 -0.33972825230E+02  0.18221352217E+02  0.42741586170E+01  0.38787097888E+02  0.00000000000E+00 0.  1.
         14    1    6    6    0    0  0.21803517083E+02 -0.75608841196E+01  0.58209087480E+02  0.62616756473E+02  0.00000000000E+00 0. -1.
         -5    1    3    3    0  503  0.15431513329E+02  0.28609560346E+02  0.50070881434E+02  0.59881731058E+02  0.47000000000E+01 0.  1.
         13    1    4    4    0    0  0.79568891319E+01 -0.13478109802E+03  0.61839969072E+02  0.14850400076E+03  0.00000000000E+00 0. -1.
        -14    1    4    4    0    0 -0.29432142477E+02 -0.73269257887E+01  0.94407614162E+01  0.31765749297E+02  0.00000000000E+00 0.  1.
</event>
<event>
12    1  0.8406581E-002  0.1827975E+03  0.7818608E-02  0.1165136E+00
         21   -1    0    0  503  502  0.00000000000E+00  0.00000000000E+00  0.15829404055E+04  0.15829404055E+04  0.00000000000E+00 0. -1.
         21   -1    0    0  501  503 -0.00000000000E+00 -0.00000000000E+00 -0.31414672797E+02  0.31414672797E+02  0.00000000000E+00 0. -1.
          6    2    1    2  501    0  0.61699524246E+02 -0.77704123542E+00  0.31323727116E+03  0.36264694579E+03  0.17201100013E+03 0.  0.
         24    2    3    3    0    0 -0.32815439818E+02 -0.93992693208E+01  0.14357023379E+03  0.16818251506E+03  0.80670607958E+02 0.  0.
         -6    2    1    2    0  502 -0.61699524246E+02  0.77704123542E+00  0.12382884616E+04  0.12517081325E+04  0.17206830010E+03 0.  0.
        -24    2    5    5    0    0 -0.82227834722E+02 -0.41646191214E+02  0.10641190268E+04  0.10712137443E+04  0.81570587136E+02 0.  0.
          5    1    3    3  501    0  0.94514964064E+02  0.86222280853E+01  0.16966703737E+03  0.19446443073E+03  0.47000000000E+01 0. -1.
        -11    1    4    4    0    0 -0.24891406193E+01  0.33486971268E+02  0.71604670448E+02  0.79087305528E+02  0.00000000000E+00 0.  1.
         12    1    4    4    0    0 -0.30326299199E+02 -0.42886240589E+02  0.71965563341E+02  0.89095209534E+02  0.00000000000E+00 0. -1.
         -5    1    5    5    0  502  0.20528310476E+02  0.42423232449E+02  0.17416943475E+03  0.18049438823E+03  0.47000000000E+01 0.  1.
         13    1    6    6    0    0 -0.23887515929E+02 -0.55650394682E+02  0.64238534654E+03  0.64523368890E+03  0.00000000000E+00 0. -1.
        -14    1    6    6    0    0 -0.58340318793E+02  0.14004203469E+02  0.42173368027E+03  0.42598005539E+03  0.00000000000E+00 0.  1.
</event>
<event>
12    1  0.8406581E-002  0.2131214E+03  0.7818608E-02  0.1139856E+00
         21   -1    0    0  503  502  0.00000000000E+00  0.00000000000E+00  0.22550353196E+02  0.22550353196E+02  0.00000000000E+00 0.  1.
         21   -1    0    0  501  503 -0.00000000000E+00 -0.00000000000E+00 -0.21331929785E+04  0.21331929785E+04  0.00000000000E+00 0.  1.
          6    2    1    2  501    0  0.83716336159E+02 -0.84129407040E+02 -0.13365918211E+04  0.13528888045E+04  0.17246518239E+03 0.  0.
         24    2    3    3    0    0  0.11805206685E+03 -0.36496495463E+02 -0.83253558506E+03  0.84540223746E+03  0.79505710801E+02 0.  0.
         -6    2    1    2    0  502 -0.83716336159E+02  0.84129407040E+02 -0.77405080423E+03  0.80285452718E+03  0.17701571180E+03 0.  0.
        -24    2    5    5    0    0 -0.88807463407E+02  0.10745906551E+03 -0.75498228048E+03  0.77193703797E+03  0.80338847651E+02 0.  0.
          5    1    3    3  501    0 -0.34335730691E+02 -0.47632911576E+02 -0.50405623601E+03  0.50748656704E+03  0.47000000000E+01 0. -1.
        -11    1    4    4    0    0  0.24514194619E+01 -0.21818293891E+02 -0.27186442200E+03  0.27274953960E+03  0.00000000000E+00 0.  1.
         12    1    4    4    0    0  0.11560064739E+03 -0.14678201572E+02 -0.56067116306E+03  0.57265269786E+03  0.00000000000E+00 0. -1.
         -5    1    5    5    0  502  0.50911272484E+01 -0.23329658471E+02 -0.19068523750E+02  0.30917489210E+02  0.47000000000E+01 0.  1.
         11    1    6    6    0    0  0.14567544039E+02  0.19291496672E+02 -0.14549467385E+03  0.14748923792E+03  0.00000000000E+00 0. -1.
        -12    1    6    6    0    0 -0.10337500745E+03  0.88167568839E+02 -0.60948760663E+03  0.62444780006E+03  0.00000000000E+00 0.  1.
</event>
<event>
12    1  0.8406581E-002  0.1915959E+03  0.7818608E-02  0.1157176E+00
         21   -1    0    0  501  502  0.00000000000E+00  0.00000000000E+00  0.95690770486E+03  0.95690770486E+03  0.00000000000E+00 0. -1.
         21   -1    0    0  502  503 -0.00000000000E+00 -0.00000000000E+00 -0.40511936690E+02  0.40511936690E+02  0.00000000000E+00 0.  1.
         -6    2    1    2    0  503 -0.60038299591E+02  0.56939619406E+02  0.33912614904E+03  0.38918515257E+03  0.17208085407E+03 0.  0.
        -24    2    3    3    0    0  0.20919821406E+02  0.21363281217E+02  0.24906038452E+03  0.26287670022E+03  0.78606969609E+02 0.  0.
          6    2    1    2  501    0  0.60038299591E+02 -0.56939619406E+02  0.57726961913E+03  0.60823448898E+03  0.17280701012E+03 0.  0.
         24    2    5    5    0    0  0.83793202511E+02 -0.72509583678E+02  0.55521648381E+03  0.57196949240E+03  0.81270017993E+02 0.  0.
          5    1    5    5  501    0 -0.23754902920E+02  0.15569964272E+02  0.22053135313E+02  0.36264996585E+02  0.47000000000E+01 0. -1.
        -13    1    6    6    0    0 -0.24401965203E+01  0.13479078565E+02  0.91924782297E+02  0.92939796204E+02  0.00000000000E+00 0.  1.
         14    1    6    6    0    0  0.86233399031E+02 -0.85988662243E+02  0.46329170152E+03  0.47902969620E+03  0.00000000000E+00 0. -1.
         -5    1    3    3    0  503 -0.80958120997E+02  0.35576338189E+02  0.90065764524E+02  0.12630845234E+03  0.47000000000E+01 0.  1.
         13    1    4    4    0    0  0.20079514946E+02  0.13847220158E+02  0.25312043721E+03  0.25429291803E+03  0.00000000000E+00 0. -1.
        -14    1    4    4    0    0  0.84030645999E+00  0.75160610589E+01 -0.40600526947E+01  0.85837821892E+01  0.00000000000E+00 0.  1.
</event>
<event>
12    1  0.8406581E-002  0.2231342E+03  0.7818608E-02  0.1131596E+00
         21   -1    0    0  503  502  0.00000000000E+00  0.00000000000E+00  0.13499630689E+03  0.13499630689E+03  0.00000000000E+00 0.  1.
         21   -1    0    0  501  503 -0.00000000000E+00 -0.00000000000E+00 -0.42783466505E+03  0.42783466505E+03  0.00000000000E+00 0.  1.
          6    2    1    2  501    0  0.62157316563E+02 -0.12880742396E+03 -0.25120541131E+03  0.33599555573E+03  0.17127162733E+03 0.  0.
         24    2    3    3    0    0  0.31709515783E+02 -0.94304713771E+02 -0.62688368954E+02  0.14188664084E+03  0.79392158398E+02 0.  0.
         -6    2    1    2    0  502 -0.62157316563E+02  0.12880742396E+03 -0.41632946851E+02  0.22683541620E+03  0.17107343251E+03 0.  0.
        -24    2    5    5    0    0 -0.58289670542E+02  0.82348924921E+02 -0.97406826226E+02  0.15399197834E+03  0.63611386325E+02 0.  0.
          5    1    3    3  501    0  0.30447800780E+02 -0.34502710192E+02 -0.18851704236E+03  0.19410891490E+03  0.47000000000E+01 0. -1.
        -11    1    4    4    0    0  0.27552387016E+02 -0.82387708883E+02 -0.81576028503E+02  0.11917011803E+03  0.00000000000E+00 0.  1.
         12    1    4    4    0    0  0.41571287672E+01 -0.11917004888E+02  0.18887659550E+02  0.22716522805E+02  0.00000000000E+00 0. -1.
         -5    1    5    5    0  502 -0.38676460208E+01  0.46458499042E+02  0.55773879376E+02  0.72843437862E+02  0.47000000000E+01 0.  1.
         11    1    6    6    0    0 -0.36408167230E+02  0.27635209689E+01 -0.25642432101E+02  0.44617552749E+02  0.00000000000E+00 0. -1.
        -12    1    6    6    0    0 -0.21881503311E+02  0.79585403952E+02 -0.71764394125E+02  0.10937442559E+03  0.00000000000E+00 0.  1.
</event>
<event>
12    1  0.8406581E-002  0.3033831E+03  0.7818608E-02  0.1083611E+00
         21   -1    0    0  503  502  0.00000000000E+00  0.00000000000E+00  0.89419246613E+02  0.89419246613E+02  0.00000000000E+00 0. -1.
         21   -1    0    0  501  503 -0.00000000000E+00 -0.00000000000E+00 -0.11577056286E+04  0.11577056286E+04  0.00000000000E+00 0. -1.
          6    2    1    2  501    0 -0.15900502414E+03 -0.19260515265E+03 -0.32570424623E+03  0.44511183158E+03  0.17222643256E+03 0.  0.
         24    2    3    3    0    0 -0.29524735068E+02 -0.38274900708E+02 -0.15330544894E+03  0.17992056621E+03  0.80821850172E+02 0.  0.
         -6    2    1    2    0  502  0.15900502414E+03  0.19260515265E+03 -0.74258213576E+03  0.80201304364E+03  0.17151487191E+03 0.  0.
        -24    2    5    5    0    0  0.86625621665E+02  0.15662730778E+03 -0.64894029547E+03  0.67822262609E+03  0.82621495908E+02 0.  0.
          5    1    3    3  501    0 -0.12948028907E+03 -0.15433025194E+03 -0.17239879728E+03  0.26519126536E+03  0.47000000000E+01 0. -1.
        -11    1    4    4    0    0 -0.54974294227E+02 -0.40984364232E+02 -0.11284447092E+03  0.13204455973E+03  0.00000000000E+00 0.  1.
         12    1    4    4    0    0  0.25449559159E+02  0.27094635246E+01 -0.40460978020E+02  0.47876006478E+02  0.00000000000E+00 0. -1.
         -5    1    5    5    0  502  0.72379402472E+02  0.35977844862E+02 -0.93641840291E+02  0.12379041755E+03  0.47000000000E+01 0.  1.
         11    1    6    6    0    0  0.80331737176E+02  0.64023711662E+02 -0.38363039967E+03  0.39714544842E+03  0.00000000000E+00 0. -1.
        -12    1    6    6    0    0  0.62938844890E+01  0.92603596121E+02 -0.26530989580E+03  0.28107717767E+03  0.00000000000E+00 0.  1.
</event>
<event>
12    1  0.8406581E-002  0.1782859E+03  0.7818608E-02  0.1169888E+00
         21   -1    0    0  503  502  0.00000000000E+00  0.00000000000E+00  0.13082426262E+03  0.13082426262E+03  0.00000000000E+00 0.  1.
         21   -1    0    0  501  503 -0.00000000000E+00 -0.00000000000E+00 -0.32991711891E+03  0.32991711891E+03  0.00000000000E+00 0.  1.
          6    2    1    2  501    0  0.72370321848E+01 -0.35518301181E+02 -0.21901741126E+03  0.28134557966E+03  0.17283745081E+03 0.  0.
         24    2    3    3    0    0  0.51933761367E+02 -0.71590787443E+02 -0.14108804700E+03  0.18442242618E+03  0.79268138973E+02 0.  0.
         -6    2    1    2    0  502 -0.72370321848E+01  0.35518301181E+02  0.19924554967E+02  0.17939580188E+03  0.17456214219E+03 0.  0.
        -24    2    5    5    0    0  0.55520872417E+02 -0.12199927271E+02  0.16775436778E+01  0.98336395651E+02  0.80223606610E+02 0.  0.
          5    1    3    3  501    0 -0.44696729182E+02  0.36072486262E+02 -0.77929364267E+02  0.96923153476E+02  0.47000000000E+01 0. -1.
        -11    1    4    4    0    0 -0.76605943963E+01 -0.41376077926E+02 -0.21071808576E+02  0.47060446743E+02  0.00000000000E+00 0.  1.
         12    1    4    4    0    0  0.59594355763E+02 -0.30214709517E+02 -0.12001623842E+03  0.13736197944E+03  0.00000000000E+00 0. -1.
         -5    1    5    5    0  502 -0.62757904602E+02  0.47718228452E+02  0.18247011290E+02  0.81059406226E+02  0.47000000000E+01 0.  1.
         13    1    6    6    0    0 -0.65903449319E+01  0.22641234487E+02 -0.10967380310E+02  0.26006567946E+02  0.00000000000E+00 0. -1.
        -14    1    6    6    0    0  0.62111217349E+02 -0.34841161759E+02  0.12644923988E+02  0.72329827706E+02  0.00000000000E+00 0.  1.
</event>
<event>
12    1  0.8406581E-002  0.2948984E+03  0.7818608E-02  0.1087906E+00
         21   -1    0    0  503  502  0.00000000000E+00  0.00000000000E+00  0.82393478047E+02  0.82393478047E+02  0.00000000000E+00 0.  1.
         21   -1    0    0  501  503 -0.00000000000E+00 -0.00000000000E+00 -0.12194475168E+04  0.12194475168E+04  0.00000000000E+00 0. -1.
          6    2    1    2  501    0  0.35517629791E+02  0.23564174933E+03 -0.80952994769E+03  0.86157053563E+03  0.17371389010E+03 0.  0.
         24    2    3    3    0    0  0.14981075048E+02  0.83650150482E+02 -0.18411373864E+03  0.21760569130E+03  0.78946740549E+02 0.  0.
         -6    2    1    2    0  502 -0.35517629791E+02 -0.23564174933E+03 -0.32752409107E+03  0.44027045922E+03  0.17256161502E+03 0.  0.
        -24    2    5    5    0    0 -0.16722142291E+02 -0.32674234246E+02 -0.12412424780E+03  0.15227277039E+03  0.80205561428E+02 0.  0.
          5    1    3    3  501    0  0.20536554743E+02  0.15199159885E+03 -0.62541620904E+03  0.64396484433E+03  0.47000000000E+01 0. -1.
        -11    1    4    4    0    0  0.19563228287E+02  0.89988368251E+02 -0.11168334672E+03  0.14475426162E+03  0.00000000000E+00 0.  1.
         12    1    4    4    0    0 -0.45821532388E+01 -0.63382177694E+01 -0.72430391917E+02  0.72851429678E+02  0.00000000000E+00 0. -1.
         -5    1    5    5    0  502 -0.18795487500E+02 -0.20296751508E+03 -0.20339984327E+03  0.28799768883E+03  0.47000000000E+01 0.  1.
         11    1    6    6    0    0 -0.40690273083E+02 -0.37682764059E+02 -0.51692808469E+02  0.75814480662E+02  0.00000000000E+00 0. -1.
        -12    1    6    6    0    0  0.23968130792E+02  0.50085298128E+01 -0.72431439334E+02  0.76458289730E+02  0.00000000000E+00 0.  1.
</event>
<event>
12    1  0.8406581E-002  0.2891800E+03  0.7818608E-02  0.1090943E+00
         21   -1    0    0  501  502  0.00000000000E+00  0.00000000000E+00  0.18839461180E+03  0.18839461180E+03  0.00000000000E+00 0.  1.
         21   -1    0    0  502  503 -0.00000000000E+00 -0.00000000000E+00 -0.44581248330E+03  0.44581248330E+03  0.00000000000E+00 0. -1.
         -6    2    1    2    0  503 -0.11773547419E+03 -0.19953262574E+03 -0.15793274060E+03  0.32839286752E+03  0.17095091187E+03 0.  0.
        -24    2    3    3    0    0 -0.63529393729E+02 -0.57028588394E+02 -0.12844585037E+03  0.17303113956E+03  0.78442303767E+02 0.  0.
          6    2    1    2  501    0  0.11773547419E+03  0.19953262574E+03 -0.99485130901E+02  0.30581422758E+03  0.17306108721E+03 0.  0.
         24    2    5    5    0    0  0.50504079314E+02  0.18900146353E+03 -0.39103954035E+02  0.21471569656E+03  0.79381961972E+02 0.  0.
          5    1    5    5  501    0  0.67231394875E+02  0.10531162209E+02 -0.60381176866E+02  0.91098531020E+02  0.47000000000E+01 0. -1.
        -11    1    6    6    0    0  0.54118518119E+02  0.78134009068E+02 -0.41623907423E+02  0.10376072015E+03  0.00000000000E+00 0.  1.
         12    1    6    6    0    0 -0.36144388045E+01  0.11086745446E+03  0.25199533876E+01  0.11095497642E+03  0.00000000000E+00 0. -1.
         -5    1    3    3    0  503 -0.54206080460E+02 -0.14250403734E+03 -0.29486890236E+02  0.15536172796E+03  0.47000000000E+01 0.  1.
         11    1    4    4    0    0 -0.20291180557E+02  0.18984686373E+02 -0.23237189356E+02  0.36223159640E+02  0.00000000000E+00 0. -1.
        -12    1    4    4    0    0 -0.43238213172E+02 -0.76013274767E+02 -0.10520866101E+03  0.13680797992E+03  0.00000000000E+00 0.  1.
</event>
<event>
12    1  0.8406581E-002  0.1760387E+03  0.7818608E-02  0.1172601E+00
         21   -1    0    0  503  502  0.00000000000E+00  0.00000000000E+00  0.99026466862E+02  0.99026466862E+02  0.00000000000E+00 0.  1.
         21   -1    0    0  501  503 -0.00000000000E+00 -0.00000000000E+00 -0.39844733026E+03  0.39844733026E+03  0.00000000000E+00 0.  1.
          6    2    1    2  501    0 -0.24318979138E+02 -0.64030689446E+00 -0.27033989023E+03  0.32260389871E+03  0.17434963858E+03 0.  0.
         24    2    3    3    0    0 -0.71058912753E+02 -0.21170437609E+02 -0.23801850087E+03  0.26199969200E+03  0.80582103086E+02 0.  0.
         -6    2    1    2    0  502  0.24318979138E+02  0.64030689446E+00 -0.29080973171E+02  0.17486989841E+03  0.17071015093E+03 0.  0.
        -24    2    5    5    0    0 -0.21435499131E+02 -0.12317098402E+02 -0.72191482658E+02  0.11051173916E+03  0.79937743205E+02 0.  0.
          5    1    3    3  501    0  0.46739933615E+02  0.20530130714E+02 -0.32321389354E+02  0.60604206713E+02  0.47000000000E+01 0. -1.
        -11    1    4    4    0    0 -0.55239507078E+02 -0.29188283492E+00 -0.58042947205E+02  0.80127848205E+02  0.00000000000E+00 0.  1.
         12    1    4    4    0    0 -0.15819405675E+02 -0.20878554774E+02 -0.17997555367E+03  0.18187184379E+03  0.00000000000E+00 0. -1.
         -5    1    5    5    0  502  0.45754478269E+02  0.12957405296E+02  0.43110509487E+02  0.64358159249E+02  0.47000000000E+01 0.  1.
         11    1    6    6    0    0 -0.45820007566E+01  0.33859099297E+02 -0.34623956374E+02  0.48644133162E+02  0.00000000000E+00 0. -1.
        -12    1    6    6    0    0 -0.16853498374E+02 -0.46176197699E+02 -0.37567526284E+02  0.61867606002E+02  0.00000000000E+00 0.  1.
</event>
<event>
12    1  0.8406581E-002  0.1880407E+03  0.7818608E-02  0.1160505E+00
         21   -1    0    0  503  502  0.00000000000E+00  0.00000000000E+00  0.34320961770E+03  0.34320961770E+03  0.00000000000E+00 0.  1.
         21   -1    0    0  501  503 -0.00000000000E+00 -0.00000000000E+00 -0.15646887742E+03  0.15646887742E+03  0.00000000000E+00 0.  1.
          6    2    1    2  501    0  0.29515287250E+02 -0.66379203517E+02 -0.53315272199E+02  0.19545291233E+03  0.17344155167E+03 0.  0.
         24    2    3    3    0    0  0.58937618061E+02 -0.24049234570E+01 -0.66462045315E+02  0.12366635577E+03  0.86004288276E+02 0.  0.
         -6    2    1    2    0  502 -0.29515287250E+02  0.66379203517E+02  0.24005601248E+03  0.30422558280E+03  0.17218874893E+03 0.  0.
        -24    2    5    5    0    0 -0.29091284436E+02  0.48466337324E+02  0.47342306940E+02  0.11062363845E+03  0.82468216137E+02 0.  0.
          5    1    3    3  501    0 -0.29422330811E+02 -0.63974280060E+02  0.13146773116E+02  0.71786556561E+02  0.47000000000E+01 0. -1.
        -11    1    4    4    0    0  0.24739486674E+01 -0.31084098823E+01 -0.67077409315E+02  0.67194951257E+02  0.00000000000E+00 0.  1.
         12    1    4    4    0    0  0.56463669393E+02  0.70348642526E+00  0.61536400072E+00  0.56471404510E+02  0.00000000000E+00 0. -1.
         -5    1    5    5    0  502 -0.42400281385E+00  0.17912866192E+02  0.19271370554E+03  0.19360194435E+03  0.47000000000E+01 0.  1.
         11    1    6    6    0    0  0.21736932332E+02 -0.73384033869E+01  0.19696194868E+02  0.30237170565E+02  0.00000000000E+00 0. -1.
        -12    1    6    6    0    0 -0.50828216768E+02  0.55804740711E+02  0.27646112072E+02  0.80386467881E+02  0.00000000000E+00 0.  1.
</event>
<event>
12    1  0.8406581E-002  0.1821165E+03  0.7818608E-02  0.1166189E+00
         21   -1    0    0  501  502  0.00000000000E+00  0.00000000000E+00  0.40637167640E+03  0.40637167640E+03  0.00000000000E+00 0. -1.
         21   -1    0    0  502  503 -0.00000000000E+00 -0.00000000000E+00 -0.94822231881E+02  0.94822231881E+02  0.00000000000E+00 0. -1.
         -6    2    1    2    0  503 -0.52596311872E+02  0.25675314823E+02  0.58885566946E+02  0.18973689722E+03  0.17060769724E+03 0.  0.
        -24    2    3    3    0    0  0.56465944069E+01 -0.33598080108E+02  0.24017121170E+02  0.99495720421E+02  0.90343019971E+02 0.  0.
          6    2    1    2  501    0  0.52596311872E+02 -0.25675314823E+02  0.25266387758E+03  0.31145701107E+03  0.17245533015E+03 0.  0.
         24    2    5    5    0    0  0.91022522296E+02  0.19229690598E+02  0.15124282291E+03  0.19397784913E+03  0.78090549406E+02 0.  0.
          5    1    5    5  501    0 -0.38426210424E+02 -0.44905005421E+02  0.10142105467E+03  0.11747916194E+03  0.47000000000E+01 0. -1.
        -13    1    6    6    0    0  0.36800625034E+02  0.35593791411E+02  0.28024055615E+02  0.58365672128E+02  0.00000000000E+00 0.  1.
         14    1    6    6    0    0  0.54221897262E+02 -0.16364100813E+02  0.12321876729E+03  0.13561217700E+03  0.00000000000E+00 0. -1.
         -5    1    3    3    0  503 -0.58242906279E+02  0.59273394931E+02  0.34868445776E+02  0.90241176795E+02  0.47000000000E+01 0.  1.
         11    1    4    4    0    0 -0.19317656771E+02  0.25678623990E+02  0.10153455922E+02  0.33699499407E+02  0.00000000000E+00 0. -1.
        -12    1    4    4    0    0  0.24964251178E+02 -0.59276704098E+02  0.13863665247E+02  0.65796221014E+02  0.00000000000E+00 0.  1.
</event>
<event>
12    1  0.8406581E-002  0.2896481E+03  0.7818608E-02  0.1090930E+00
         21   -1    0    0  503  502  0.00000000000E+00  0.00000000000E+00  0.22175478547E+04  0.22175478547E+04  0.00000000000E+00 0. -1.
         21   -1    0    0  501  503 -0.00000000000E+00 -0.00000000000E+00 -0.48122459082E+02  0.48122459082E+02  0.00000000000E+00 0. -1.
          6    2    1    2  501    0 -0.18992717853E+03 -0.13517008208E+03  0.55538869744E+03  0.62638057491E+03  0.17190908978E+03 0.  0.
         24    2    3    3    0    0 -0.13789481666E+03 -0.30918769612E+02  0.23978986223E+03  0.28992787746E+03  0.81166774773E+02 0.  0.
         -6    2    1    2    0  502  0.18992717853E+03  0.13517008208E+03  0.16140366981E+04  0.16392897388E+04  0.16677260166E+03 0.  0.
        -24    2    5    5    0    0  0.12068372220E+03  0.12441207706E+03  0.14219831484E+04  0.14347975705E+04  0.81025109908E+02 0.  0.
          5    1    3    3  501    0 -0.52032361871E+02 -0.10425131247E+03  0.31559883521E+03  0.33645269745E+03  0.47000000000E+01 0. -1.
        -13    1    4    4    0    0 -0.39696674336E+02 -0.38567083851E+02  0.43803100658E+02  0.70582983341E+02  0.00000000000E+00 0.  1.
         14    1    4    4    0    0 -0.98198142323E+02  0.76483142390E+01  0.19598676157E+03  0.21934489412E+03  0.00000000000E+00 0. -1.
         -5    1    5    5    0  502  0.69243456334E+02  0.10758005028E+02  0.19205354978E+03  0.20449216831E+03  0.47000000000E+01 0.  1.
         13    1    6    6    0    0  0.13086220251E+03  0.10926615848E+03  0.11975707536E+04  0.12096444598E+04  0.00000000000E+00 0. -1.
        -14    1    6    6    0    0 -0.10178480311E+02  0.15145918574E+02  0.22441239478E+03  0.22515311067E+03  0.00000000000E+00 0.  1.
</event>
<event>
12    1  0.8406581E-002  0.2159391E+03  0.7818608E-02  0.1137390E+00
         21   -1    0    0  503  502  0.00000000000E+00  0.00000000000E+00  0.24705955121E+03  0.24705955121E+03  0.00000000000E+00 0. -1.
         21   -1    0    0  501  503 -0.00000000000E+00 -0.00000000000E+00 -0.47080270610E+03  0.47080270610E+03  0.00000000000E+00 0. -1.
          6    2    1    2  501    0  0.58385826931E+02 -0.11640181275E+03 -0.39091786860E+03  0.44659431389E+03  0.17225392423E+03 0.  0.
         24    2    3    3    0    0  0.17672903475E+01 -0.12090995157E+03 -0.34206482588E+03  0.37152972981E+03  0.80022842528E+02 0.  0.
         -6    2    1    2    0  502 -0.58385826931E+02  0.11640181275E+03  0.16717471371E+03  0.27126794341E+03  0.16935355155E+03 0.  0.
        -24    2    5    5    0    0 -0.94418039195E+02  0.11854262465E+03  0.11077065053E+03  0.20413813081E+03  0.80219196265E+02 0.  0.
          5    1    3    3  501    0  0.56618536584E+02  0.45081388135E+01 -0.48853042720E+02  0.75064584082E+02  0.47000000000E+01 0. -1.
        -11    1    4    4    0    0 -0.54248426516E+01 -0.22875247679E+02 -0.18327410633E+03  0.18477582072E+03  0.00000000000E+00 0.  1.
         12    1    4    4    0    0  0.71921329991E+01 -0.98034703886E+02 -0.15879071955E+03  0.18675390908E+03  0.00000000000E+00 0. -1.
         -5    1    5    5    0  502  0.36032212263E+02 -0.21408118997E+01  0.56404063182E+02  0.67129812599E+02  0.47000000000E+01 0.  1.
         11    1    6    6    0    0 -0.43764460301E+02  0.79127423240E+02  0.19405496563E+02  0.92482703199E+02  0.00000000000E+00 0. -1.
        -12    1    6    6    0    0 -0.50653578894E+02  0.39415201411E+02  0.91365153964E+02  0.11165542762E+03  0.00000000000E+00 0.  1.
</event>
<event>
12    1  0.8406581E-002  0.1778186E+03  0.7818608E-02  0.1170538E+00
         21   -1    0    0  501  502  0.00000000000E+00  0.00000000000E+00  0.10180256601E+04  0.10180256601E+04  0.00000000000E+00 0. -1.
         21   -1    0    0  502  503 -0.00000000000E+00 -0.00000000000E+00 -0.31338102451E+02  0.31338102451E+02  0.00000000000E+00 0. -1.
         -6    2    1    2    0  503  0.31936561813E+02 -0.21433595459E+02  0.41798648704E+03  0.45423798610E+03  0.17360904837E+03 0.  0.
        -24    2    3    3    0    0  0.67884901166E+02 -0.55541817585E+02  0.21311871737E+03  0.24340974566E+03  0.78329198149E+02 0.  0.
          6    2    1    2  501    0 -0.31936561813E+02  0.21433595459E+02  0.56870107060E+03  0.59512577643E+03  0.17109774716E+03 0.  0.
         24    2    5    5    0    0 -0.74741861099E+01  0.64553271184E+02  0.49849588781E+03  0.50905271474E+03  0.80084504979E+02 0.  0.
          5    1    5    5  501    0 -0.24462375703E+02 -0.43119675725E+02  0.70205182780E+02  0.86073061691E+02  0.47000000000E+01 0. -1.
        -13    1    6    6    0    0  0.32969500104E+02  0.22733420580E+02  0.28389996770E+03  0.28671063462E+03  0.00000000000E+00 0.  1.
         14    1    6    6    0    0 -0.40443686214E+02  0.41819850605E+02  0.21459592012E+03  0.22234208012E+03  0.00000000000E+00 0. -1.
         -5    1    3    3    0  503 -0.35948339353E+02  0.34108222125E+02  0.20486776966E+03  0.21082824044E+03  0.47000000000E+01 0.  1.
         11    1    4    4    0    0 -0.13561914838E+02 -0.15296117953E+02  0.77674201412E+02  0.80319227608E+02  0.00000000000E+00 0. -1.
        -12    1    4    4    0    0  0.81446816003E+02 -0.40245699632E+02  0.13544451596E+03  0.16309051805E+03  0.00000000000E+00 0.  1.
</event>
<event>
12    1  0.8406581E-002  0.1777834E+03  0.7818608E-02  0.1170160E+00
         21   -1    0    0  503  502  0.00000000000E+00  0.00000000000E+00  0.28937574938E+02  0.28937574938E+02  0.00000000000E+00 0.  1.
         21   -1    0    0  501  503 -0.00000000000E+00 -0.00000000000E+00 -0.10884814359E+04  0.10884814359E+04  0.00000000000E+00 0.  1.
          6    2    1    2  501    0 -0.35641067257E+02 -0.17936935880E+02 -0.54846012866E+03  0.57655480248E+03  0.17324811162E+03 0.  0.
         24    2    3    3    0    0 -0.15827862230E+02  0.26804466569E+02 -0.13384121612E+03  0.15903200211E+03  0.80054393455E+02 0.  0.
         -6    2    1    2    0  502  0.35641067257E+02  0.17936935880E+02 -0.51108373231E+03  0.54086420837E+03  0.17243981885E+03 0.  0.
        -24    2    5    5    0    0  0.67311105033E+01 -0.51914741244E+02 -0.22694062174E+03  0.24679884203E+03  0.81652767413E+02 0.  0.
          5    1    3    3  501    0 -0.19813205027E+02 -0.44741402450E+02 -0.41461891255E+03  0.41752280037E+03  0.47000000000E+01 0. -1.
        -11    1    4    4    0    0 -0.31406444929E+02 -0.18813746777E+02 -0.45555744640E+02  0.58443543018E+02  0.00000000000E+00 0.  1.
         12    1    4    4    0    0  0.15578582699E+02  0.45618213346E+02 -0.88285471476E+02  0.10058845909E+03  0.00000000000E+00 0. -1.
         -5    1    5    5    0  502  0.28909956754E+02  0.69851677125E+02 -0.28414311057E+03  0.29406536634E+03  0.47000000000E+01 0.  1.
         13    1    6    6    0    0 -0.32436658777E+02 -0.13802966029E+01 -0.89739782884E+02  0.95432021269E+02  0.00000000000E+00 0. -1.
        -14    1    6    6    0    0  0.39167769281E+02 -0.50534444641E+02 -0.13720083886E+03  0.15136682076E+03  0.00000000000E+00 0.  1.
</event>
<event>
12    1  0.8406581E-002  0.1781911E+03  0.7818608E-02  0.1170608E+00
         21   -1    0    0  503  502  0.00000000000E+00  0.00000000000E+00  0.24959563721E+03  0.24959563721E+03  0.00000000000E+00 0.  1.
         21   -1    0    0  501  503 -0.00000000000E+00 -0.00000000000E+00 -0.30369563761E+03  0.30369563761E+03  0.00000000000E+00 0.  1.
          6    2    1    2  501    0 -0.44269185532E+02 -0.43917473222E+00 -0.23957429998E+03  0.29608944243E+03  0.16826514506E+03 0.  0.
         24    2    3    3    0    0 -0.56224710340E+02 -0.50724895341E+02 -0.20835816366E+03  0.23552439114E+03  0.79525979394E+02 0.  0.
         -6    2    1    2    0  502  0.44269185532E+02  0.43917473222E+00  0.18547429958E+03  0.25720183239E+03  0.17260391977E+03 0.  0.
        -24    2    5    5    0    0  0.79095094645E+02 -0.39507856942E+02  0.15774883869E+03  0.19720682872E+03  0.78669768185E+02 0.  0.
          5    1    3    3  501    0  0.11955524808E+02  0.50285720609E+02 -0.31216136325E+02  0.60565051289E+02  0.47000000000E+01 0. -1.
        -11    1    4    4    0    0  0.12234729378E+00 -0.28361192994E+02 -0.14533713782E+03  0.14807854627E+03  0.00000000000E+00 0.  1.
         12    1    4    4    0    0 -0.56347057634E+02 -0.22363702347E+02 -0.63021025840E+02  0.87445844867E+02  0.00000000000E+00 0. -1.
         -5    1    5    5    0  502 -0.34825909112E+02  0.39947031674E+02  0.27725460887E+02  0.59995003679E+02  0.47000000000E+01 0.  1.
         13    1    6    6    0    0  0.45954473737E+01 -0.22086181797E+02  0.76623543190E+00  0.22572210341E+02  0.00000000000E+00 0. -1.
        -14    1    6    6    0    0  0.74499647271E+02 -0.17421675145E+02  0.15698260326E+03  0.17463461837E+03  0.00000000000E+00 0.  1.
</event>
<event>
12    1  0.8406581E-002  0.2501628E+03  0.7818608E-02  0.1113317E+00
         21   -1    0    0  503  502  0.00000000000E+00  0.00000000000E+00  0.24156326602E+04  0.24156326602E+04  0.00000000000E+00 0. -1.
         21   -1    0    0  501  503 -0.00000000000E+00 -0.00000000000E+00 -0.29554975300E+02  0.29554975300E+02  0.00000000000E+00 0. -1.
          6    2    1    2  501    0  0.13114833920E+03 -0.12462190388E+03  0.76061843600E+03  0.80070082966E+03  0.17277415212E+03 0.  0.
         24    2    3    3    0    0  0.13560757295E+03 -0.10941006456E+03  0.44711930991E+03  0.48676600063E+03  0.81642427742E+02 0.  0.
         -6    2    1    2    0  502 -0.13114833920E+03  0.12462190388E+03  0.16254592489E+04  0.16444868059E+04  0.17172238914E+03 0.  0.
        -24    2    5    5    0    0 -0.25382426552E+02  0.52393432219E+02  0.38063090569E+03  0.39307836953E+03  0.79002398120E+02 0.  0.
          5    1    3    3  501    0 -0.44592337546E+01 -0.15211839323E+02  0.31349912609E+03  0.31393482903E+03  0.47000000000E+01 0. -1.
        -13    1    4    4    0    0  0.15905559455E+02 -0.29218276732E+02  0.18209281515E+03  0.18510669315E+03  0.00000000000E+00 0.  1.
         14    1    4    4    0    0  0.11970201350E+03 -0.80191787823E+02  0.26502649476E+03  0.30165930749E+03  0.00000000000E+00 0. -1.
         -5    1    5    5    0  502 -0.10576591265E+03  0.72228471660E+02  0.12448283433E+04  0.12514084364E+04  0.47000000000E+01 0.  1.
         13    1    6    6    0    0 -0.24653008566E+02  0.69415214179E+02  0.35310151397E+03  0.36070337115E+03  0.00000000000E+00 0. -1.
        -14    1    6    6    0    0 -0.72941798622E+00 -0.17021781960E+02  0.27529391722E+02  0.32374998382E+02  0.00000000000E+00 0.  1.
</event>
<event>
12    1  0.8406581E-002  0.1759487E+03  0.7818608E-02  0.1172414E+00
         21   -1    0    0  501  502  0.00000000000E+00  0.00000000000E+00  0.10621510728E+03  0.10621510728E+03  0.00000000000E+00 0.  1.
         21   -1    0    0  502  503 -0.00000000000E+00 -0.00000000000E+00 -0.39651336620E+03  0.39651336620E+03  0.00000000000E+00 0.  1.
         -6    2    1    2    0  503 -0.44193509458E+02 -0.88269398329E+01 -0.27630162416E+03  0.32622393063E+03  0.16747681708E+03 0.  0.
        -24    2    3    3    0    0  0.30668759777E+01  0.17120578439E+02 -0.61632607471E+02  0.10483808090E+03  0.83005571917E+02 0.  0.
          6    2    1    2  501    0  0.44193509458E+02  0.88269398329E+01 -0.13996634762E+02  0.17650454285E+03  0.17007929538E+03 0.  0.
         24    2    5    5    0    0  0.15538051484E+02 -0.54653662041E+02 -0.35486785093E+02  0.10346456306E+03  0.78848906616E+02 0.  0.
          5    1    5    5  501    0  0.28655457974E+02  0.63480601874E+02  0.21490150331E+02  0.73039979787E+02  0.47000000000E+01 0. -1.
        -13    1    6    6    0    0  0.14247857569E+01  0.39250316443E+00  0.22340263010E+02  0.22389091642E+02  0.00000000000E+00 0.  1.
         14    1    6    6    0    0  0.14113265727E+02 -0.55046165206E+02 -0.57827048103E+02  0.81075471418E+02  0.00000000000E+00 0. -1.
         -5    1    3    3    0  503 -0.47260385435E+02 -0.25947518272E+02 -0.21466901668E+03  0.22138584973E+03  0.47000000000E+01 0.  1.
         11    1    4    4    0    0  0.36231130559E+02  0.76217843723E+01 -0.59747267484E+02  0.70288849688E+02  0.00000000000E+00 0. -1.
        -12    1    4    4    0    0 -0.33164254581E+02  0.94987940671E+01 -0.18853399868E+01  0.34549231215E+02  0.00000000000E+00 0.  1.
</event>
<event>
12    1  0.8406581E-002  0.1924304E+03  0.7818608E-02  0.1156579E+00
         21   -1    0    0  501  502  0.00000000000E+00  0.00000000000E+00  0.20038981053E+02  0.20038981053E+02  0.00000000000E+00 0. -1.
         21   -1    0    0  502  503 -0.00000000000E+00 -0.00000000000E+00 -0.18520378504E+04  0.18520378504E+04  0.00000000000E+00 0. -1.
         -6    2    1    2    0  503 -0.39547495574E+02  0.76891664540E+02 -0.10018109063E+04  0.10198787746E+04  0.17044439116E+03 0.  0.
        -24    2    3    3    0    0 -0.85310964632E+01  0.10793024775E+03 -0.58598792153E+03  0.60172060441E+03  0.83451324749E+02 0.  0.
          6    2    1    2  501    0  0.39547495574E+02 -0.76891664540E+02 -0.83018796313E+03  0.85219805691E+03  0.17191027190E+03 0.  0.
         24    2    5    5    0    0 -0.31181973738E+02 -0.22317367335E+01 -0.45241754701E+03  0.46065069075E+03  0.80871044935E+02 0.  0.
          5    1    5    5  501    0  0.70729469312E+02 -0.74659927807E+02 -0.37777041612E+03  0.39154736616E+03  0.47000000000E+01 0. -1.
        -13    1    6    6    0    0  0.10925103163E+02 -0.24354127932E+02 -0.64166593772E+02  0.69497001251E+02  0.00000000000E+00 0.  1.
         14    1    6    6    0    0 -0.42107076901E+02  0.22122391199E+02 -0.38825095324E+03  0.39115368950E+03  0.00000000000E+00 0. -1.
         -5    1    3    3    0  503 -0.31016399110E+02 -0.31038583213E+02 -0.41582298472E+03  0.41815817018E+03  0.47000000000E+01 0.  1.
         11    1    4    4    0    0  0.26220547429E+02  0.25757338496E+02 -0.81507769500E+02  0.89411822947E+02  0.00000000000E+00 0. -1.
        -12    1    4    4    0    0 -0.34751643892E+02  0.82172909257E+02 -0.50448015203E+03  0.51230878146E+03  0.00000000000E+00 0.  1.
</event>
<event>
12    1  0.8406581E-002  0.2200560E+03  0.7818608E-02  0.1133892E+00
         21   -1    0    0  503  502  0.00000000000E+00  0.00000000000E+00  0.12843130457E+03  0.12843130457E+03  0.00000000000E+00 0. -1.
         21   -1    0    0  501  503 -0.00000000000E+00 -0.00000000000E+00 -0.39316733332E+03  0.39316733332E+03  0.00000000000E+00 0. -1.
          6    2    1    2  501    0  0.13191499003E+03 -0.35759659248E+02 -0.78722433590E+02  0.23345682561E+03  0.17211783768E+03 0.  0.
         24    2    3    3    0    0  0.70210536329E+02 -0.52527879874E+02 -0.11028830599E+03  0.16199279878E+03  0.79934090620E+02 0.  0.
         -6    2    1    2    0  502 -0.13191499003E+03  0.35759659248E+02 -0.18601359516E+03  0.28814181228E+03  0.17246544169E+03 0.  0.
        -24    2    5    5    0    0 -0.17048763892E+02  0.38981300345E+02 -0.13630423264E+03  0.16285119172E+03  0.78303669664E+02 0.  0.
          5    1    3    3  501    0  0.61704453698E+02  0.16768220627E+02  0.31565872402E+02  0.71464026822E+02  0.47000000000E+01 0. -1.
        -11    1    4    4    0    0  0.42305381804E+02  0.15286603013E+02 -0.36078644684E+02  0.57663629469E+02  0.00000000000E+00 0.  1.
         12    1    4    4    0    0  0.27905154525E+02 -0.67814482887E+02 -0.74209661309E+02  0.10432916931E+03  0.00000000000E+00 0. -1.
         -5    1    5    5    0  502 -0.11486622613E+03 -0.32216410971E+01 -0.49709362520E+02  0.12529062056E+03  0.47000000000E+01 0.  1.
         13    1    6    6    0    0 -0.57155258553E+01 -0.23399103602E+02 -0.52536517659E+02  0.57795077411E+02  0.00000000000E+00 0. -1.
        -14    1    6    6    0    0 -0.11333238037E+02  0.62380403947E+02 -0.83767714978E+02  0.10505611431E+03  0.00000000000E+00 0.  1.
</event>
<event>
12    1  0.8406581E-002  0.2379673E+03  0.7818608E-02  0.1121706E+00
         21   -1    0    0  503  502  0.00000000000E+00  0.00000000000E+00  0.30379568800E+03  0.30379568800E+03  0.00000000000E+00 0. -1.
         21   -1    0    0  501  503 -0.00000000000E+00 -0.00000000000E+00 -0.23398741004E+03  0.23398741004E+03  0.00000000000E+00 0. -1.
          6    2    1    2  501    0 -0.15944998282E+03 -0.69915232458E+01 -0.89357528442E+02  0.25419124380E+03  0.17650847605E+03 0.  0.
         24    2    3    3    0    0 -0.19869895863E+02  0.14439269842E+01  0.10350046140E+02  0.82384818066E+02  0.79266872689E+02 0.  0.
         -6    2    1    2    0  502  0.15944998282E+03  0.69915232458E+01  0.15916580640E+03  0.28359185424E+03  0.17209708727E+03 0.  0.
        -24    2    5    5    0    0  0.14818313580E+03  0.50066941848E+02  0.16164762452E+03  0.23875121474E+03  0.80045284863E+02 0.  0.
          5    1    3    3  501    0 -0.13958008696E+03 -0.84354502300E+01 -0.99707574583E+02  0.17180642574E+03  0.47000000000E+01 0. -1.
        -11    1    4    4    0    0 -0.53433213537E+01 -0.38646444133E+02  0.67309662236E+01  0.39590461396E+02  0.00000000000E+00 0.  1.
         12    1    4    4    0    0 -0.14526574509E+02  0.40090371118E+02  0.36190799166E+01  0.42794356670E+02  0.00000000000E+00 0. -1.
         -5    1    5    5    0  502  0.11266847020E+02 -0.43075418602E+02 -0.24818181157E+01  0.44840639499E+02  0.47000000000E+01 0.  1.
         11    1    6    6    0    0  0.88100922700E+02  0.67138854001E+02  0.12193565995E+03  0.16473525265E+03  0.00000000000E+00 0. -1.
        -12    1    6    6    0    0  0.60082213100E+02 -0.17071912153E+02  0.39711964565E+02  0.74015962097E+02  0.00000000000E+00 0.  1.
</event>
<event>
12    1  0.8406581E-002  0.2140129E+03  0.7818608E-02  0.1139750E+00
         21   -1    0    0  501  502  0.00000000000E+00  0.00000000000E+00  0.76394835842E+02  0.76394835842E+02  0.00000000000E+00 0.  1.
         21   -1    0    0  502  503 -0.00000000000E+00 -0.00000000000E+00 -0.72372269016E+03  0.72372269016E+03  0.00000000000E+00 0. -1.
         -6    2    1    2    0  503 -0.10739434772E+03  0.65582776812E+02 -0.50556666093E+03  0.54899834865E+03  0.17310947878E+03 0.  0.
        -24    2    3    3    0    0 -0.33278120166E+02  0.49532432852E+02 -0.43117552133E+03  0.44266415669E+03  0.80488075158E+02 0.  0.
          6    2    1    2  501    0  0.10739434772E+03 -0.65582776812E+02 -0.14176119339E+03  0.25111917735E+03  0.16471174441E+03 0.  0.
         24    2    5    5    0    0  0.69442975128E+02 -0.10266776133E+03 -0.85714516520E+02  0.17379568321E+03  0.86573466768E+02 0.  0.
          5    1    5    5  501    0  0.37951372594E+02  0.37084984518E+02 -0.56046676866E+02  0.77323494141E+02  0.47000000000E+01 0. -1.
        -13    1    6    6    0    0  0.51513337084E+02 -0.17661573163E+02 -0.41239072838E+01  0.54612834347E+02  0.00000000000E+00 0.  1.
         14    1    6    6    0    0  0.17929638044E+02 -0.85006188166E+02 -0.81590609236E+02  0.11918284886E+03  0.00000000000E+00 0. -1.
         -5    1    3    3    0  503 -0.74116227556E+02  0.16050343960E+02 -0.74391139604E+02  0.10633419196E+03  0.47000000000E+01 0.  1.
         13    1    4    4    0    0  0.12083009783E+02  0.42988509775E+02 -0.30835079202E+03  0.31156736357E+03  0.00000000000E+00 0. -1.
        -14    1    4    4    0    0 -0.45361129949E+02  0.65439230766E+01 -0.12282472930E+03  0.13109679312E+03  0.00000000000E+00 0.  1.
</event>
<event>
12    1  0.8406581E-002  0.1833603E+03  0.7818608E-02  0.1164849E+00
         21   -1    0    0  503  502  0.00000000000E+00  0.00000000000E+00  0.11013805370E+04  0.11013805370E+04  0.00000000000E+00 0.  1.
         21   -1    0    0  501  503 -0.00000000000E+00 -0.00000000000E+00 -0.31494188058E+02  0.31494188058E+02  0.00000000000E+00 0.  1.
          6    2    1    2  501    0  0.40919760116E+02  0.48117845066E+02  0.42827362835E+03  0.46587478409E+03  0.17213732869E+03 0.  0.
         24    2    3    3    0    0 -0.19898388998E+02  0.40585255996E+02  0.11655543689E+03  0.14815492629E+03  0.79508511645E+02 0.  0.
         -6    2    1    2    0  502 -0.40919760116E+02 -0.48117845066E+02  0.64161272059E+03  0.66699994096E+03  0.17097451343E+03 0.  0.
        -24    2    5    5    0    0 -0.55136061908E+02 -0.61994951792E+02  0.25556709132E+03  0.28041489831E+03  0.80216068571E+02 0.  0.
          5    1    3    3  501    0  0.60818149114E+02  0.75325890700E+01  0.31171819145E+03  0.31771985780E+03  0.47000000000E+01 0. -1.
        -11    1    4    4    0    0 -0.41733783594E+02 -0.37540266621E+01  0.49522611748E+02  0.64871337921E+02  0.00000000000E+00 0.  1.
         12    1    4    4    0    0  0.21835394596E+02  0.44339282658E+02  0.67032825146E+02  0.83283588365E+02  0.00000000000E+00 0. -1.
         -5    1    5    5    0  502  0.14216301792E+02  0.13877106726E+02  0.38604562926E+03  0.38658504265E+03  0.47000000000E+01 0.  1.
         13    1    6    6    0    0 -0.61472178674E+02 -0.15074235048E+02  0.10522798258E+03  0.12279653754E+03  0.00000000000E+00 0. -1.
        -14    1    6    6    0    0  0.63361167663E+01 -0.46920716744E+02  0.15033910874E+03  0.15761836077E+03  0.00000000000E+00 0.  1.
</event>
<event>
12    1  0.8406581E-002  0.1730716E+03  0.7818608E-02  0.1174707E+00
         21   -1    0    0  503  502  0.00000000000E+00  0.00000000000E+00  0.28116222993E+03  0.28116222993E+03  0.00000000000E+00 0.  1.
         21   -1    0    0  501  503 -0.00000000000E+00 -0.00000000000E+00 -0.12189569547E+03  0.12189569547E+03  0.00000000000E+00 0.  1.
          6    2    1    2  501    0 -0.22052750373E+02 -0.10603756782E+01  0.15133090390E+03  0.22990176112E+03  0.17165759259E+03 0.  0.
         24    2    3    3    0    0 -0.62737224977E+02 -0.29669193361E+02  0.14501494400E+03  0.17954630191E+03  0.79945732302E+02 0.  0.
         -6    2    1    2    0  502  0.22052750373E+02  0.10603756782E+01  0.79356305505E+01  0.17315616428E+03  0.17155942061E+03 0.  0.
        -24    2    5    5    0    0 -0.30508990039E+02  0.49410335226E+02  0.19252028991E+02  0.10069509875E+03  0.79979263515E+02 0.  0.
          5    1    3    3  501    0  0.40684474604E+02  0.28608817683E+02  0.63159599040E+01  0.50355459212E+02  0.47000000000E+01 0. -1.
        -11    1    4    4    0    0  0.49753963952E+01 -0.13463564855E+02  0.89099302314E+02  0.90248034997E+02  0.00000000000E+00 0.  1.
         12    1    4    4    0    0 -0.67712621372E+02 -0.16205628506E+02  0.55915641687E+02  0.89298266913E+02  0.00000000000E+00 0. -1.
         -5    1    5    5    0  502  0.52561740412E+02 -0.48349959548E+02 -0.11316398441E+02  0.72461065525E+02  0.47000000000E+01 0.  1.
         13    1    6    6    0    0  0.22774542639E+02  0.26027076188E+02  0.24330256726E+02  0.42285338826E+02  0.00000000000E+00 0. -1.
        -14    1    6    6    0    0 -0.53283532677E+02  0.23383259038E+02 -0.50782277347E+01  0.58409759927E+02  0.00000000000E+00 0.  1.
</event>
<event>
12    1  0.8406581E-002  0.1914849E+03  0.7818608E-02  0.1157558E+00
         21   -1    0    0  503  502  0.00000000000E+00  0.00000000000E+00  0.63592156239E+02  0.63592156239E+02  0.00000000000E+00 0. -1.
         21   -1    0    0  501  503 -0.00000000000E+00 -0.00000000000E+00 -0.91882957383E+03  0.91882957383E+03  0.00000000000E+00 0. -1.
          6    2    1    2  501    0  0.54963309245E+02 -0.57855653833E+02 -0.12398854078E+03  0.22651737201E+03  0.17195557430E+03 0.  0.
         24    2    3    3    0    0  0.14128626523E+02  0.14465507127E+02 -0.80088590989E+01  0.83789665524E+02  0.80917842536E+02 0.  0.
         -6    2    1    2    0  502 -0.54963309245E+02  0.57855653833E+02 -0.73124887681E+03  0.75590435806E+03  0.17406388670E+03 0.  0.
        -24    2    5    5    0    0 -0.51205974565E+02  0.10324307517E+03 -0.61678023822E+03  0.63261893800E+03  0.80670155893E+02 0.  0.
          5    1    3    3  501    0  0.40834682722E+02 -0.72321160961E+02 -0.11597968168E+03  0.14272770648E+03  0.47000000000E+01 0. -1.
        -13    1    4    4    0    0  0.15027323797E+02  0.38839604215E+02 -0.29698428933E+02  0.51150092837E+02  0.00000000000E+00 0.  1.
         14    1    4    4    0    0 -0.89869727426E+00 -0.24374097088E+02  0.21689569834E+02  0.32639572688E+02  0.00000000000E+00 0. -1.
         -5    1    5    5    0  502 -0.37573346805E+01 -0.45387421335E+02 -0.11446863859E+03  0.12328542006E+03  0.47000000000E+01 0.  1.
         13    1    6    6    0    0 -0.64965559494E+02  0.99935365178E+02 -0.59368842440E+03  0.60553575155E+03  0.00000000000E+00 0. -1.
        -14    1    6    6    0    0  0.13759584929E+02  0.33077099907E+01 -0.23091813815E+02  0.27083186446E+02  0.00000000000E+00 0.  1.
</event>
<event>
12    1  0.8406581E-002  0.1925157E+03  0.7818608E-02  0.1156212E+00
         21   -1    0    0  503  502  0.00000000000E+00  0.00000000000E+00  0.33481120414E+03  0.33481120414E+03  0.00000000000E+00 0.  1.
         21   -1    0    0  501  503 -0.00000000000E+00 -0.00000000000E+00 -0.20742689248E+03  0.20742689248E+03  0.00000000000E+00 0. -1.
          6    2    1    2  501    0 -0.73145760434E+02 -0.45889388714E+02 -0.12145301423E+03  0.22762494600E+03  0.17206435747E+03 0.  0.
         24    2    3    3    0    0 -0.48273981466E+02  0.15054449796E+01 -0.14176790632E+03  0.17018227466E+03  0.80815986637E+02 0.  0.
         -6    2    1    2    0  502  0.73145760434E+02  0.45889388714E+02  0.24883732589E+03  0.31461315063E+03  0.17206185378E+03 0.  0.
        -24    2    5    5    0    0  0.10327302796E+03  0.34704639384E+02  0.24707374711E+03  0.28208699075E+03  0.81595977490E+02 0.  0.
          5    1    3    3  501    0 -0.24871778967E+02 -0.47394833694E+02  0.20314892090E+02  0.57442671338E+02  0.47000000000E+01 0. -1.
        -13    1    4    4    0    0 -0.54228384290E+02  0.62653458001E+01 -0.38897374995E+02  0.67029680010E+02  0.00000000000E+00 0.  1.
         14    1    4    4    0    0  0.59544028240E+01 -0.47599008204E+01 -0.10287053132E+03  0.10315259465E+03  0.00000000000E+00 0. -1.
         -5    1    5    5    0  502 -0.30127267523E+02  0.11184749331E+02  0.17635787764E+01  0.32526159873E+02  0.47000000000E+01 0.  1.
         11    1    6    6    0    0 -0.15010976866E+01 -0.16331633521E+02  0.14262881952E+02  0.21734887838E+02  0.00000000000E+00 0. -1.
        -12    1    6    6    0    0  0.10477412564E+03  0.51036272905E+02  0.23281086516E+03  0.26035210292E+03  0.00000000000E+00 0.  1.
</event>
<event>
12    1  0.8406581E-002  0.4013371E+03  0.7818608E-02  0.1043636E+00
         21   -1    0    0  503  502  0.00000000000E+00  0.00000000000E+00  0.59801076631E+03  0.59801076631E+03  0.00000000000E+00 0. -1.
         21   -1    0    0  501  503 -0.00000000000E+00 -0.00000000000E+00 -0.28983943461E+03  0.28983943461E+03  0.00000000000E+00 0.  1.
          6    2    1    2  501    0 -0.17977290360E+03 -0.30983247082E+03  0.27967199298E+03  0.48917065202E+03  0.18098907783E+03 0.  0.
         24    2    3    3    0    0 -0.17380583917E+03 -0.15614656740E+03  0.15927680728E+03  0.29379395558E+03  0.79721808569E+02 0.  0.
         -6    2    1    2    0  502  0.17977290360E+03  0.30983247082E+03  0.28499338709E+02  0.39867954890E+03  0.17268095889E+03 0.  0.
        -24    2    5    5    0    0  0.29677141447E+02  0.13811906705E+03 -0.22720228296E+02  0.16488526990E+03  0.81934937900E+02 0.  0.
          5    1    3    3  501    0 -0.59670644330E+01 -0.15368590342E+03  0.12039518571E+03  0.19537669644E+03  0.47000000000E+01 0. -1.
        -13    1    4    4    0    0 -0.12810903367E+03 -0.64350760067E+02  0.79938822800E+02  0.16414371819E+03  0.00000000000E+00 0.  1.
         14    1    4    4    0    0 -0.45696805496E+02 -0.91795807331E+02  0.79337984475E+02  0.12965023740E+03  0.00000000000E+00 0. -1.
         -5    1    5    5    0  502  0.15009576215E+03  0.17171340378E+03  0.51219567006E+02  0.23379427901E+03  0.47000000000E+01 0.  1.
         13    1    6    6    0    0  0.41215255707E+01  0.36684759630E+02 -0.44724667770E+02  0.57991848300E+02  0.00000000000E+00 0. -1.
        -14    1    6    6    0    0  0.25555615876E+02  0.10143430742E+03  0.22004439474E+02  0.10689342160E+03  0.00000000000E+00 0.  1.
</event>
<event>
12    1  0.8406581E-002  0.2154628E+03  0.7818608E-02  0.1138497E+00
         21   -1    0    0  501  502  0.00000000000E+00  0.00000000000E+00  0.13970590368E+04  0.13970590368E+04  0.00000000000E+00 0. -1.
         21   -1    0    0  502  503 -0.00000000000E+00 -0.00000000000E+00 -0.37379955393E+03  0.37379955393E+03  0.00000000000E+00 0. -1.
         -6    2    1    2    0  503  0.12504840815E+03 -0.54255323251E+01 -0.33531104509E+03  0.39530848349E+03  0.16783551286E+03 0.  0.
        -24    2    3    3    0    0  0.11474622050E+03  0.52546539667E+02 -0.22329419428E+03  0.26867214958E+03  0.79978702215E+02 0.  0.
          6    2    1    2  501    0 -0.12504840815E+03  0.54255323251E+01  0.13585705280E+04  0.13755501073E+04  0.17537866833E+03 0.  0.
         24    2    5    5    0    0 -0.84606793658E+02  0.42480298143E+02  0.12224503503E+04  0.12287190049E+04  0.80016553038E+02 0.  0.
          5    1    5    5  501    0 -0.40441614496E+02 -0.37054765818E+02  0.13612017771E+03  0.14683110240E+03  0.47000000000E+01 0. -1.
        -13    1    6    6    0    0 -0.28657906819E+02  0.58859635554E+02  0.61211713545E+03  0.61560792704E+03  0.00000000000E+00 0.  1.
         14    1    6    6    0    0 -0.55948886839E+02 -0.16379337411E+02  0.61033321484E+03  0.61311107784E+03  0.00000000000E+00 0. -1.
         -5    1    3    3    0  503  0.10302187651E+02 -0.57972071992E+02 -0.11201685081E+03  0.12663633391E+03  0.47000000000E+01 0.  1.
         11    1    4    4    0    0  0.30286920673E+02  0.43290287818E+01 -0.13124609463E+03  0.13476488938E+03  0.00000000000E+00 0. -1.
        -12    1    4    4    0    0  0.84459299831E+02  0.48217510885E+02 -0.92048099648E+02  0.13390726019E+03  0.00000000000E+00 0.  1.
</event>
<event>
12    1  0.8406581E-002  0.1881463E+03  0.7818608E-02  0.1160202E+00
         21   -1    0    0  503  502  0.00000000000E+00  0.00000000000E+00  0.18173703664E+02  0.18173703664E+02  0.00000000000E+00 0. -1.
         21   -1    0    0  501  503 -0.00000000000E+00 -0.00000000000E+00 -0.22626206936E+04  0.22626206936E+04  0.00000000000E+00 0. -1.
          6    2    1    2  501    0 -0.37477221545E+02  0.65510740306E+02 -0.15487199963E+04  0.15600759622E+04  0.17206737460E+03 0.  0.
         24    2    3    3    0    0 -0.61851596311E+02  0.78996603315E+02 -0.14831909058E+04  0.14887167976E+04  0.79726767062E+02 0.  0.
         -6    2    1    2    0  502  0.37477221545E+02 -0.65510740306E+02 -0.69572699361E+03  0.72071843512E+03  0.17234504303E+03 0.  0.
        -24    2    5    5    0    0 -0.17929789287E+02 -0.43520023112E+01 -0.51571975927E+03  0.52264011097E+03  0.82736921797E+02 0.  0.
          5    1    3    3  501    0  0.24374374765E+02 -0.13485863009E+02 -0.65529090588E+02  0.71359164510E+02  0.47000000000E+01 0. -1.
        -11    1    4    4    0    0 -0.41165841761E+02 -0.49238368960E+01 -0.52611565391E+03  0.52774667406E+03  0.00000000000E+00 0.  1.
         12    1    4    4    0    0 -0.20685754550E+02  0.83920440211E+02 -0.95707525185E+03  0.96097012358E+03  0.00000000000E+00 0. -1.
         -5    1    5    5    0  502  0.55407010832E+02 -0.61158737995E+02 -0.18000723434E+03  0.19807832414E+03  0.47000000000E+01 0.  1.
         11    1    6    6    0    0 -0.39715349056E+02 -0.30975190630E+02 -0.30826002846E+03  0.31234758929E+03  0.00000000000E+00 0. -1.
        -12    1    6    6    0    0  0.21785559769E+02  0.26623188319E+02 -0.20745973081E+03  0.21029252169E+03  0.00000000000E+00 0.  1.
</event>
<event>
12    1  0.8406581E-002  0.2645584E+03  0.7818608E-02  0.1104450E+00
         21   -1    0    0  503  502  0.00000000000E+00  0.00000000000E+00  0.19459040334E+03  0.19459040334E+03  0.00000000000E+00 0. -1.
         21   -1    0    0  501  503 -0.00000000000E+00 -0.00000000000E+00 -0.41065349603E+03  0.41065349603E+03  0.00000000000E+00 0. -1.
          6    2    1    2  501    0  0.20134841792E+02 -0.20025678499E+03 -0.21477365062E+03  0.34068235662E+03  0.17154753079E+03 0.  0.
         24    2    3    3    0    0  0.55925117819E+02 -0.13884997909E+03 -0.20893578006E+03  0.26921270990E+03  0.80089871317E+02 0.  0.
         -6    2    1    2    0  502 -0.20134841792E+02  0.20025678499E+03 -0.12894420694E+01  0.26456154274E+03  0.17170601459E+03 0.  0.
        -24    2    5    5    0    0 -0.79397324142E+02  0.12153558728E+03 -0.47097860350E+01  0.16585562834E+03  0.80069178292E+02 0.  0.
          5    1    3    3  501    0 -0.35790276027E+02 -0.61406805904E+02 -0.58378705622E+01  0.71469646719E+02  0.47000000000E+01 0. -1.
        -13    1    4    4    0    0  0.15075772851E+02  0.54985541753E+01 -0.41003742525E+02  0.44032032955E+02  0.00000000000E+00 0.  1.
         14    1    4    4    0    0  0.40849344968E+02 -0.14434853327E+03 -0.16793203753E+03  0.22518067695E+03  0.00000000000E+00 0. -1.
         -5    1    5    5    0  502  0.59262482350E+02  0.78721197716E+02  0.34203439655E+01  0.98705914397E+02  0.47000000000E+01 0.  1.
         13    1    6    6    0    0 -0.69201165083E+01  0.82411807455E+02 -0.10102349306E+02  0.83316573873E+02  0.00000000000E+00 0. -1.
        -14    1    6    6    0    0 -0.72477207633E+02  0.39123779824E+02  0.53925632713E+01  0.82539054469E+02  0.00000000000E+00 0.  1.
</event>
<event>
12    1  0.8406581E-002  0.2215475E+03  0.7818608E-02  0.1132871E+00
         21   -1    0    0  501  502  0.00000000000E+00  0.00000000000E+00  0.10814236780E+04  0.10814236780E+04  0.00000000000E+00 0. -1.
         21   -1    0    0  502  503 -0.00000000000E+00 -0.00000000000E+00 -0.53332491384E+02  0.53332491384E+02  0.00000000000E+00 0.  1.
         -6    2    1    2    0  503 -0.10672060969E+03 -0.87604582047E+02  0.73437522552E+03  0.76685349605E+03  0.17231790743E+03 0.  0.
        -24    2    3    3    0    0 -0.13916917408E+03 -0.80128102577E+02  0.67441725544E+03  0.69810863986E+03  0.82027231941E+02 0.  0.
          6    2    1    2  501    0  0.10672060969E+03  0.87604582047E+02  0.29371596112E+03  0.36790267336E+03  0.17326124760E+03 0.  0.
         24    2    5    5    0    0  0.95956913667E+02  0.84756129800E+02  0.11824746344E+03  0.19201846568E+03  0.80605816987E+02 0.  0.
          5    1    5    5  501    0  0.10763696022E+02  0.28484522468E+01  0.17546849768E+03  0.17588420768E+03  0.47000000000E+01 0. -1.
        -11    1    6    6    0    0  0.61952899705E+02  0.21086236977E+02  0.96563900462E+02  0.11665066671E+03  0.00000000000E+00 0.  1.
         12    1    6    6    0    0  0.34004013962E+02  0.63669892823E+02  0.21683562975E+02  0.75367798965E+02  0.00000000000E+00 0. -1.
         -5    1    3    3    0  503  0.32448564390E+02 -0.74764794700E+01  0.59957970082E+02  0.68744856190E+02  0.47000000000E+01 0.  1.
         13    1    4    4    0    0 -0.14103403271E+03 -0.80158485526E+02  0.54386482523E+03  0.56754288764E+03  0.00000000000E+00 0. -1.
        -14    1    4    4    0    0  0.18648586306E+01  0.30382949285E-01  0.13055243021E+03  0.13056575222E+03  0.00000000000E+00 0.  1.
</event>
<event>
12    1  0.8406581E-002  0.1770061E+03  0.7818608E-02  0.1170772E+00
         21   -1    0    0  501  502  0.00000000000E+00  0.00000000000E+00  0.18752655289E+03  0.18752655289E+03  0.00000000000E+00 0.  1.
         21   -1    0    0  502  503 -0.00000000000E+00 -0.00000000000E+00 -0.36294416290E+03  0.36294416290E+03  0.00000000000E+00 0.  1.
         -6    2    1    2    0  503  0.32159876934E+02 -0.28878398324E+02 -0.28999936205E+03  0.33975109018E+03  0.17164776058E+03 0.  0.
        -24    2    3    3    0    0 -0.20113137309E+02  0.13816844155E+02 -0.66555895664E+02  0.10628926371E+03  0.79197707397E+02 0.  0.
          6    2    1    2  501    0 -0.32159876934E+02  0.28878398324E+02  0.11458175204E+03  0.21071962561E+03  0.17148050368E+03 0.  0.
         24    2    5    5    0    0 -0.45936650158E+01 -0.75673598246E+00  0.14102354665E+03  0.16214601418E+03  0.79887513386E+02 0.  0.
          5    1    5    5  501    0 -0.27566211918E+02  0.29635134307E+02 -0.26441794616E+02  0.48573611430E+02  0.47000000000E+01 0. -1.
        -11    1    6    6    0    0  0.24387547359E+02  0.29255258867E+02  0.73253368224E+02  0.82563179407E+02  0.00000000000E+00 0.  1.
         12    1    6    6    0    0 -0.28981212375E+02 -0.30011994850E+02  0.67770178430E+02  0.79582834770E+02  0.00000000000E+00 0. -1.
         -5    1    3    3    0  503  0.52273014243E+02 -0.42695242479E+02 -0.22344346639E+03  0.23346182647E+03  0.47000000000E+01 0.  1.
         11    1    4    4    0    0  0.17905766141E+02  0.24617150676E+02 -0.18867214940E+01  0.30498857135E+02  0.00000000000E+00 0. -1.
        -12    1    4    4    0    0 -0.38018903451E+02 -0.10800306521E+02 -0.64669174170E+02  0.75790406572E+02  0.00000000000E+00 0.  1.
</event>
<event>
12    1  0.8406581E-002  0.2139289E+03  0.7818608E-02  0.1138976E+00
         21   -1    0    0  503  502  0.00000000000E+00  0.00000000000E+00  0.19442404969E+03  0.19442404969E+03  0.00000000000E+00 0. -1.
         21   -1    0    0  501  503 -0.00000000000E+00 -0.00000000000E+00 -0.23266967760E+03  0.23266967760E+03  0.00000000000E+00 0. -1.
          6    2    1    2  501    0 -0.12067642254E+03  0.43185413604E+02 -0.20606732003E+02  0.21491909251E+03  0.17128280712E+03 0.  0.
         24    2    3    3    0    0 -0.23476108825E+02  0.62138224738E+02 -0.35764553472E+02  0.11462472782E+03  0.86298541609E+02 0.  0.
         -6    2    1    2    0  502  0.12067642254E+03 -0.43185413604E+02 -0.17638895906E+02  0.21217463479E+03  0.16816410466E+03 0.  0.
        -24    2    5    5    0    0  0.11233853369E+03  0.25713738348E+02 -0.10570289714E+02  0.14225561933E+03  0.82727188477E+02 0.  0.
          5    1    3    3  501    0 -0.97200313713E+02 -0.18952811134E+02  0.15157821469E+02  0.10029436468E+03  0.47000000000E+01 0. -1.
        -11    1    4    4    0    0 -0.24874892631E+02  0.67833795087E+02  0.59541851054E+01  0.72495767874E+02  0.00000000000E+00 0.  1.
         12    1    4    4    0    0  0.13987838064E+01 -0.56955703496E+01 -0.41718738577E+02  0.42128959947E+02  0.00000000000E+00 0. -1.
         -5    1    5    5    0  502  0.83378888451E+01 -0.68899151952E+02 -0.70686061922E+01  0.69919015465E+02  0.47000000000E+01 0.  1.
         11    1    6    6    0    0  0.39117362641E+02 -0.29949103454E+02  0.26335686303E+01  0.49336118021E+02  0.00000000000E+00 0. -1.
        -12    1    6    6    0    0  0.73221171052E+02  0.55662841802E+02 -0.13203858344E+02  0.92919501305E+02  0.00000000000E+00 0.  1.
</event>
<event>
12    1  0.8406581E-002  0.2094589E+03  0.7818608E-02  0.1144137E+00
         21   -1    0    0  501  502  0.00000000000E+00  0.00000000000E+00  0.29684561464E+03  0.29684561464E+03  0.00000000000E+00 0.  1.
         21   -1    0    0  502  503 -0.00000000000E+00 -0.00000000000E+00 -0.37178115639E+03  0.37178115639E+03  0.00000000000E+00 0.  1.
         -6    2    1    2    0  503 -0.59603076276E+02  0.82225334567E+02 -0.30075984283E+03  0.36061760815E+03  0.17109951461E+03 0.  0.
        -24    2    3    3    0    0 -0.94051096943E+02  0.10073068437E+03 -0.25520133702E+03  0.30039484209E+03  0.78211630410E+02 0.  0.
          6    2    1    2  501    0  0.59603076276E+02 -0.82225334567E+02  0.22582430109E+03  0.30800916289E+03  0.18319251380E+03 0.  0.
         24    2    5    5    0    0  0.10383237236E+03 -0.34025073516E+02  0.10678863688E+03  0.17210082926E+03  0.79221305760E+02 0.  0.
          5    1    5    5  501    0 -0.44229296082E+02 -0.48200261050E+02  0.11903566420E+03  0.13590833363E+03  0.47000000000E+01 0. -1.
        -11    1    6    6    0    0  0.19106100475E+02 -0.44451944056E+02  0.27824685890E+02  0.55814259384E+02  0.00000000000E+00 0.  1.
         12    1    6    6    0    0  0.84726271883E+02  0.10426870539E+02  0.78963950995E+02  0.11628656987E+03  0.00000000000E+00 0. -1.
         -5    1    3    3    0  503  0.34448020667E+02 -0.18505349803E+02 -0.45558505815E+02  0.60222766055E+02  0.47000000000E+01 0.  1.
         11    1    4    4    0    0 -0.59500489938E+02  0.91822839520E+01 -0.10776460270E+03  0.12344161469E+03  0.00000000000E+00 0. -1.
        -12    1    4    4    0    0 -0.34550607004E+02  0.91548400418E+02 -0.14743673431E+03  0.17695322740E+03  0.00000000000E+00 0.  1.
</event>
<event>
12    1  0.8406581E-002  0.1741359E+03  0.7818608E-02  0.1173903E+00
         21   -1    0    0  503  502  0.00000000000E+00  0.00000000000E+00  0.26138132746E+03  0.26138132746E+03  0.00000000000E+00 0. -1.
         21   -1    0    0  501  503 -0.00000000000E+00 -0.00000000000E+00 -0.12049404916E+03  0.12049404916E+03  0.00000000000E+00 0. -1.
          6    2    1    2  501    0  0.93647335094E+01  0.15218307285E+02  0.11015327727E+03  0.20504812490E+03  0.17202236459E+03 0.  0.
         24    2    3    3    0    0  0.29409710929E+02  0.72304596904E+02  0.65959550462E+02  0.12997601908E+03  0.80313245540E+02 0.  0.
         -6    2    1    2    0  502 -0.93647335094E+01 -0.15218307285E+02  0.30734001039E+02  0.17682725173E+03  0.17321663610E+03 0.  0.
        -24    2    5    5    0    0 -0.64488987567E+02  0.25616199631E+02  0.31760966790E+02  0.10805745458E+03  0.76502518119E+02 0.  0.
          5    1    3    3  501    0 -0.20044977420E+02 -0.57086289619E+02  0.44193726806E+02  0.75072105814E+02  0.47000000000E+01 0. -1.
        -11    1    4    4    0    0 -0.22447478680E+02  0.14899457186E+01  0.23293663225E+02  0.32383699352E+02  0.00000000000E+00 0.  1.
         12    1    4    4    0    0  0.51857189609E+02  0.70814651185E+02  0.42665887237E+02  0.97592319731E+02  0.00000000000E+00 0. -1.
         -5    1    5    5    0  502  0.55124254057E+02 -0.40834506916E+02 -0.10269657508E+01  0.68769797143E+02  0.47000000000E+01 0.  1.
         11    1    6    6    0    0 -0.51597529654E+02 -0.15833086500E+02  0.35323416322E+02  0.64503762954E+02  0.00000000000E+00 0. -1.
        -12    1    6    6    0    0 -0.12891457912E+02  0.41449286131E+02 -0.35624495324E+01  0.43553691629E+02  0.00000000000E+00 0.  1.
</event>
<event>
12    1  0.8406581E-002  0.1904129E+03  0.7818608E-02  0.1159564E+00
         21   -1    0    0  503  502  0.00000000000E+00  0.00000000000E+00  0.29660227048E+02  0.29660227048E+02  0.00000000000E+00 0.  1.
         21   -1    0    0  501  503 -0.00000000000E+00 -0.00000000000E+00 -0.12744014203E+04  0.12744014203E+04  0.00000000000E+00 0.  1.
          6    2    1    2  501    0  0.66773119412E+02 -0.17852343171E+02 -0.80838040657E+03  0.83050343527E+03  0.17742524803E+03 0.  0.
         24    2    3    3    0    0  0.10989110656E+02 -0.73274718145E+02 -0.56042378337E+03  0.57033412065E+03  0.75605868428E+02 0.  0.
         -6    2    1    2    0  502 -0.66773119412E+02  0.17852343171E+02 -0.43636078669E+03  0.47355821208E+03  0.17049718015E+03 0.  0.
        -24    2    5    5    0    0  0.77337632996E+01  0.47128445458E+02 -0.31161192135E+03  0.32525873421E+03  0.80064681235E+02 0.  0.
          5    1    3    3  501    0  0.55784008756E+02  0.55422374975E+02 -0.24795662320E+03  0.26016931462E+03  0.47000000000E+01 0. -1.
        -13    1    4    4    0    0  0.30687922851E+02 -0.71683434768E+02 -0.51396724252E+03  0.51984862202E+03  0.00000000000E+00 0.  1.
         14    1    4    4    0    0 -0.19698812195E+02 -0.15912833777E+01 -0.46456540846E+02  0.50485498631E+02  0.00000000000E+00 0. -1.
         -5    1    5    5    0  502 -0.74506882712E+02 -0.29276102287E+02 -0.12474886533E+03  0.14829947788E+03  0.47000000000E+01 0.  1.
         13    1    6    6    0    0  0.42857076575E+02  0.19328887314E+02 -0.13120058381E+03  0.13936975313E+03  0.00000000000E+00 0. -1.
        -14    1    6    6    0    0 -0.35123313276E+02  0.27799558144E+02 -0.18041133755E+03  0.18588898107E+03  0.00000000000E+00 0.  1.
</event>
<event>
12    1  0.8406581E-002  0.2124257E+03  0.7818608E-02  0.1139754E+00
         21   -1    0    0  503  502  0.00000000000E+00  0.00000000000E+00  0.24237453220E+04  0.24237453220E+04  0.00000000000E+00 0.  1.
         21   -1    0    0  501  503 -0.00000000000E+00 -0.00000000000E+00 -0.39547068288E+02  0.39547068288E+02  0.00000000000E+00 0. -1.
          6    2    1    2  501    0  0.12148018816E+03 -0.27027210809E+02  0.29455679586E+03  0.36288145040E+03  0.17155563186E+03 0.  0.
         24    2    3    3    0    0  0.15149648724E+03 -0.40535883982E+01  0.21660869141E+03  0.27612453411E+03  0.79735913609E+02 0.  0.
         -6    2    1    2    0  502 -0.12148018816E+03  0.27027210809E+02  0.20896414579E+04  0.21004109399E+04  0.17215338443E+03 0.  0.
        -24    2    5    5    0    0 -0.62674453554E+02 -0.46274098671E+02  0.84812736720E+03  0.85533643461E+03  0.78809936193E+02 0.  0.
          5    1    3    3  501    0 -0.30016299083E+02 -0.22973622411E+02  0.77948104445E+02  0.86756916289E+02  0.47000000000E+01 0. -1.
        -11    1    4    4    0    0  0.11502203017E+03 -0.38247976288E+02  0.15077306799E+03  0.19345669579E+03  0.00000000000E+00 0.  1.
         12    1    4    4    0    0  0.36474457067E+02  0.34194387890E+02  0.65835623416E+02  0.82667838318E+02  0.00000000000E+00 0. -1.
         -5    1    5    5    0  502 -0.58805734602E+02  0.73301309480E+02  0.12415140907E+04  0.12450745053E+04  0.47000000000E+01 0.  1.
         13    1    6    6    0    0 -0.23533466634E+02 -0.22216527105E+02  0.68767230627E+03  0.68843343828E+03  0.00000000000E+00 0. -1.
        -14    1    6    6    0    0 -0.39140986920E+02 -0.24057571566E+02  0.16045506092E+03  0.16690299633E+03  0.00000000000E+00 0.  1.
</event>
<event>
12    1  0.8406581E-002  0.1874016E+03  0.7818608E-02  0.1161442E+00
         21   -1    0    0  503  502  0.00000000000E+00  0.00000000000E+00  0.58065026190E+02  0.58065026190E+02  0.00000000000E+00 0.  1.
         21   -1    0    0  501  503 -0.00000000000E+00 -0.00000000000E+00 -0.79887753533E+03  0.79887753533E+03  0.00000000000E+00 0.  1.
          6    2    1    2  501    0 -0.57373726555E+02  0.36470442044E+02 -0.58815937321E+03  0.61729314072E+03  0.17463543641E+03 0.  0.
         24    2    3    3    0    0  0.18381018344E+02  0.66080087237E+02 -0.35641800035E+03  0.37164773296E+03  0.79898727601E+02 0.  0.
         -6    2    1    2    0  502  0.57373726555E+02 -0.36470442044E+02 -0.15265313593E+03  0.23964942080E+03  0.17177609652E+03 0.  0.
        -24    2    5    5    0    0  0.30576842381E+02  0.35112901893E+00  0.18611142920E+01  0.78495318711E+02  0.72270220226E+02 0.  0.
          5    1    3    3  501    0 -0.75754744899E+02 -0.29609645194E+02 -0.23174137286E+03  0.24564540777E+03  0.47000000000E+01 0. -1.
        -13    1    4    4    0    0  0.31238663019E+02  0.10705370077E+02 -0.23812775287E+03  0.24040650096E+03  0.00000000000E+00 0.  1.
         14    1    4    4    0    0 -0.12857644675E+02  0.55374717160E+02 -0.11829024748E+03  0.13124123199E+03  0.00000000000E+00 0. -1.
         -5    1    5    5    0  502  0.26796884174E+02 -0.36821571063E+02 -0.15451425022E+03  0.16115410209E+03  0.47000000000E+01 0.  1.
         13    1    6    6    0    0  0.30105716835E+02  0.12953273710E+02 -0.29873996804E+02  0.44346332103E+02  0.00000000000E+00 0. -1.
        -14    1    6    6    0    0  0.47112554616E+00 -0.12602144691E+02  0.31735111096E+02  0.34148986608E+02  0.00000000000E+00 0.  1.
</event>
<event>
12    1  0.8406581E-002  0.2326048E+03  0.7818608E-02  0.1124979E+00
         21   -1    0    0  501  502  0.00000000000E+00  0.00000000000E+00  0.36904899233E+03  0.36904899233E+03  0.00000000000E+00 0.  1.
         21   -1    0    0  502  503 -0.00000000000E+00 -0.00000000000E+00 -0.23265611249E+03  0.23265611249E+03  0.00000000000E+00 0. -1.
         -6    2    1    2    0  503 -0.12707758316E+03 -0.90826350532E+02 -0.11529700482E+03  0.25961201441E+03  0.17235678291E+03 0.  0.
        -24    2    3    3    0    0 -0.86765373837E+02 -0.12862866938E+03 -0.10798922355E+03  0.20366933663E+03  0.75802121307E+02 0.  0.
          6    2    1    2  501    0  0.12707758316E+03  0.90826350532E+02  0.25168988466E+03  0.34209309040E+03  0.17111909996E+03 0.  0.
         24    2    5    5    0    0  0.89921405944E+02 -0.48604394921E+01  0.18129258511E+03  0.21753622358E+03  0.79658797589E+02 0.  0.
          5    1    5    5  501    0  0.37156177212E+02  0.95686790024E+02  0.70397299549E+02  0.12455686683E+03  0.47000000000E+01 0. -1.
        -11    1    6    6    0    0 -0.14729907732E+02  0.35740622941E+01  0.25615556273E+02  0.29764086182E+02  0.00000000000E+00 0.  1.
         12    1    6    6    0    0  0.10465131368E+03 -0.84345017862E+01  0.15567702884E+03  0.18777213740E+03  0.00000000000E+00 0. -1.
         -5    1    3    3    0  503 -0.40312209320E+02  0.37802318849E+02 -0.73077812698E+01  0.55942677784E+02  0.47000000000E+01 0.  1.
         11    1    4    4    0    0 -0.56119530639E+02 -0.33851915381E+02 -0.72977472839E+02  0.98087029908E+02  0.00000000000E+00 0. -1.
        -12    1    4    4    0    0 -0.30645843198E+02 -0.94776754000E+02 -0.35011750713E+02  0.10558230672E+03  0.00000000000E+00 0.  1.
</event>
<event>
12    1  0.8406581E-002  0.2067758E+03  0.7818608E-02  0.1144454E+00
         21   -1    0    0  501  502  0.00000000000E+00  0.00000000000E+00  0.91162767052E+02  0.91162767052E+02  0.00000000000E+00 0.  1.
         21   -1    0    0  502  503 -0.00000000000E+00 -0.00000000000E+00 -0.46572676989E+03  0.46572676989E+03  0.00000000000E+00 0.  1.
         -6    2    1    2    0  503  0.11155055429E+03 -0.29244394573E+02 -0.19321211701E+03  0.28299676175E+03  0.17163182753E+03 0.  0.
        -24    2    3    3    0    0  0.65400235522E+01 -0.24949419120E+02 -0.14344678613E+03  0.16661662367E+03  0.80739540569E+02 0.  0.
          6    2    1    2  501    0 -0.11155055429E+03  0.29244394573E+02 -0.18135188582E+03  0.27389277519E+03  0.16979394876E+03 0.  0.
         24    2    5    5    0    0 -0.11256125640E+03 -0.27956932522E+02 -0.91189999686E+02  0.16700840285E+03  0.78259594050E+02 0.  0.
          5    1    5    5  501    0  0.10107021074E+01  0.57201327095E+02 -0.90161886136E+02  0.10688437235E+03  0.47000000000E+01 0. -1.
        -11    1    6    6    0    0 -0.10728414322E+03 -0.30512583193E+02 -0.10426243085E+03  0.15268123528E+03  0.00000000000E+00 0.  1.
         12    1    6    6    0    0 -0.52771131818E+01  0.25556506710E+01  0.13072431168E+02  0.14327167568E+02  0.00000000000E+00 0. -1.
         -5    1    3    3    0  503  0.10501053074E+03 -0.42949754533E+01 -0.49765330889E+02  0.11638013808E+03  0.47000000000E+01 0.  1.
         13    1    4    4    0    0 -0.59264253154E+01 -0.41410207287E+02 -0.13944399662E+03  0.14558350174E+03  0.00000000000E+00 0. -1.
        -14    1    4    4    0    0  0.12466448868E+02  0.16460788167E+02 -0.40027895039E+01  0.21033121933E+02  0.00000000000E+00 0.  1.
</event>
<event>
12    1  0.8406581E-002  0.2386108E+03  0.7818608E-02  0.1122626E+00
         21   -1    0    0  503  502  0.00000000000E+00  0.00000000000E+00  0.14242150294E+04  0.14242150294E+04  0.00000000000E+00 0.  1.
         21   -1    0    0  501  503 -0.00000000000E+00 -0.00000000000E+00 -0.12974568397E+03  0.12974568397E+03  0.00000000000E+00 0. -1.
          6    2    1    2  501    0  0.14509025896E+03  0.34486288049E+02 -0.10463108328E+01  0.23861309177E+03  0.18626493360E+03 0.  0.
         24    2    3    3    0    0  0.13389641077E+03 -0.40409005114E+02  0.84408403566E+01  0.16214935388E+03  0.81608998670E+02 0.  0.
         -6    2    1    2    0  502 -0.14509025896E+03 -0.34486288049E+02  0.12955156563E+04  0.13153476216E+04  0.17186640957E+03 0.  0.
        -24    2    5    5    0    0 -0.10553628783E+03 -0.29627570490E+02  0.12290289215E+04  0.12376900420E+04  0.96689447478E+02 0.  0.
          5    1    3    3  501    0  0.11193848191E+02  0.74895293163E+02 -0.94871511894E+01  0.76463737895E+02  0.47000000000E+01 0. -1.
        -11    1    4    4    0    0  0.63358768152E+02 -0.15653361605E+02  0.44660283075E+02  0.79081616799E+02  0.00000000000E+00 0.  1.
         12    1    4    4    0    0  0.70537642622E+02 -0.24755643509E+02 -0.36219442718E+02  0.83067737076E+02  0.00000000000E+00 0. -1.
         -5    1    5    5    0  502 -0.39553971137E+02 -0.48587175586E+01  0.66486734820E+02  0.77657579643E+02  0.47000000000E+01 0.  1.
         11    1    6    6    0    0 -0.18068029672E+02 -0.36023107975E+02  0.15736231262E+03  0.16244080595E+03  0.00000000000E+00 0. -1.
        -12    1    6    6    0    0 -0.87468258155E+02  0.63955374853E+01  0.10716666089E+04  0.10752492360E+04  0.00000000000E+00 0.  1.
</event>
<event>
12    1  0.8406581E-002  0.1957084E+03  0.7818608E-02  0.1153525E+00
         21   -1    0    0  503  502  0.00000000000E+00  0.00000000000E+00  0.47543881698E+03  0.47543881698E+03  0.00000000000E+00 0.  1.
         21   -1    0    0  501  503 -0.00000000000E+00 -0.00000000000E+00 -0.26847240595E+03  0.26847240595E+03  0.00000000000E+00 0.  1.
          6    2    1    2  501    0  0.67626363602E+02 -0.65772850185E+02 -0.20783801073E+03  0.28547929439E+03  0.17147126858E+03 0.  0.
         24    2    3    3    0    0  0.47395352562E+02  0.18832035220E+02 -0.16021208204E+03  0.18619384971E+03  0.79995458898E+02 0.  0.
         -6    2    1    2    0  502 -0.67626363602E+02  0.65772850185E+02  0.41480442176E+03  0.45843192854E+03  0.17087343830E+03 0.  0.
        -24    2    5    5    0    0  0.26081229818E+02  0.12156544897E+02  0.21552605781E+03  0.23173879323E+03  0.80145957849E+02 0.  0.
          5    1    3    3  501    0  0.20231011041E+02 -0.84604885405E+02 -0.47625928685E+02  0.99285444680E+02  0.47000000000E+01 0. -1.
        -13    1    4    4    0    0  0.54183801613E+02 -0.80967330802E+01 -0.14392374234E+03  0.15399832809E+03  0.00000000000E+00 0.  1.
         14    1    4    4    0    0 -0.67884490514E+01  0.26928768301E+02 -0.16288339700E+02  0.32195521628E+02  0.00000000000E+00 0. -1.
         -5    1    5    5    0  502 -0.93707593420E+02  0.53616305288E+02  0.19927836395E+03  0.22669313531E+03  0.47000000000E+01 0.  1.
         11    1    6    6    0    0  0.11816748403E+02 -0.32792343536E+02  0.61919098175E+02  0.71055950182E+02  0.00000000000E+00 0. -1.
        -12    1    6    6    0    0  0.14264481415E+02  0.44948888433E+02  0.15360695964E+03  0.16068284305E+03  0.00000000000E+00 0.  1.
</event>
<event>
12    1  0.8406581E-002  0.1896196E+03  0.7818608E-02  0.1159131E+00
         21   -1    0    0  503  502  0.00000000000E+00  0.00000000000E+00  0.38741288392E+02  0.38741288392E+02  0.00000000000E+00 0. -1.
         21   -1    0    0  501  503 -0.00000000000E+00 -0.00000000000E+00 -0.96413668727E+03  0.96413668727E+03  0.00000000000E+00 0. -1.
          6    2    1    2  501    0 -0.51175812813E+02 -0.60033581348E+02 -0.56698548820E+03  0.59739894572E+03  0.17085070036E+03 0.  0.
         24    2    3    3    0    0  0.35713525541E+02 -0.14550203343E+02 -0.31426445942E+03  0.32627442971E+03  0.78776193766E+02 0.  0.
         -6    2    1    2    0  502  0.51175812813E+02  0.60033581348E+02 -0.35840991068E+03  0.40547902994E+03  0.17243139199E+03 0.  0.
        -24    2    5    5    0    0  0.20577818794E+02 -0.17065262128E+01 -0.65665813918E+02  0.10469792298E+03  0.78887876762E+02 0.  0.
          5    1    3    3  501    0 -0.86889338353E+02 -0.45483378005E+02 -0.25272102878E+03  0.27112451601E+03  0.47000000000E+01 0. -1.
        -13    1    4    4    0    0  0.31841237006E+02 -0.20417441673E+02 -0.54081693060E+02  0.65996710697E+02  0.00000000000E+00 0.  1.
         14    1    4    4    0    0  0.38722885347E+01  0.58672383301E+01 -0.26018276636E+03  0.26027771901E+03  0.00000000000E+00 0. -1.
         -5    1    5    5    0  502  0.30597994018E+02  0.61740107561E+02 -0.29274409676E+03  0.30078110697E+03  0.47000000000E+01 0.  1.
         11    1    6    6    0    0  0.38321753011E+02  0.23156688626E+02 -0.57877629166E+02  0.73175193473E+02  0.00000000000E+00 0. -1.
        -12    1    6    6    0    0 -0.17743934216E+02 -0.24863214839E+02 -0.77881847518E+01  0.31522729503E+02  0.00000000000E+00 0.  1.
</event>
<event>
12    1  0.8406581E-002  0.2087474E+03  0.7818608E-02  0.1142577E+00
         21   -1    0    0  501  502  0.00000000000E+00  0.00000000000E+00  0.45701267462E+02  0.45701267462E+02  0.00000000000E+00 0. -1.
         21   -1    0    0  502  503 -0.00000000000E+00 -0.00000000000E+00 -0.12825681274E+04  0.12825681274E+04  0.00000000000E+00 0. -1.
         -6    2    1    2    0  503 -0.23510782127E+02  0.11098401758E+03 -0.95510986254E+03  0.97765551733E+03  0.17522914142E+03 0.  0.
        -24    2    3    3    0    0 -0.47569358604E+02  0.45760417220E+02 -0.26307253328E+03  0.28211925786E+03  0.77635418629E+02 0.  0.
          6    2    1    2  501    0  0.23510782127E+02 -0.11098401758E+03 -0.28175699736E+03  0.35061387750E+03  0.17513673657E+03 0.  0.
         24    2    5    5    0    0 -0.40680048492E+02 -0.97682423613E+02 -0.20601402913E+03  0.25033186329E+03  0.95013364064E+02 0.  0.
          5    1    5    5  501    0  0.64190830620E+02 -0.13301593970E+02 -0.75742968235E+02  0.10028201421E+03  0.47000000000E+01 0. -1.
        -13    1    6    6    0    0  0.24728144926E+02 -0.39193322081E+00 -0.41727409576E+02  0.48505788037E+02  0.00000000000E+00 0.  1.
         14    1    6    6    0    0 -0.65408193418E+02 -0.97290490393E+02 -0.16428661955E+03  0.20182607525E+03  0.00000000000E+00 0. -1.
         -5    1    3    3    0  503  0.24058576477E+02  0.65223600364E+02 -0.69203732926E+03  0.69553625947E+03  0.47000000000E+01 0.  1.
         13    1    4    4    0    0 -0.33416509343E-03  0.52364137982E+02 -0.16125030989E+03  0.16953956880E+03  0.00000000000E+00 0. -1.
        -14    1    4    4    0    0 -0.47569024439E+02 -0.66037207617E+01 -0.10182222339E+03  0.11257968906E+03  0.00000000000E+00 0.  1.
</event>
<event>
12    1  0.8406581E-002  0.1859382E+03  0.7818608E-02  0.1164438E+00
         21   -1    0    0  503  502  0.00000000000E+00  0.00000000000E+00  0.18173713545E+04  0.18173713545E+04  0.00000000000E+00 0.  1.
         21   -1    0    0  501  503 -0.00000000000E+00 -0.00000000000E+00 -0.57642363015E+02  0.57642363015E+02  0.00000000000E+00 0.  1.
          6    2    1    2  501    0 -0.36423471388E+02 -0.19395212253E+02  0.95913821214E+02  0.20084111064E+03  0.17156586810E+03 0.  0.
         24    2    3    3    0    0 -0.88089069928E+02 -0.12467131387E+02  0.87054904662E+02  0.14775718860E+03  0.79614802331E+02 0.  0.
         -6    2    1    2    0  502  0.36423471388E+02  0.19395212253E+02  0.16638151702E+04  0.16741726069E+04  0.18130127761E+03 0.  0.
        -24    2    5    5    0    0  0.20401140035E+02 -0.41687019639E+01  0.35984250368E+03  0.36988016330E+03  0.83012789118E+02 0.  0.
          5    1    3    3  501    0  0.51665598540E+02 -0.69280808662E+01  0.88589165522E+01  0.53083922043E+02  0.47000000000E+01 0. -1.
        -11    1    4    4    0    0 -0.35064999363E+02  0.21542360916E+02  0.10715858243E+01  0.41167654661E+02  0.00000000000E+00 0.  1.
         12    1    4    4    0    0 -0.53024070565E+02 -0.34009492302E+02  0.85983318838E+02  0.10658953393E+03  0.00000000000E+00 0. -1.
         -5    1    5    5    0  502  0.16022331353E+02  0.23563914217E+02  0.13039726666E+04  0.13042924436E+04  0.47000000000E+01 0.  1.
         13    1    6    6    0    0 -0.30296580501E+02  0.12680887047E+01  0.19464539402E+03  0.19699319849E+03  0.00000000000E+00 0. -1.
        -14    1    6    6    0    0  0.50697720536E+02 -0.54367906686E+01  0.16519710966E+03  0.17288696481E+03  0.00000000000E+00 0.  1.
</event>
<event>
12    1  0.8406581E-002  0.1891264E+03  0.7818608E-02  0.1160259E+00
         21   -1    0    0  501  502  0.00000000000E+00  0.00000000000E+00  0.59908529697E+03  0.59908529697E+03  0.00000000000E+00 0.  1.
         21   -1    0    0  502  503 -0.00000000000E+00 -0.00000000000E+00 -0.12119006042E+03  0.12119006042E+03  0.00000000000E+00 0.  1.
         -6    2    1    2    0  503 -0.74208563079E+01 -0.66841889535E+02 -0.19067814730E+02  0.19008517130E+03  0.17676505165E+03 0.  0.
        -24    2    3    3    0    0  0.64561846063E+02 -0.47358984882E+02 -0.23213840518E+02  0.11524953444E+03  0.79576801774E+02 0.  0.
          6    2    1    2  501    0  0.74208563079E+01  0.66841889535E+02  0.49696305128E+03  0.53019018610E+03  0.17206525445E+03 0.  0.
         24    2    5    5    0    0 -0.17216706255E+02 -0.27769490537E+02  0.21361666761E+03  0.23041429335E+03  0.79944395198E+02 0.  0.
          5    1    5    5  501    0  0.24637562563E+02  0.94611380072E+02  0.28334638368E+03  0.29977589274E+03  0.47000000000E+01 0. -1.
        -11    1    6    6    0    0 -0.33021936802E+02 -0.51601900529E+01  0.30550797241E+02  0.45281641794E+02  0.00000000000E+00 0.  1.
         12    1    6    6    0    0  0.15805230546E+02 -0.22609300484E+02  0.18306587036E+03  0.18513265156E+03  0.00000000000E+00 0. -1.
         -5    1    3    3    0  503 -0.71982702371E+02 -0.19482904653E+02  0.41460257880E+01  0.74835636860E+02  0.47000000000E+01 0.  1.
         13    1    4    4    0    0  0.57608402254E+02 -0.45888515160E+02  0.16023275121E+02  0.75373929043E+02  0.00000000000E+00 0. -1.
        -14    1    4    4    0    0  0.69534438099E+01 -0.14704697219E+01 -0.39237115639E+02  0.39875605396E+02  0.00000000000E+00 0.  1.
</event>
<event>
12    1  0.8406581E-002  0.2361417E+03  0.7818608E-02  0.1123744E+00
         21   -1    0    0  501  502  0.00000000000E+00  0.00000000000E+00  0.89946915341E+03  0.89946915341E+03  0.00000000000E+00 0. -1.
         21   -1    0    0  502  503 -0.00000000000E+00 -0.00000000000E+00 -0.11942976087E+03  0.11942976087E+03  0.00000000000E+00 0. -1.
         -6    2    1    2    0  503 -0.14853182906E+03  0.39029081073E+01  0.33844602762E+02  0.23855468990E+03  0.18353731501E+03 0.  0.
        -24    2    3    3    0    0 -0.19030087286E+02  0.51898348509E+02  0.23198204910E+02  0.99955630709E+02  0.79983677081E+02 0.  0.
          6    2    1    2  501    0  0.14853182906E+03 -0.39029081073E+01  0.74619478978E+03  0.78034422438E+03  0.17335947421E+03 0.  0.
         24    2    5    5    0    0  0.59989203645E+02 -0.70535590673E+02  0.38906791291E+03  0.40639047446E+03  0.72148477241E+02 0.  0.
          5    1    5    5  501    0  0.88542625412E+02  0.66632682566E+02  0.35712687687E+03  0.37395374992E+03  0.47000000000E+01 0. -1.
        -13    1    6    6    0    0  0.46760520034E+01 -0.48094146256E+01 -0.11701233018E+01  0.68091937790E+01  0.00000000000E+00 0.  1.
         14    1    6    6    0    0  0.55313151642E+02 -0.65726176048E+02  0.39023803621E+03  0.39958128068E+03  0.00000000000E+00 0. -1.
         -5    1    3    3    0  503 -0.12950174177E+03 -0.47995440401E+02  0.10646397852E+02  0.13859905919E+03  0.47000000000E+01 0.  1.
         13    1    4    4    0    0 -0.14671747573E+02  0.61464789315E-01 -0.25033716145E+02  0.29016390175E+02  0.00000000000E+00 0. -1.
        -14    1    4    4    0    0 -0.43583397137E+01  0.51836883719E+02  0.48231921056E+02  0.70939240534E+02  0.00000000000E+00 0.  1.
</event>
<event>
12    1  0.8406581E-002  0.1794407E+03  0.7818608E-02  0.1168408E+00
         21   -1    0    0  503  502  0.00000000000E+00  0.00000000000E+00  0.22470775751E+02  0.22470775751E+02  0.00000000000E+00 0.  1.
         21   -1    0    0  501  503 -0.00000000000E+00 -0.00000000000E+00 -0.17597463676E+04  0.17597463676E+04  0.00000000000E+00 0.  1.
          6    2    1    2  501    0  0.33696208078E+02 -0.34245964063E+02 -0.12543874858E+04  0.12671570236E+04  0.17288937929E+03 0.  0.
         24    2    3    3    0    0  0.25284104358E+02 -0.68535992622E+02 -0.48268366352E+03  0.49463165259E+03  0.79627159319E+02 0.  0.
         -6    2    1    2    0  502 -0.33696208078E+02  0.34245964063E+02 -0.48288810606E+03  0.51506011975E+03  0.17262034494E+03 0.  0.
        -24    2    5    5    0    0 -0.74553785102E+02 -0.78013031071E+01 -0.38942538625E+03  0.40463057537E+03  0.80340798270E+02 0.  0.
          5    1    3    3  501    0  0.84121037196E+01  0.34290028559E+02 -0.77170382230E+03  0.77252537104E+03  0.47000000000E+01 0. -1.
        -13    1    4    4    0    0  0.46941806614E+02 -0.59979811600E+02 -0.43439159550E+03  0.44101833210E+03  0.00000000000E+00 0.  1.
         14    1    4    4    0    0 -0.21657702256E+02 -0.85561810223E+01 -0.48292068014E+02  0.53613320488E+02  0.00000000000E+00 0. -1.
         -5    1    5    5    0  502  0.40857577025E+02  0.42047267171E+02 -0.93462719816E+02  0.11042954438E+03  0.47000000000E+01 0.  1.
         13    1    6    6    0    0 -0.13474118451E+02 -0.35796205092E+02 -0.20043911028E+03  0.20405576958E+03  0.00000000000E+00 0. -1.
        -14    1    6    6    0    0 -0.61079666652E+02  0.27994901985E+02 -0.18898627597E+03  0.20057480579E+03  0.00000000000E+00 0.  1.
</event>
<event>
12    1  0.8406581E-002  0.1766995E+03  0.7818608E-02  0.1171826E+00
         21   -1    0    0  503  502  0.00000000000E+00  0.00000000000E+00  0.21370970795E+03  0.21370970795E+03  0.00000000000E+00 0. -1.
         21   -1    0    0  501  503 -0.00000000000E+00 -0.00000000000E+00 -0.14475796030E+03  0.14475796030E+03  0.00000000000E+00 0. -1.
          6    2    1    2  501    0 -0.17279598317E+02  0.49724784943E+01  0.50873871584E+02  0.18084576879E+03  0.17260860702E+03 0.  0.
         24    2    3    3    0    0  0.38874765578E+02  0.21192268064E+02 -0.15281311461E+02  0.92443323111E+02  0.79698744553E+02 0.  0.
         -6    2    1    2    0  502  0.17279598317E+02 -0.49724784943E+01  0.18077876071E+02  0.17762189946E+03  0.17578230714E+03 0.  0.
        -24    2    5    5    0    0  0.75492111916E+02 -0.48613580425E+01 -0.14440094579E+02  0.11077717265E+03  0.79626464727E+02 0.  0.
          5    1    3    3  501    0 -0.56154363895E+02 -0.16219789569E+02  0.66155183045E+02  0.88402445678E+02  0.47000000000E+01 0. -1.
        -13    1    4    4    0    0 -0.16378399828E+02  0.30102459639E+02 -0.12253536204E+02  0.36394494182E+02  0.00000000000E+00 0.  1.
         14    1    4    4    0    0  0.55253165406E+02 -0.89101915754E+01 -0.30277752570E+01  0.56048828929E+02  0.00000000000E+00 0. -1.
         -5    1    5    5    0  502 -0.58212513600E+02 -0.11112045174E+00  0.32517970650E+02  0.66844726812E+02  0.47000000000E+01 0.  1.
         11    1    6    6    0    0  0.49343429194E+02  0.31615308746E+02  0.10342389053E+02  0.59508543613E+02  0.00000000000E+00 0. -1.
        -12    1    6    6    0    0  0.26148682723E+02 -0.36476666788E+02 -0.24782483632E+02  0.51268629035E+02  0.00000000000E+00 0.  1.
</event>
<event>
12    1  0.8406581E-002  0.1766553E+03  0.7818608E-02  0.1171289E+00
         21   -1    0    0  501  502  0.00000000000E+00  0.00000000000E+00  0.70987777124E+03  0.70987777124E+03  0.00000000000E+00 0. -1.
         21   -1    0    0  502  503 -0.00000000000E+00 -0.00000000000E+00 -0.91780277172E+02  0.91780277172E+02  0.00000000000E+00 0. -1.
         -6    2    1    2    0  503 -0.39768633979E+01  0.22809478934E+02  0.18743119671E+02  0.17681185419E+03  0.17428436383E+03 0.  0.
        -24    2    3    3    0    0 -0.10991527972E+01 -0.33064236573E+02 -0.41638593319E+02  0.94360689453E+02  0.77946875392E+02 0.  0.
          6    2    1    2  501    0  0.39768633979E+01 -0.22809478934E+02  0.59935437440E+03  0.62484619422E+03  0.17513141509E+03 0.  0.
         24    2    5    5    0    0 -0.23911547783E+02 -0.77670713663E+02  0.41023094014E+03  0.42590579627E+03  0.80633871080E+02 0.  0.
          5    1    5    5  501    0  0.27888411181E+02  0.54861234729E+02  0.18912343426E+03  0.19894039796E+03  0.47000000000E+01 0. -1.
        -13    1    6    6    0    0  0.26039178237E+02 -0.30256999743E+02  0.91658871923E+02  0.99974364909E+02  0.00000000000E+00 0.  1.
         14    1    6    6    0    0 -0.49950726020E+02 -0.47413713920E+02  0.31857206822E+03  0.32593143136E+03  0.00000000000E+00 0. -1.
         -5    1    3    3    0  503 -0.28777106007E+01  0.55873715507E+02  0.60381712990E+02  0.82451164736E+02  0.47000000000E+01 0.  1.
         11    1    4    4    0    0  0.12029545787E+02 -0.54740012578E+02 -0.40210617242E+02  0.68978784331E+02  0.00000000000E+00 0. -1.
        -12    1    4    4    0    0 -0.13128698584E+02  0.21675776005E+02 -0.14279760773E+01  0.25381905121E+02  0.00000000000E+00 0.  1.
</event>
<event>
12    1  0.8406581E-002  0.1923836E+03  0.7818608E-02  0.1156587E+00
         21   -1    0    0  501  502  0.00000000000E+00  0.00000000000E+00  0.27895910647E+02  0.27895910647E+02  0.00000000000E+00 0.  1.
         21   -1    0    0  502  503 -0.00000000000E+00 -0.00000000000E+00 -0.14151803708E+04  0.14151803708E+04  0.00000000000E+00 0.  1.
         -6    2    1    2    0  503 -0.28439863161E+02 -0.79421943594E+02 -0.88001025525E+03  0.90054650400E+03  0.17160794144E+03 0.  0.
        -24    2    3    3    0    0 -0.24821925961E+02 -0.16702978412E+02 -0.76050508126E+03  0.76545270445E+03  0.81576630459E+02 0.  0.
          6    2    1    2  501    0  0.28439863161E+02  0.79421943594E+02 -0.50727420491E+03  0.54252977746E+03  0.17290103969E+03 0.  0.
         24    2    5    5    0    0 -0.12493071153E+02 -0.19261322395E+02 -0.18433972545E+03  0.20234944275E+03  0.80231460394E+02 0.  0.
          5    1    5    5  501    0  0.40932934314E+02  0.98683265990E+02 -0.32293447946E+03  0.34018033471E+03  0.47000000000E+01 0. -1.
        -11    1    6    6    0    0  0.29735610132E+02  0.90298021573E+01 -0.51926320644E+02  0.60515176712E+02  0.00000000000E+00 0.  1.
         12    1    6    6    0    0 -0.42228681285E+02 -0.28291124553E+02 -0.13241340480E+03  0.14183426604E+03  0.00000000000E+00 0. -1.
         -5    1    3    3    0  503 -0.36179372000E+01 -0.62718965183E+02 -0.11950517400E+03  0.13509379954E+03  0.47000000000E+01 0.  1.
         11    1    4    4    0    0  0.20651177711E+02  0.16865381394E+02 -0.35900641660E+03  0.35999516578E+03  0.00000000000E+00 0. -1.
        -12    1    4    4    0    0 -0.45473103671E+02 -0.33568359806E+02 -0.40149866466E+03  0.40545753867E+03  0.00000000000E+00 0.  1.
</event>
<event>
12    1  0.8406581E-002  0.1806924E+03  0.7818608E-02  0.1167147E+00
         21   -1    0    0  501  502  0.00000000000E+00  0.00000000000E+00  0.10287396635E+03  0.10287396635E+03  0.00000000000E+00 0.  1.
         21   -1    0    0  502  503 -0.00000000000E+00 -0.00000000000E+00 -0.33489123480E+03  0.33489123480E+03  0.00000000000E+00 0.  1.
         -6    2    1    2    0  503  0.12704464178E+01 -0.55977135919E+02 -0.16620895956E+03  0.24551003868E+03  0.17179844900E+03 0.  0.
        -24    2    3    3    0    0  0.23205846444E+02  0.21108928862E+02 -0.41952563334E+02  0.97573683586E+02  0.82319547930E+02 0.  0.
          6    2    1    2  501    0 -0.12704464178E+01  0.55977135919E+02 -0.65808308896E+02  0.19225516246E+03  0.17174475303E+03 0.  0.
         24    2    5    5    0    0 -0.39630900992E+02  0.70290249856E+02  0.24122380932E+01  0.11255244772E+03  0.78427718670E+02 0.  0.
          5    1    5    5  501    0  0.38360454574E+02 -0.14313113937E+02 -0.68220546989E+02  0.79702714742E+02  0.47000000000E+01 0. -1.
        -13    1    6    6    0    0 -0.44472333262E+02  0.79955395809E+02 -0.14347022845E+02  0.92609345151E+02  0.00000000000E+00 0.  1.
         14    1    6    6    0    0  0.48414322700E+01 -0.96651459529E+01  0.16759260938E+02  0.19943102565E+02  0.00000000000E+00 0. -1.
         -5    1    3    3    0  503 -0.21935400026E+02 -0.77086064781E+02 -0.12425639622E+03  0.14793635510E+03  0.47000000000E+01 0.  1.
         13    1    4    4    0    0  0.46178111329E+02  0.24763564876E+02 -0.50518173499E+02  0.72785561514E+02  0.00000000000E+00 0. -1.
        -14    1    4    4    0    0 -0.22972264885E+02 -0.36546360142E+01  0.85656101646E+01  0.24788122072E+02  0.00000000000E+00 0.  1.
</event>
<event>
12    1  0.8406581E-002  0.1834004E+03  0.7818608E-02  0.1164707E+00
         21   -1    0    0  501  502  0.00000000000E+00  0.00000000000E+00  0.77724667859E+02  0.77724667859E+02  0.00000000000E+00 0. -1.
         21   -1    0    0  502  503 -0.00000000000E+00 -0.00000000000E+00 -0.69559455924E+03  0.69559455924E+03  0.00000000000E+00 0. -1.
         -6    2    1    2    0  503 -0.56633659599E+02  0.19262033203E+02 -0.70211813326E+02  0.19576828338E+03  0.17267635832E+03 0.  0.
        -24    2    3    3    0    0 -0.68066631871E+02 -0.26639381124E+02 -0.93103682818E+02  0.14300674074E+03  0.80249044500E+02 0.  0.
          6    2    1    2  501    0  0.56633659599E+02 -0.19262033203E+02 -0.54765807806E+03  0.57755094372E+03  0.17337048426E+03 0.  0.
         24    2    5    5    0    0  0.94349503581E+02  0.23785222377E+02 -0.36434429345E+03  0.38545309176E+03  0.79748079301E+02 0.  0.
          5    1    5    5  501    0 -0.37715843981E+02 -0.43047255580E+02 -0.18331378461E+03  0.19209785196E+03  0.47000000000E+01 0. -1.
        -11    1    6    6    0    0  0.22161615941E+01  0.30416117434E+02 -0.58612775311E+02  0.66071998620E+02  0.00000000000E+00 0.  1.
         12    1    6    6    0    0  0.92133341986E+02 -0.66308950575E+01 -0.30573151814E+03  0.31938109314E+03  0.00000000000E+00 0. -1.
         -5    1    3    3    0  503  0.11432972272E+02  0.45901414327E+02  0.22891869492E+02  0.52761542633E+02  0.47000000000E+01 0.  1.
         13    1    4    4    0    0  0.64098173460E+01  0.11319750379E+02  0.51625733137E+01  0.13995523223E+02  0.00000000000E+00 0. -1.
        -14    1    4    4    0    0 -0.74476449217E+02 -0.37959131503E+02 -0.98266256132E+02  0.12901121752E+03  0.00000000000E+00 0.  1.
</event>
<event>
12    1  0.8406581E-002  0.2224894E+03  0.7818608E-02  0.1132094E+00
         21   -1    0    0  501  502  0.00000000000E+00  0.00000000000E+00  0.30402527142E+03  0.30402527142E+03  0.00000000000E+00 0.  1.
         21   -1    0    0  502  503 -0.00000000000E+00 -0.00000000000E+00 -0.18251220791E+03  0.18251220791E+03  0.00000000000E+00 0.  1.
         -6    2    1    2    0  503 -0.42354197120E+02 -0.13485795959E+03 -0.19619513207E+02  0.22306087085E+03  0.17143710079E+03 0.  0.
        -24    2    3    3    0    0  0.90669515010E+01 -0.73489433211E+02  0.47179477454E+02  0.11868450519E+03  0.79857387108E+02 0.  0.
          6    2    1    2  501    0  0.42354197120E+02  0.13485795959E+03  0.14113257671E+03  0.26347660847E+03  0.17181668058E+03 0.  0.
         24    2    5    5    0    0  0.43723309440E+02  0.51303759779E+02  0.14731252100E+03  0.17955128163E+03  0.77420154582E+02 0.  0.
          5    1    5    5  501    0 -0.13691123200E+01  0.83554199812E+02 -0.61799442879E+01  0.83925326846E+02  0.47000000000E+01 0. -1.
        -13    1    6    6    0    0  0.21946343552E+02  0.63848001944E+02  0.65889014888E+02  0.94337540939E+02  0.00000000000E+00 0.  1.
         14    1    6    6    0    0  0.21776965888E+02 -0.12544242165E+02  0.81423506112E+02  0.85213740690E+02  0.00000000000E+00 0. -1.
         -5    1    3    3    0  503 -0.51421148621E+02 -0.61368526380E+02 -0.66798990662E+02  0.10437636566E+03  0.47000000000E+01 0.  1.
         13    1    4    4    0    0 -0.28361928987E+02 -0.10320404834E+02 -0.21017639298E+01  0.30254374616E+02  0.00000000000E+00 0. -1.
        -14    1    4    4    0    0  0.37428880488E+02 -0.63169028377E+02  0.49281241384E+02  0.88430130572E+02  0.00000000000E+00 0.  1.
</event>
<event>
12    1  0.8406581E-002  0.1775799E+03  0.7818608E-02  0.1170404E+00
         21   -1    0    0  501  502  0.00000000000E+00  0.00000000000E+00  0.34567478899E+03  0.34567478899E+03  0.00000000000E+00 0. -1.
         21   -1    0    0  502  503 -0.00000000000E+00 -0.00000000000E+00 -0.92707356634E+02  0.92707356634E+02  0.00000000000E+00 0. -1.
         -6    2    1    2    0  503 -0.36673734223E+02 -0.22169127041E+02  0.94153938045E+02  0.20014627621E+03  0.17133923910E+03 0.  0.
        -24    2    3    3    0    0  0.40644595618E+02 -0.29454424251E+02  0.30445101839E+02  0.99587310939E+02  0.80443657383E+02 0.  0.
          6    2    1    2  501    0  0.36673734223E+02  0.22169127041E+02  0.15881349431E+03  0.23823586942E+03  0.17233157147E+03 0.  0.
         24    2    5    5    0    0  0.40987099679E+02  0.75441965110E+02  0.79800124061E+02  0.14272773848E+03  0.81435343010E+02 0.  0.
          5    1    5    5  501    0 -0.43133654563E+01 -0.53272838068E+02  0.79013370247E+02  0.95508130938E+02  0.47000000000E+01 0. -1.
        -11    1    6    6    0    0  0.29557991618E+02  0.51665549099E+01  0.62691277244E+02  0.69502261838E+02  0.00000000000E+00 0.  1.
         12    1    6    6    0    0  0.11429108061E+02  0.70275410200E+02  0.17108846818E+02  0.73225476641E+02  0.00000000000E+00 0. -1.
         -5    1    3    3    0  503 -0.77318329840E+02  0.72852972101E+01  0.63708836207E+02  0.10055896527E+03  0.47000000000E+01 0.  1.
         13    1    4    4    0    0  0.19316455470E+02 -0.55010024610E+02  0.66722717047E+01  0.58683451409E+02  0.00000000000E+00 0. -1.
        -14    1    4    4    0    0  0.21328140147E+02  0.25555600359E+02  0.23772830134E+02  0.40903859530E+02  0.00000000000E+00 0.  1.
</event>
<event>
12    1  0.8406581E-002  0.2243427E+03  0.7818608E-02  0.1130946E+00
         21   -1    0    0  501  502  0.00000000000E+00  0.00000000000E+00  0.43731531877E+03  0.43731531877E+03  0.00000000000E+00 0. -1.
         21   -1    0    0  502  503 -0.00000000000E+00 -0.00000000000E+00 -0.15969824928E+03  0.15969824928E+03  0.00000000000E+00 0.  1.
         -6    2    1    2    0  503 -0.13970668652E+03  0.11545521324E+02 -0.19930093125E+02  0.22522628037E+03  0.17515253762E+03 0.  0.
        -24    2    3    3    0    0 -0.15746237429E+03  0.41710132903E+02 -0.41478551278E+02  0.18385486163E+03  0.74484934198E+02 0.  0.
          6    2    1    2  501    0  0.13970668652E+03 -0.11545521324E+02  0.29754716262E+03  0.37178728768E+03  0.17332113541E+03 0.  0.
         24    2    5    5    0    0  0.16420097337E+03 -0.34905077753E+02  0.27321542160E+03  0.32983776342E+03  0.77239623686E+02 0.  0.
          5    1    5    5  501    0 -0.24494286852E+02  0.23359556429E+02  0.24331741016E+02  0.41949524262E+02  0.47000000000E+01 0. -1.
        -13    1    6    6    0    0  0.12950974029E+03 -0.53980708944E+02  0.17750531430E+03  0.22626273749E+03  0.00000000000E+00 0.  1.
         14    1    6    6    0    0  0.34691233078E+02  0.19075631192E+02  0.95710107298E+02  0.10357502593E+03  0.00000000000E+00 0. -1.
         -5    1    3    3    0  503  0.17755687773E+02 -0.30164611579E+02  0.21548458153E+02  0.41371418742E+02  0.47000000000E+01 0.  1.
         11    1    4    4    0    0 -0.12956919602E+03  0.38487013559E+01 -0.43649047562E+02  0.13677802606E+03  0.00000000000E+00 0. -1.
        -12    1    4    4    0    0 -0.27893178276E+02  0.37861431547E+02  0.21704962844E+01  0.47076835570E+02  0.00000000000E+00 0.  1.
</event>
<event>
12    1  0.8406581E-002  0.2111267E+03  0.7818608E-02  0.1140972E+00
         21   -1    0    0  501  502  0.00000000000E+00  0.00000000000E+00  0.58866296489E+02  0.58866296489E+02  0.00000000000E+00 0.  1.
         21   -1    0    0  502  503 -0.00000000000E+00 -0.00000000000E+00 -0.77779514708E+03  0.77779514708E+03  0.00000000000E+00 0.  1.
         -6    2    1    2    0  503  0.60178258484E+02  0.10592639236E+03 -0.28185403094E+03  0.35126583728E+03  0.17059944399E+03 0.  0.
        -24    2    3    3    0    0  0.85306011171E+02  0.88751766473E+02 -0.16490267573E+03  0.23032750086E+03  0.10345952636E+03 0.  0.
          6    2    1    2  501    0 -0.60178258484E+02 -0.10592639236E+03 -0.43707481964E+03  0.48539560629E+03  0.17243164803E+03 0.  0.
         24    2    5    5    0    0 -0.70527373864E+02 -0.13839976331E+03 -0.38739580435E+03  0.42496615510E+03  0.79950727365E+02 0.  0.
          5    1    5    5  501    0  0.10349115381E+02  0.32473370950E+02 -0.49679015295E+02  0.60429451186E+02  0.47000000000E+01 0. -1.
        -11    1    6    6    0    0 -0.87193632442E+02 -0.10421430059E+03 -0.28497137787E+03  0.31570878383E+03  0.00000000000E+00 0.  1.
         12    1    6    6    0    0  0.16666258577E+02 -0.34185462713E+02 -0.10242442648E+03  0.10925737127E+03  0.00000000000E+00 0. -1.
         -5    1    3    3    0  503 -0.25127752687E+02  0.17174625883E+02 -0.11695135522E+03  0.12093833642E+03  0.47000000000E+01 0.  1.
         11    1    4    4    0    0  0.12221909942E+02  0.79568235022E+02 -0.53084079134E+02  0.96428204197E+02  0.00000000000E+00 0. -1.
        -12    1    4    4    0    0  0.73084101228E+02  0.91835314514E+01 -0.11181859659E+03  0.13389929666E+03  0.00000000000E+00 0.  1.
</event>
<event>
12    1  0.8406581E-002  0.1746006E+03  0.7818608E-02  0.1173347E+00
         21   -1    0    0  501  502  0.00000000000E+00  0.00000000000E+00  0.38945354083E+03  0.38945354083E+03  0.00000000000E+00 0.  1.
         21   -1    0    0  502  503 -0.00000000000E+00 -0.00000000000E+00 -0.36273359031E+03  0.36273359031E+03  0.00000000000E+00 0.  1.
         -6    2    1    2    0  503 -0.28439153528E+02  0.65030015236E+01 -0.31990478145E+03  0.36445086616E+03  0.17214613028E+03 0.  0.
        -24    2    3    3    0    0 -0.11421150240E+02 -0.52903227144E+01 -0.33076163843E+03  0.34060435120E+03  0.80309603482E+02 0.  0.
          6    2    1    2  501    0  0.28439153528E+02 -0.65030015236E+01  0.34662473197E+03  0.38773626498E+03  0.17128815454E+03 0.  0.
         24    2    5    5    0    0 -0.12990756132E+02 -0.47471744887E+02  0.11800717936E+03  0.15176391340E+03  0.81757352717E+02 0.  0.
          5    1    5    5  501    0  0.41429909660E+02  0.40968743363E+02  0.22861755261E+03  0.23597235157E+03  0.47000000000E+01 0. -1.
        -11    1    6    6    0    0  0.30327002025E+02 -0.40115805796E+02  0.74857298838E+02  0.90181040778E+02  0.00000000000E+00 0.  1.
         12    1    6    6    0    0 -0.43317758157E+02 -0.73559390907E+01  0.43149880522E+02  0.61582872625E+02  0.00000000000E+00 0. -1.
         -5    1    3    3    0  503 -0.17018003288E+02  0.11793324238E+02  0.10856856978E+02  0.23846514964E+02  0.47000000000E+01 0.  1.
         11    1    4    4    0    0  0.24700843266E+02 -0.21575392748E+02 -0.75925173843E+02  0.82705871940E+02  0.00000000000E+00 0. -1.
        -12    1    4    4    0    0 -0.36121993505E+02  0.16285070034E+02 -0.25483646459E+03  0.25789847926E+03  0.00000000000E+00 0.  1.
</event>
<event>
12    1  0.8406581E-002  0.2306628E+03  0.7818608E-02  0.1129204E+00
         21   -1    0    0  501  502  0.00000000000E+00  0.00000000000E+00  0.31233244709E+03  0.31233244709E+03  0.00000000000E+00 0.  1.
         21   -1    0    0  502  503 -0.00000000000E+00 -0.00000000000E+00 -0.16475761320E+03  0.16475761320E+03  0.00000000000E+00 0.  1.
         -6    2    1    2    0  503  0.43801363520E+02  0.12059803590E+03  0.23953676983E+02  0.21538888700E+03  0.17133636010E+03 0.  0.
        -24    2    3    3    0    0  0.46364955452E+02  0.93255320026E+02  0.81195047204E+02  0.15172680582E+03  0.74713613937E+02 0.  0.
          6    2    1    2  501    0 -0.43801363520E+02 -0.12059803590E+03  0.12362115691E+03  0.26170117329E+03  0.19168429242E+03 0.  0.
         24    2    5    5    0    0 -0.39721775015E+02 -0.39366753332E+02 -0.65760101590E+01  0.10811550788E+03  0.92293870085E+02 0.  0.
          5    1    5    5  501    0 -0.40795885051E+01 -0.81231282567E+02  0.13019716707E+03  0.15358566542E+03  0.47000000000E+01 0. -1.
        -11    1    6    6    0    0 -0.15065538350E+02 -0.60481901701E+02 -0.28914471372E+02  0.68710097757E+02  0.00000000000E+00 0.  1.
         12    1    6    6    0    0 -0.24656236666E+02  0.21115148369E+02  0.22338461213E+02  0.39405410118E+02  0.00000000000E+00 0. -1.
         -5    1    3    3    0  503 -0.25635919312E+01  0.27342715872E+02 -0.57241370221E+02  0.63662081176E+02  0.47000000000E+01 0.  1.
         13    1    4    4    0    0 -0.49648932306E+01  0.21818496046E+02 -0.10450005720E+02  0.24696144518E+02  0.00000000000E+00 0. -1.
        -14    1    4    4    0    0  0.51329848682E+02  0.71436823980E+02  0.91645052924E+02  0.12703066130E+03  0.00000000000E+00 0.  1.
</event>
<event>
12    1  0.8406581E-002  0.2231803E+03  0.7818608E-02  0.1132140E+00
         21   -1    0    0  503  502  0.00000000000E+00  0.00000000000E+00  0.12954924735E+03  0.12954924735E+03  0.00000000000E+00 0.  1.
         21   -1    0    0  501  503 -0.00000000000E+00 -0.00000000000E+00 -0.66089035156E+03  0.66089035156E+03  0.00000000000E+00 0.  1.
          6    2    1    2  501    0  0.11707358998E+03  0.80207007329E+02 -0.52498190641E+03  0.57045195990E+03  0.17224995501E+03 0.  0.
         24    2    3    3    0    0  0.55605213172E+02  0.87357147130E+02 -0.19611111168E+03  0.23577663145E+03  0.80048990796E+02 0.  0.
         -6    2    1    2    0  502 -0.11707358998E+03 -0.80207007329E+02 -0.63591978057E+01  0.21998763901E+03  0.16797241566E+03 0.  0.
        -24    2    5    5    0    0 -0.18072907312E+02 -0.73394573573E+01  0.38894910884E+02  0.88911938127E+02  0.77537223549E+02 0.  0.
          5    1    3    3  501    0  0.61468376812E+02 -0.71501398011E+01 -0.32887079473E+03  0.33467532845E+03  0.47000000000E+01 0. -1.
        -13    1    4    4    0    0  0.55703086602E+00  0.40228706222E+02 -0.13536456043E+03  0.14121693704E+03  0.00000000000E+00 0.  1.
         14    1    4    4    0    0  0.55048182306E+02  0.47128440908E+02 -0.60746551249E+02  0.94559694406E+02  0.00000000000E+00 0. -1.
         -5    1    5    5    0  502 -0.99000682672E+02 -0.72867549972E+02 -0.45254108690E+02  0.13107570088E+03  0.47000000000E+01 0.  1.
         13    1    6    6    0    0 -0.12312234819E+02  0.15918179847E+02 -0.18111938747E+02  0.27074377205E+02  0.00000000000E+00 0. -1.
        -14    1    6    6    0    0 -0.57606724931E+01 -0.23257637204E+02  0.57006849631E+02  0.61837560922E+02  0.00000000000E+00 0.  1.
</event>
<event>
12    1  0.8406581E-002  0.1907971E+03  0.7818608E-02  0.1158018E+00
         21   -1    0    0  503  502  0.00000000000E+00  0.00000000000E+00  0.63494118206E+03  0.63494118206E+03  0.00000000000E+00 0. -1.
         21   -1    0    0  501  503 -0.00000000000E+00 -0.00000000000E+00 -0.12738764821E+03  0.12738764821E+03  0.00000000000E+00 0.  1.
          6    2    1    2  501    0 -0.69773910758E+02  0.40949849157E+02 -0.29254937772E+02  0.19302685597E+03  0.17279533261E+03 0.  0.
         24    2    3    3    0    0 -0.94137271345E+02  0.18696134090E+02 -0.68189164533E+02  0.14177487858E+03  0.78987231558E+02 0.  0.
         -6    2    1    2    0  502  0.69773910758E+02 -0.40949849157E+02  0.53680847161E+03  0.56930197430E+03  0.17145294975E+03 0.  0.
        -24    2    5    5    0    0 -0.17065639605E+02  0.19064529836E+02  0.18987432292E+03  0.20663376956E+03  0.77398732992E+02 0.  0.
          5    1    3    3  501    0  0.24363360588E+02  0.22253715067E+02  0.38934226761E+02  0.51251977395E+02  0.47000000000E+01 0. -1.
        -13    1    4    4    0    0 -0.25271753377E+02 -0.18281301038E+02  0.84408628046E+01  0.32312778452E+02  0.00000000000E+00 0.  1.
         14    1    4    4    0    0 -0.68865517969E+02  0.36977435128E+02 -0.76630027337E+02  0.10946210012E+03  0.00000000000E+00 0. -1.
         -5    1    5    5    0  502  0.86839550363E+02 -0.60014378993E+02  0.34693414870E+03  0.36266820474E+03  0.47000000000E+01 0.  1.
         13    1    6    6    0    0 -0.16435570211E+02 -0.29060656142E+02  0.78604226090E+02  0.85400667812E+02  0.00000000000E+00 0. -1.
        -14    1    6    6    0    0 -0.63006939404E+00  0.48125185978E+02  0.11127009683E+03  0.12123310175E+03  0.00000000000E+00 0.  1.
</event>
<event>
12    1  0.8406581E-002  0.2101492E+03  0.7818608E-02  0.1141671E+00
         21   -1    0    0  503  502  0.00000000000E+00  0.00000000000E+00  0.35275693865E+03  0.35275693865E+03  0.00000000000E+00 0. -1.
         21   -1    0    0  501  503 -0.00000000000E+00 -0.00000000000E+00 -0.12718734480E+03  0.12718734480E+03  0.00000000000E+00 0. -1.
          6    2    1    2  501    0 -0.10554484244E+03 -0.53793378709E+02  0.78354329238E+02  0.22428130756E+03  0.17357782880E+03 0.  0.
         24    2    3    3    0    0 -0.94484602134E+02 -0.60747939462E+02  0.11864349666E+03  0.18166673443E+03  0.79428401157E+02 0.  0.
         -6    2    1    2    0  502  0.10554484244E+03  0.53793378709E+02  0.14721526461E+03  0.25566297589E+03  0.17221434826E+03 0.  0.
        -24    2    5    5    0    0  0.10503627059E+03  0.13421012626E+02  0.35682787153E+02  0.13695421414E+03  0.79186196726E+02 0.  0.
          5    1    3    3  501    0 -0.11060240310E+02  0.69545607532E+01 -0.40289167424E+02  0.42614573126E+02  0.47000000000E+01 0. -1.
        -13    1    4    4    0    0  0.13491286470E+02 -0.57136544367E+01  0.48738619488E+01  0.15440699076E+02  0.00000000000E+00 0.  1.
         14    1    4    4    0    0 -0.10797588860E+03 -0.55034285026E+02  0.11376963471E+03  0.16622603536E+03  0.00000000000E+00 0. -1.
         -5    1    5    5    0  502  0.50857185431E+00  0.40372366084E+02  0.11153247746E+03  0.11870876175E+03  0.47000000000E+01 0.  1.
         11    1    6    6    0    0  0.45260698509E+02 -0.33274944568E+02  0.11511709585E+02  0.57343458416E+02  0.00000000000E+00 0. -1.
        -12    1    6    6    0    0  0.59775572080E+02  0.46695957194E+02  0.24171077568E+02  0.79610755722E+02  0.00000000000E+00 0.  1.
</event>
<event>
12    1  0.8406581E-002  0.1879771E+03  0.7818608E-02  0.1160491E+00
         21   -1    0    0  501  502  0.00000000000E+00  0.00000000000E+00  0.20773699578E+03  0.20773699578E+03  0.00000000000E+00 0. -1.
         21   -1    0    0  502  503 -0.00000000000E+00 -0.00000000000E+00 -0.18120163123E+03  0.18120163123E+03  0.00000000000E+00 0. -1.
         -6    2    1    2    0  503  0.47971860510E+02 -0.56948933841E+02  0.62998644084E+02  0.19745767450E+03  0.17168641063E+03 0.  0.
        -24    2    3    3    0    0  0.60865167398E+02 -0.38950282874E+02  0.10484921757E+03  0.14987879999E+03  0.79048106378E+02 0.  0.
          6    2    1    2  501    0 -0.47971860510E+02  0.56948933841E+02 -0.36463279542E+02  0.19148095251E+03  0.17260041701E+03 0.  0.
         24    2    5    5    0    0 -0.60260136505E+02  0.77387420617E+02  0.21425707758E+02  0.12869593583E+03  0.80520097027E+02 0.  0.
          5    1    5    5  501    0  0.12288275995E+02 -0.20438486776E+02 -0.57888987300E+02  0.62785016678E+02  0.47000000000E+01 0. -1.
        -13    1    6    6    0    0  0.18658020269E+02  0.13757142027E+02 -0.54611193015E+01  0.23816055533E+02  0.00000000000E+00 0.  1.
         14    1    6    6    0    0 -0.78918156774E+02  0.63630278591E+02  0.26886827060E+02  0.10487988030E+03  0.00000000000E+00 0. -1.
         -5    1    3    3    0  503 -0.12893306888E+02 -0.17998650967E+02 -0.41850573485E+02  0.47578874516E+02  0.47000000000E+01 0.  1.
         11    1    4    4    0    0  0.76513042471E+02 -0.44464130720E+02  0.76239468027E+02  0.11680651126E+03  0.00000000000E+00 0. -1.
        -12    1    4    4    0    0 -0.15647875073E+02  0.55138478462E+01  0.28609749542E+02  0.33072288721E+02  0.00000000000E+00 0.  1.
</event>
<event>
12    1  0.8406581E-002  0.2562117E+03  0.7818608E-02  0.1109652E+00
         21   -1    0    0  501  502  0.00000000000E+00  0.00000000000E+00  0.63246971729E+03  0.63246971729E+03  0.00000000000E+00 0. -1.
         21   -1    0    0  502  503 -0.00000000000E+00 -0.00000000000E+00 -0.28142950086E+03  0.28142950086E+03  0.00000000000E+00 0.  1.
         -6    2    1    2    0  503 -0.93298252983E+01 -0.19006546535E+03  0.53895189486E+03  0.59616467449E+03  0.16950294208E+03 0.  0.
        -24    2    3    3    0    0 -0.27463560618E+01 -0.60325109072E+02  0.36795836599E+03  0.38136993752E+03  0.80018803319E+02 0.  0.
          6    2    1    2  501    0  0.93298252983E+01  0.19006546535E+03 -0.18791167843E+03  0.31773454366E+03  0.17155907026E+03 0.  0.
         24    2    5    5    0    0 -0.29059285340E+02  0.19478975736E+03 -0.15186619872E+03  0.26465526938E+03  0.90507334834E+02 0.  0.
          5    1    5    5  501    0  0.38389110639E+02 -0.47242920157E+01 -0.36045479708E+02  0.53079274280E+02  0.47000000000E+01 0. -1.
        -13    1    6    6    0    0 -0.16437705466E+02  0.14173933384E+03 -0.15417938039E+03  0.21007503006E+03  0.00000000000E+00 0.  1.
         14    1    6    6    0    0 -0.12621579874E+02  0.53050423525E+02  0.23131816686E+01  0.54580239319E+02  0.00000000000E+00 0. -1.
         -5    1    3    3    0  503 -0.65834692366E+01 -0.12974035628E+03  0.17099352887E+03  0.21479473697E+03  0.47000000000E+01 0.  1.
         11    1    4    4    0    0  0.26386376075E+02  0.32996086410E+01  0.61136703331E+02  0.66669518925E+02  0.00000000000E+00 0. -1.
        -12    1    4    4    0    0 -0.29132732137E+02 -0.63624717713E+02  0.30682166266E+03  0.31470041859E+03  0.00000000000E+00 0.  1.
</event>
<event>
12    1  0.8406581E-002  0.2590986E+03  0.7818608E-02  0.1108471E+00
         21   -1    0    0  503  502  0.00000000000E+00  0.00000000000E+00  0.30912327887E+02  0.30912327887E+02  0.00000000000E+00 0.  1.
         21   -1    0    0  501  503 -0.00000000000E+00 -0.00000000000E+00 -0.29998991629E+04  0.29998991629E+04  0.00000000000E+00 0. -1.
          6    2    1    2  501    0 -0.18049766229E+03 -0.52138008567E+02 -0.22905150093E+04  0.23045497459E+04  0.17085884663E+03 0.  0.
         24    2    3    3    0    0 -0.33016848210E+02 -0.58055805978E+02 -0.79066384520E+03  0.79744616110E+03  0.79438497489E+02 0.  0.
         -6    2    1    2    0  502  0.18049766229E+03  0.52138008567E+02 -0.67847182577E+03  0.72626174494E+03  0.17842176373E+03 0.  0.
        -24    2    5    5    0    0  0.20476066548E+03  0.42455455839E+02 -0.52180465060E+03  0.56736196858E+03  0.76747079096E+02 0.  0.
          5    1    3    3  501    0 -0.14748081408E+03  0.59177974109E+01 -0.14998511641E+04  0.15071035848E+04  0.47000000000E+01 0. -1.
        -11    1    4    4    0    0 -0.26837858398E+02  0.13800050728E+02 -0.29931792035E+03  0.30083538603E+03  0.00000000000E+00 0.  1.
         12    1    4    4    0    0 -0.61789898119E+01 -0.71855856706E+02 -0.49134592485E+03  0.49661077507E+03  0.00000000000E+00 0. -1.
         -5    1    5    5    0  502 -0.24263003186E+02  0.96825527280E+01 -0.15666717517E+03  0.15889977636E+03  0.47000000000E+01 0.  1.
         13    1    6    6    0    0  0.10393098938E+03  0.38749704968E+02 -0.18435587031E+03  0.21515175367E+03  0.00000000000E+00 0. -1.
        -14    1    6    6    0    0  0.10082967609E+03  0.37057508710E+01 -0.33744878028E+03  0.35221021491E+03  0.00000000000E+00 0.  1.
</event>
<event>
12    1  0.8406581E-002  0.2319869E+03  0.7818608E-02  0.1125395E+00
         21   -1    0    0  503  502  0.00000000000E+00  0.00000000000E+00  0.98370684089E+03  0.98370684089E+03  0.00000000000E+00 0.  1.
         21   -1    0    0  501  503 -0.00000000000E+00 -0.00000000000E+00 -0.63435481496E+02  0.63435481496E+02  0.00000000000E+00 0. -1.
          6    2    1    2  501    0 -0.10613315724E+03 -0.11440269002E+03  0.26304211649E+03  0.35017158210E+03  0.17051908783E+03 0.  0.
         24    2    3    3    0    0 -0.63160337524E+02 -0.75370499494E+02  0.61898092064E+02  0.14076483987E+03  0.79457069612E+02 0.  0.
         -6    2    1    2    0  502  0.10613315724E+03  0.11440269002E+03  0.65722924291E+03  0.69697074029E+03  0.17165579668E+03 0.  0.
        -24    2    5    5    0    0  0.29794063510E+02  0.58352906390E+02  0.16010127054E+03  0.19088028752E+03  0.80685311109E+02 0.  0.
          5    1    3    3  501    0 -0.42972819718E+02 -0.39032190524E+02  0.20114402442E+03  0.20940674223E+03  0.47000000000E+01 0. -1.
        -13    1    4    4    0    0  0.80164981520E+01 -0.11762789190E+02 -0.13118848328E+02  0.19357986300E+02  0.00000000000E+00 0.  1.
         14    1    4    4    0    0 -0.71176835676E+02 -0.63607710304E+02  0.75016940393E+02  0.12140685357E+03  0.00000000000E+00 0. -1.
         -5    1    5    5    0  502  0.76339093732E+02  0.56049783628E+02  0.49712797237E+03  0.50609045277E+03  0.47000000000E+01 0.  1.
         11    1    6    6    0    0  0.28263358937E+02  0.31951324749E+01  0.11825700645E+03  0.12162954371E+03  0.00000000000E+00 0. -1.
        -12    1    6    6    0    0  0.15307045731E+01  0.55157773915E+02  0.41844264094E+02  0.69250743803E+02  0.00000000000E+00 0.  1.
</event>
<event>
12    1  0.8406581E-002  0.1753437E+03  0.7818608E-02  0.1172593E+00
         21   -1    0    0  501  502  0.00000000000E+00  0.00000000000E+00  0.86424923823E+03  0.86424923823E+03  0.00000000000E+00 0.  1.
         21   -1    0    0  502  503 -0.00000000000E+00 -0.00000000000E+00 -0.70943612479E+02  0.70943612479E+02  0.00000000000E+00 0.  1.
         -6    2    1    2    0  503  0.31758067993E+02  0.18474766710E+02  0.65256092687E+02  0.18632602456E+03  0.17061400268E+03 0.  0.
        -24    2    3    3    0    0  0.69197387507E+02  0.34060819358E+02  0.26293038643E+01  0.11156753099E+03  0.80572842075E+02 0.  0.
          6    2    1    2  501    0 -0.31758067993E+02 -0.18474766710E+02  0.72804953307E+03  0.74886682615E+03  0.17145118494E+03 0.  0.
         24    2    5    5    0    0 -0.90282875612E+01  0.46115555212E+02  0.26268190018E+03  0.27846521439E+03  0.79579774660E+02 0.  0.
          5    1    5    5  501    0 -0.22729780432E+02 -0.64590321922E+02  0.46536763289E+03  0.47040161176E+03  0.47000000000E+01 0. -1.
        -13    1    6    6    0    0 -0.19533945520E+02 -0.18128437267E+02  0.61869581172E+02  0.67365127030E+02  0.00000000000E+00 0.  1.
         14    1    6    6    0    0  0.10505657959E+02  0.64243992479E+02  0.20081231900E+03  0.21110008736E+03  0.00000000000E+00 0. -1.
         -5    1    3    3    0  503 -0.37439319514E+02 -0.15586052648E+02  0.62626788823E+02  0.74758493571E+02  0.47000000000E+01 0.  1.
         11    1    4    4    0    0 -0.12497642947E+02  0.18121877519E+01 -0.17383840430E+02  0.21486577479E+02  0.00000000000E+00 0. -1.
        -12    1    4    4    0    0  0.81695030454E+02  0.32248631606E+02  0.20013144294E+02  0.90080953514E+02  0.00000000000E+00 0.  1.
</event>
<event>
12    1  0.8406581E-002  0.1829990E+03  0.7818608E-02  0.1165141E+00
         21   -1    0    0  503  502  0.00000000000E+00  0.00000000000E+00  0.20063598291E+03  0.20063598291E+03  0.00000000000E+00 0. -1.
         21   -1    0    0  501  503 -0.00000000000E+00 -0.00000000000E+00 -0.21231890451E+03  0.21231890451E+03  0.00000000000E+00 0.  1.
          6    2    1    2  501    0  0.26489314502E+02 -0.57368417209E+02 -0.10215632834E+03  0.20881258946E+03  0.17080387298E+03 0.  0.
         24    2    3    3    0    0 -0.37684706178E+02 -0.71611475662E+02 -0.45433021353E+02  0.12185976778E+03  0.78976598098E+02 0.  0.
         -6    2    1    2    0  502 -0.26489314502E+02  0.57368417209E+02  0.90473406738E+02  0.20414229796E+03  0.17174347560E+03 0.  0.
        -24    2    5    5    0    0  0.45307369631E+02  0.22930980519E+02  0.81693100304E+02  0.12389340588E+03  0.78084734570E+02 0.  0.
          5    1    3    3  501    0  0.64174020680E+02  0.14243058452E+02 -0.56723306984E+02  0.86952821688E+02  0.47000000000E+01 0. -1.
        -13    1    4    4    0    0  0.22853300663E+02 -0.13350989872E+02 -0.26308172072E+00  0.26468688932E+02  0.00000000000E+00 0.  1.
         14    1    4    4    0    0 -0.60538006841E+02 -0.58260485789E+02 -0.45169939632E+02  0.95391078844E+02  0.00000000000E+00 0. -1.
         -5    1    5    5    0  502 -0.71796684134E+02  0.34437436690E+02  0.87803064344E+01  0.80248892076E+02  0.47000000000E+01 0.  1.
         13    1    6    6    0    0  0.62659917533E+02 -0.19785395068E+01  0.52386512512E+02  0.81697775839E+02  0.00000000000E+00 0. -1.
        -14    1    6    6    0    0 -0.17352547902E+02  0.24909520025E+02  0.29306587792E+02  0.42195630041E+02  0.00000000000E+00 0.  1.
</event>
<event>
12    1  0.8406581E-002  0.2737477E+03  0.7818608E-02  0.1099560E+00
         21   -1    0    0  501  502  0.00000000000E+00  0.00000000000E+00  0.19226652234E+03  0.19226652234E+03  0.00000000000E+00 0.  1.
         21   -1    0    0  502  503 -0.00000000000E+00 -0.00000000000E+00 -0.87902930172E+03  0.87902930172E+03  0.00000000000E+00 0. -1.
         -6    2    1    2    0  503 -0.20736516380E+03  0.46669301473E+02  0.57108106855E+02  0.27964107287E+03  0.17250930094E+03 0.  0.
        -24    2    3    3    0    0 -0.21879634444E+03  0.10526113095E+02  0.58743947446E+02  0.24140799908E+03  0.82730473610E+02 0.  0.
          6    2    1    2  501    0  0.20736516380E+03 -0.46669301473E+02 -0.74387088624E+03  0.79165475119E+03  0.16791371247E+03 0.  0.
         24    2    5    5    0    0  0.98666072565E+02  0.27904365158E+02 -0.47002865289E+03  0.48770017736E+03  0.80067977292E+02 0.  0.
          5    1    5    5  501    0  0.10869909123E+03 -0.74573666631E+02 -0.27384223335E+03  0.30395457383E+03  0.47000000000E+01 0. -1.
        -11    1    6    6    0    0 -0.93726178349E+01  0.19587303474E+02 -0.81841586632E+02  0.84673217282E+02  0.00000000000E+00 0.  1.
         12    1    6    6    0    0  0.10803869040E+03  0.83170616838E+01 -0.38818706626E+03  0.40302696008E+03  0.00000000000E+00 0. -1.
         -5    1    3    3    0  503  0.11431180641E+02  0.36143188378E+02 -0.16358405914E+01  0.38233073790E+02  0.47000000000E+01 0.  1.
         13    1    4    4    0    0 -0.86331516719E+02  0.12442809159E+02 -0.16912580816E+02  0.88848126984E+02  0.00000000000E+00 0. -1.
        -14    1    4    4    0    0 -0.13246482772E+03 -0.19166960634E+01  0.75656528262E+02  0.15255987210E+03  0.00000000000E+00 0.  1.
</event>
<event>
12    1  0.8406581E-002  0.1810699E+03  0.7818608E-02  0.1166776E+00
         21   -1    0    0  501  502  0.00000000000E+00  0.00000000000E+00  0.30705869469E+03  0.30705869469E+03  0.00000000000E+00 0.  1.
         21   -1    0    0  502  503 -0.00000000000E+00 -0.00000000000E+00 -0.18355898946E+03  0.18355898946E+03  0.00000000000E+00 0.  1.
         -6    2    1    2    0  503 -0.45869990540E+02  0.29802838890E+02 -0.96916866468E+02  0.20537574113E+03  0.17260953276E+03 0.  0.
        -24    2    3    3    0    0 -0.92488789178E+02  0.18292975629E+02 -0.35148807286E+02  0.12699734822E+03  0.77485990486E+02 0.  0.
          6    2    1    2  501    0  0.45869990540E+02 -0.29802838890E+02  0.22041657170E+03  0.28524194302E+03  0.17258979038E+03 0.  0.
         24    2    5    5    0    0  0.45312194175E+02 -0.45964371037E+02  0.23794988099E+03  0.26093118012E+03  0.85434282040E+02 0.  0.
          5    1    5    5  501    0  0.55779636466E+00  0.16161532147E+02 -0.17533309296E+02  0.24310762904E+02  0.47000000000E+01 0. -1.
        -11    1    6    6    0    0  0.70609207444E+02 -0.39243371391E+02  0.18485155749E+03  0.20173200212E+03  0.00000000000E+00 0.  1.
         12    1    6    6    0    0 -0.25297013268E+02 -0.67209996453E+01  0.53098323500E+02  0.59199177993E+02  0.00000000000E+00 0. -1.
         -5    1    3    3    0  503  0.46618798638E+02  0.11509863261E+02 -0.61768059182E+02  0.78378392902E+02  0.47000000000E+01 0.  1.
         13    1    4    4    0    0  0.99201237780E+01 -0.11662510443E+02 -0.35574079764E+01  0.15718719958E+02  0.00000000000E+00 0. -1.
        -14    1    4    4    0    0 -0.10240891296E+03  0.29955486072E+02 -0.31591399309E+02  0.11127862827E+03  0.00000000000E+00 0.  1.
</event>
<event>
12    1  0.8406581E-002  0.2081621E+03  0.7818608E-02  0.1143603E+00
         21   -1    0    0  501  502  0.00000000000E+00  0.00000000000E+00  0.83957336185E+02  0.83957336185E+02  0.00000000000E+00 0. -1.
         21   -1    0    0  502  503 -0.00000000000E+00 -0.00000000000E+00 -0.63738288934E+03  0.63738288934E+03  0.00000000000E+00 0. -1.
         -6    2    1    2    0  503  0.10877098611E+03  0.31277136617E+02 -0.43700278004E+03  0.48283290337E+03  0.17130906607E+03 0.  0.
        -24    2    3    3    0    0  0.13886770333E+02  0.51540314773E+02 -0.29893348102E+03  0.31401693219E+03  0.79976003848E+02 0.  0.
          6    2    1    2  501    0 -0.10877098611E+03 -0.31277136617E+02 -0.11642277311E+03  0.23850732216E+03  0.17470573525E+03 0.  0.
         24    2    5    5    0    0  0.63145828290E+00 -0.14374199167E+02  0.10680737576E+02  0.69889421085E+02  0.67553213714E+02 0.  0.
          5    1    5    5  501    0 -0.10940244439E+03 -0.16902937450E+02 -0.12710351069E+03  0.16861790107E+03  0.47000000000E+01 0. -1.
        -13    1    6    6    0    0 -0.27902873850E+01 -0.53075140579E+01 -0.28707243488E+02  0.29326800675E+02  0.00000000000E+00 0.  1.
         14    1    6    6    0    0  0.34217456679E+01 -0.90666851091E+01  0.39387981063E+02  0.40562620410E+02  0.00000000000E+00 0. -1.
         -5    1    3    3    0  503  0.94884215773E+02 -0.20263178156E+02 -0.13806929902E+03  0.16881597117E+03  0.47000000000E+01 0.  1.
         13    1    4    4    0    0 -0.29991820502E+02  0.22395325485E+01 -0.99553492312E+02  0.10399722417E+03  0.00000000000E+00 0. -1.
        -14    1    4    4    0    0  0.43878590834E+02  0.49300782224E+02 -0.19937998871E+03  0.21001970803E+03  0.00000000000E+00 0.  1.
</event>
<event>
12    1  0.8406581E-002  0.2301166E+03  0.7818608E-02  0.1126769E+00
         21   -1    0    0  503  502  0.00000000000E+00  0.00000000000E+00  0.95199837736E+02  0.95199837736E+02  0.00000000000E+00 0.  1.
         21   -1    0    0  501  503 -0.00000000000E+00 -0.00000000000E+00 -0.76023472831E+03  0.76023472831E+03  0.00000000000E+00 0. -1.
          6    2    1    2  501    0  0.13373214088E+03 -0.71755237223E+02 -0.55627637173E+03  0.60199423588E+03  0.17297560151E+03 0.  0.
         24    2    3    3    0    0  0.58289739504E+02 -0.53321614440E+02 -0.47631015030E+03  0.49042344694E+03  0.86040163503E+02 0.  0.
         -6    2    1    2    0  502 -0.13373214088E+03  0.71755237223E+02 -0.10875851884E+03  0.25344033016E+03  0.17137819569E+03 0.  0.
        -24    2    5    5    0    0 -0.80940999605E+02 -0.94098544530E+01 -0.87357327503E+01  0.11415169300E+03  0.79462602593E+02 0.  0.
          5    1    3    3  501    0  0.75442401378E+02 -0.18433622782E+02 -0.79966221431E+02  0.11157078894E+03  0.47000000000E+01 0. -1.
        -11    1    4    4    0    0  0.68957192089E+02 -0.64745721724E+02 -0.33023865631E+03  0.34351808242E+03  0.00000000000E+00 0.  1.
         12    1    4    4    0    0 -0.10667452586E+02  0.11424107284E+02 -0.14607149398E+03  0.14690536453E+03  0.00000000000E+00 0. -1.
         -5    1    5    5    0  502 -0.52791141277E+02  0.81165091676E+02 -0.10002278609E+03  0.13928863716E+03  0.47000000000E+01 0.  1.
         13    1    6    6    0    0 -0.10343984455E+01  0.15974937873E+02 -0.24081640819E+02  0.28917019983E+02  0.00000000000E+00 0. -1.
        -14    1    6    6    0    0 -0.79906601160E+02 -0.25384792326E+02  0.15345908069E+02  0.85234673020E+02  0.00000000000E+00 0.  1.
</event>
<event>
12    1  0.8406581E-002  0.2383657E+03  0.7818608E-02  0.1120974E+00
         21   -1    0    0  501  502  0.00000000000E+00  0.00000000000E+00  0.50002020733E+03  0.50002020733E+03  0.00000000000E+00 0.  1.
         21   -1    0    0  502  503 -0.00000000000E+00 -0.00000000000E+00 -0.16239932303E+03  0.16239932303E+03  0.00000000000E+00 0. -1.
         -6    2    1    2    0  503  0.15250359229E+03 -0.63082576233E+02 -0.13021998467E+02  0.23872115005E+03  0.17199261016E+03 0.  0.
        -24    2    3    3    0    0  0.93017826109E+02 -0.64982245869E+02 -0.73273961900E+02  0.15390043194E+03  0.73764904969E+02 0.  0.
          6    2    1    2  501    0 -0.15250359229E+03  0.63082576233E+02  0.35064288276E+03  0.42369838031E+03  0.17126917166E+03 0.  0.
         24    2    5    5    0    0 -0.10167559758E+03  0.71375862674E+02  0.34056880019E+03  0.37101213176E+03  0.78933220725E+02 0.  0.
          5    1    5    5  501    0 -0.50827994713E+02 -0.82932864416E+01  0.10074082571E+02  0.52686248550E+02  0.47000000000E+01 0. -1.
        -13    1    6    6    0    0 -0.11502820642E+02 -0.11084674312E+02  0.99179757109E+02  0.10045799673E+03  0.00000000000E+00 0.  1.
         14    1    6    6    0    0 -0.90172776938E+02  0.82460536986E+02  0.24138904308E+03  0.27055413503E+03  0.00000000000E+00 0. -1.
         -5    1    3    3    0  503  0.59485766185E+02  0.18996696366E+01  0.60251963433E+02  0.84820718111E+02  0.47000000000E+01 0.  1.
         11    1    4    4    0    0 -0.33968848066E+01 -0.33529246498E+02 -0.22144765915E+02  0.40325424419E+02  0.00000000000E+00 0. -1.
        -12    1    4    4    0    0  0.96414710915E+02 -0.31452999371E+02 -0.51129195984E+02  0.11357500752E+03  0.00000000000E+00 0.  1.
</event>
<event>
12    1  0.8406581E-002  0.1819694E+03  0.7818608E-02  0.1166230E+00
         21   -1    0    0  501  502  0.00000000000E+00  0.00000000000E+00  0.29704652254E+03  0.29704652254E+03  0.00000000000E+00 0.  1.
         21   -1    0    0  502  503 -0.00000000000E+00 -0.00000000000E+00 -0.33896976515E+03  0.33896976515E+03  0.00000000000E+00 0. -1.
         -6    2    1    2    0  503  0.49238394779E+01  0.57810955482E+02 -0.28197480011E+03  0.33559295844E+03  0.17247172257E+03 0.  0.
        -24    2    3    3    0    0  0.67866445633E+02  0.71694452970E+02 -0.14308001382E+03  0.18239904592E+03  0.55241040631E+02 0.  0.
          6    2    1    2  501    0 -0.49238394779E+01 -0.57810955482E+02  0.24005155750E+03  0.30042332926E+03  0.17106453676E+03 0.  0.
         24    2    5    5    0    0  0.16699230232E+02 -0.93289974541E+02  0.22293523398E+03  0.25524173491E+03  0.80413562602E+02 0.  0.
          5    1    5    5  501    0 -0.21623069710E+02  0.35479019059E+02  0.17116323518E+02  0.45181594348E+02  0.47000000000E+01 0. -1.
        -13    1    6    6    0    0  0.43230041068E+02 -0.26033795980E+02  0.11175928445E+03  0.12262435583E+03  0.00000000000E+00 0.  1.
         14    1    6    6    0    0 -0.26530810837E+02 -0.67256178561E+02  0.11117594953E+03  0.13261737907E+03  0.00000000000E+00 0. -1.
         -5    1    3    3    0  503 -0.62942606155E+02 -0.13883497487E+02 -0.13889478629E+03  0.15319391252E+03  0.47000000000E+01 0.  1.
         11    1    4    4    0    0  0.34447106621E+02  0.70481647231E+02 -0.87358656423E+02  0.11741294904E+03  0.00000000000E+00 0. -1.
        -12    1    4    4    0    0  0.33419339012E+02  0.12128057386E+01 -0.55721357393E+02  0.64986096878E+02  0.00000000000E+00 0.  1.
</event>
<event>
12    1  0.8406581E-002  0.2328513E+03  0.7818608E-02  0.1124684E+00
         21   -1    0    0  501  502  0.00000000000E+00  0.00000000000E+00  0.11450748836E+03  0.11450748836E+03  0.00000000000E+00 0.  1.
         21   -1    0    0  502  503 -0.00000000000E+00 -0.00000000000E+00 -0.55444919975E+03  0.55444919975E+03  0.00000000000E+00 0. -1.
         -6    2    1    2    0  503 -0.15876271559E+03 -0.13236297420E+02 -0.34818399693E+03  0.41886969218E+03  0.16982026935E+03 0.  0.
        -24    2    3    3    0    0 -0.13669055161E+02 -0.18238373387E+02 -0.16590753218E+03  0.18579461702E+03  0.80466447336E+02 0.  0.
          6    2    1    2  501    0  0.15876271559E+03  0.13236297420E+02 -0.91757714463E+02  0.25008699593E+03  0.16953827868E+03 0.  0.
         24    2    5    5    0    0  0.64883791187E+02 -0.12192704633E+01  0.17228597528E+02  0.10544149102E+03  0.81300002924E+02 0.  0.
          5    1    5    5  501    0  0.93878924403E+02  0.14455567883E+02 -0.10898631199E+03  0.14464550491E+03  0.47000000000E+01 0. -1.
        -11    1    6    6    0    0  0.41808581270E+02 -0.37987684531E+02 -0.49294823736E+01  0.56703804461E+02  0.00000000000E+00 0.  1.
         12    1    6    6    0    0  0.23075209917E+02  0.36768414067E+02  0.22158079902E+02  0.48737686554E+02  0.00000000000E+00 0. -1.
         -5    1    3    3    0  503 -0.14509366043E+03  0.50020759670E+01 -0.18227646474E+03  0.23307507516E+03  0.47000000000E+01 0.  1.
         11    1    4    4    0    0 -0.14901802654E+02 -0.28485273323E+02 -0.17120262867E+03  0.17419476049E+03  0.00000000000E+00 0. -1.
        -12    1    4    4    0    0  0.12327474934E+01  0.10246899937E+02  0.52950964894E+01  0.11599856531E+02  0.00000000000E+00 0.  1.
</event>
<event>
12    1  0.8406581E-002  0.1923233E+03  0.7818608E-02  0.1157501E+00
         21   -1    0    0  501  502  0.00000000000E+00  0.00000000000E+00  0.31415376935E+03  0.31415376935E+03  0.00000000000E+00 0.  1.
         21   -1    0    0  502  503 -0.00000000000E+00 -0.00000000000E+00 -0.14188479032E+03  0.14188479032E+03  0.00000000000E+00 0. -1.
         -6    2    1    2    0  503  0.68213965685E+02 -0.33819239233E+02 -0.14547399979E+02  0.18791806078E+03  0.17118611119E+03 0.  0.
        -24    2    3    3    0    0  0.29779214578E+02  0.34507187756E+02 -0.47107305170E+02  0.10290060290E+03  0.79321423650E+02 0.  0.
          6    2    1    2  501    0 -0.68213965685E+02  0.33819239233E+02  0.18681637901E+03  0.26812049889E+03  0.17661074827E+03 0.  0.
         24    2    5    5    0    0 -0.10055592163E+03 -0.19627280144E+02  0.13380792521E+03  0.18605638541E+03  0.78839674028E+02 0.  0.
          5    1    5    5  501    0  0.32341955946E+02  0.53446519377E+02  0.53008453797E+02  0.82064113484E+02  0.47000000000E+01 0. -1.
        -11    1    6    6    0    0 -0.56570758911E+02  0.29047485243E+02  0.69128828131E+02  0.93929771859E+02  0.00000000000E+00 0.  1.
         12    1    6    6    0    0 -0.43985162720E+02 -0.48674765387E+02  0.64679097081E+02  0.92126613550E+02  0.00000000000E+00 0. -1.
         -5    1    3    3    0  503  0.38434751107E+02 -0.68326426989E+02  0.32559905191E+02  0.85017457877E+02  0.47000000000E+01 0.  1.
         11    1    4    4    0    0  0.52198501541E+02  0.15422071889E+02 -0.49218451499E+02  0.73382421822E+02  0.00000000000E+00 0. -1.
        -12    1    4    4    0    0 -0.22419286963E+02  0.19085115867E+02  0.21111463291E+01  0.29518181082E+02  0.00000000000E+00 0.  1.
</event>
<event>
12    1  0.8406581E-002  0.1775629E+03  0.7818608E-02  0.1170418E+00
         21   -1    0    0  503  502  0.00000000000E+00  0.00000000000E+00  0.10935117039E+04  0.10935117039E+04  0.00000000000E+00 0. -1.
         21   -1    0    0  501  503 -0.00000000000E+00 -0.00000000000E+00 -0.38708916009E+02  0.38708916009E+02  0.00000000000E+00 0. -1.
          6    2    1    2  501    0  0.30045812273E+02 -0.29774615252E+02  0.23817164681E+03  0.29650834275E+03  0.17147065471E+03 0.  0.
         24    2    3    3    0    0  0.29143549921E+02 -0.48626868106E+02  0.55038877403E+02  0.11234558119E+03  0.79864465082E+02 0.  0.
         -6    2    1    2    0  502 -0.30045812273E+02  0.29774615252E+02  0.81663114110E+03  0.83571227718E+03  0.17245089465E+03 0.  0.
        -24    2    5    5    0    0 -0.69994274008E+02 -0.25814068284E+02  0.41816607844E+03  0.43138261280E+03  0.75249750544E+02 0.  0.
          5    1    3    3  501    0  0.90226235133E+00  0.18852252853E+02  0.18313276941E+03  0.18416276156E+03  0.47000000000E+01 0. -1.
        -13    1    4    4    0    0  0.36884264860E+02 -0.43200503554E+02  0.72731739064E+02  0.92285634683E+02  0.00000000000E+00 0.  1.
         14    1    4    4    0    0 -0.77407149392E+01 -0.54263645518E+01 -0.17692861661E+02  0.20059946505E+02  0.00000000000E+00 0. -1.
         -5    1    5    5    0  502  0.39948461735E+02  0.55588683537E+02  0.39846506267E+03  0.40432966438E+03  0.47000000000E+01 0.  1.
         13    1    6    6    0    0 -0.56879968856E+02 -0.51727388107E+02  0.30849857866E+03  0.31793462625E+03  0.00000000000E+00 0. -1.
        -14    1    6    6    0    0 -0.13114305151E+02  0.25913319823E+02  0.10966749978E+03  0.11344798655E+03  0.00000000000E+00 0.  1.
</event>
<event>
12    1  0.8406581E-002  0.2198719E+03  0.7818608E-02  0.1134018E+00
         21   -1    0    0  501  502  0.00000000000E+00  0.00000000000E+00  0.14906544184E+03  0.14906544184E+03  0.00000000000E+00 0.  1.
         21   -1    0    0  502  503 -0.00000000000E+00 -0.00000000000E+00 -0.32415228756E+03  0.32415228756E+03  0.00000000000E+00 0.  1.
         -6    2    1    2    0  503 -0.12235838327E+03 -0.60137281292E+02 -0.82487721806E+02  0.23483585289E+03  0.17249807824E+03 0.  0.
        -24    2    3    3    0    0 -0.14444776881E+03 -0.27120119602E+02 -0.32550447841E+02  0.17085229836E+03  0.80810379265E+02 0.  0.
          6    2    1    2  501    0  0.12235838327E+03  0.60137281292E+02 -0.92599123914E+02  0.23838187650E+03  0.17223023758E+03 0.  0.
         24    2    5    5    0    0  0.27122467944E+02 -0.18519649165E+02 -0.73762435296E+02  0.11334706889E+03  0.79549076000E+02 0.  0.
          5    1    5    5  501    0  0.95235915327E+02  0.78656930457E+02 -0.18836688618E+02  0.12503480761E+03  0.47000000000E+01 0. -1.
        -13    1    6    6    0    0  0.15836653245E+02  0.13025776550E+02  0.10232586427E+02  0.22916724585E+02  0.00000000000E+00 0.  1.
         14    1    6    6    0    0  0.11285814700E+02 -0.31545425714E+02 -0.83995021723E+02  0.90430344305E+02  0.00000000000E+00 0. -1.
         -5    1    3    3    0  503  0.22089385541E+02 -0.33017161690E+02 -0.49937273966E+02  0.63983554534E+02  0.47000000000E+01 0.  1.
         13    1    4    4    0    0 -0.71579004373E+02  0.12177014369E+02  0.16724161294E+02  0.74508597604E+02  0.00000000000E+00 0. -1.
        -14    1    4    4    0    0 -0.72868764439E+02 -0.39297133971E+02 -0.49274609134E+02  0.96343700752E+02  0.00000000000E+00 0.  1.
</event>
<event>
12    1  0.8406581E-002  0.1986435E+03  0.7818608E-02  0.1151045E+00
         21   -1    0    0  503  502  0.00000000000E+00  0.00000000000E+00  0.98667509238E+03  0.98667509238E+03  0.00000000000E+00 0.  1.
         21   -1    0    0  501  503 -0.00000000000E+00 -0.00000000000E+00 -0.10197011218E+03  0.10197011218E+03  0.00000000000E+00 0.  1.
          6    2    1    2  501    0 -0.94255370166E+02 -0.26907415241E+02  0.17803781635E+02  0.19943973208E+03  0.17277484855E+03 0.  0.
         24    2    3    3    0    0 -0.90482298482E+02 -0.73653889314E+02 -0.25074806226E+02  0.13572056537E+03  0.64648157039E+02 0.  0.
         -6    2    1    2    0  502  0.94255370166E+02  0.26907415241E+02  0.86690119856E+03  0.88920547249E+03  0.17193196453E+03 0.  0.
        -24    2    5    5    0    0  0.99250334999E+02 -0.36116017849E+02  0.52965668699E+03  0.54605411612E+03  0.80522642217E+02 0.  0.
          5    1    3    3  501    0 -0.37730716845E+01  0.46746474073E+02  0.42878587861E+02  0.63719166702E+02  0.47000000000E+01 0. -1.
        -11    1    4    4    0    0 -0.58940323477E+02 -0.76046979157E+01 -0.18450949106E+02  0.62227250340E+02  0.00000000000E+00 0.  1.
         12    1    4    4    0    0 -0.31541975005E+02 -0.66049191398E+02 -0.66238571202E+01  0.73493315034E+02  0.00000000000E+00 0. -1.
         -5    1    5    5    0  502 -0.49949648328E+01  0.63023433090E+02  0.33724451157E+03  0.34315135637E+03  0.47000000000E+01 0.  1.
         11    1    6    6    0    0  0.50613992666E+02  0.20190395765E+02  0.16123349833E+03  0.17019303546E+03  0.00000000000E+00 0. -1.
        -12    1    6    6    0    0  0.48636342333E+02 -0.56306413614E+02  0.36842318867E+03  0.37586108066E+03  0.00000000000E+00 0.  1.
</event>
<event>
12    1  0.8406581E-002  0.2111276E+03  0.7818608E-02  0.1140983E+00
         21   -1    0    0  501  502  0.00000000000E+00  0.00000000000E+00  0.39111931961E+03  0.39111931961E+03  0.00000000000E+00 0. -1.
         21   -1    0    0  502  503 -0.00000000000E+00 -0.00000000000E+00 -0.28098284727E+03  0.28098284727E+03  0.00000000000E+00 0. -1.
         -6    2    1    2    0  503 -0.86658498954E+02 -0.81843301303E+02 -0.20474659703E+03  0.29298979564E+03  0.17237699947E+03 0.  0.
        -24    2    3    3    0    0 -0.91869491747E+02 -0.34068416940E+01 -0.16476835027E+03  0.20467341632E+03  0.79315748846E+02 0.  0.
          6    2    1    2  501    0  0.86658498954E+02  0.81843301303E+02  0.31488306938E+03  0.37911237123E+03  0.17426078513E+03 0.  0.
         24    2    5    5    0    0  0.60824166129E+02 -0.16121361335E+02  0.20962688657E+03  0.23294314774E+03  0.79747106706E+02 0.  0.
          5    1    5    5  501    0  0.25834332825E+02  0.97964662638E+02  0.10525618280E+03  0.14616922349E+03  0.47000000000E+01 0. -1.
        -13    1    6    6    0    0  0.14569349470E+02  0.16510646427E+02  0.78513291996E+01  0.23377569583E+02  0.00000000000E+00 0.  1.
         14    1    6    6    0    0  0.46254816660E+02 -0.32632007762E+02  0.20177555737E+03  0.20956557816E+03  0.00000000000E+00 0. -1.
         -5    1    3    3    0  503  0.52109927926E+01 -0.78436459609E+02 -0.39978246765E+02  0.88316379321E+02  0.47000000000E+01 0.  1.
         11    1    4    4    0    0 -0.29109866360E+02 -0.39386018937E+02 -0.62432279723E+02  0.79350062121E+02  0.00000000000E+00 0. -1.
        -12    1    4    4    0    0 -0.62759625387E+02  0.35979177243E+02 -0.10233607054E+03  0.12532335420E+03  0.00000000000E+00 0.  1.
</event>
<event>
12    1  0.8406581E-002  0.3138692E+03  0.7818608E-02  0.1078611E+00
         21   -1    0    0  501  502  0.00000000000E+00  0.00000000000E+00  0.64300010364E+03  0.64300010364E+03  0.00000000000E+00 0. -1.
         21   -1    0    0  502  503 -0.00000000000E+00 -0.00000000000E+00 -0.22615356769E+03  0.22615356769E+03  0.00000000000E+00 0. -1.
         -6    2    1    2    0  503  0.39062147603E+02  0.25913479322E+03 -0.39319773417E+02  0.31543751964E+03  0.17110842114E+03 0.  0.
        -24    2    3    3    0    0 -0.21711779116E+02  0.65463630433E+02 -0.40846132798E+02  0.11239464428E+03  0.78786174140E+02 0.  0.
          6    2    1    2  501    0 -0.39062147603E+02 -0.25913479322E+03  0.45616630936E+03  0.55371615169E+03  0.17273442742E+03 0.  0.
         24    2    5    5    0    0 -0.76878465236E+02 -0.16589572775E+03  0.21712028271E+03  0.29431551548E+03  0.77773482543E+02 0.  0.
          5    1    5    5  501    0  0.37816317633E+02 -0.93239065469E+02  0.23904602665E+03  0.25940063621E+03  0.47000000000E+01 0. -1.
        -13    1    6    6    0    0  0.40872072932E+01 -0.54972119249E+02  0.31737877382E+02  0.63607641199E+02  0.00000000000E+00 0.  1.
         14    1    6    6    0    0 -0.80965672529E+02 -0.11092360850E+03  0.18538240533E+03  0.23070787428E+03  0.00000000000E+00 0. -1.
         -5    1    3    3    0  503  0.60773926719E+02  0.19367116278E+03  0.15263593808E+01  0.20304287536E+03  0.47000000000E+01 0.  1.
         13    1    4    4    0    0 -0.85990353797E+01  0.62630551263E+02 -0.61218902285E+02  0.88001609974E+02  0.00000000000E+00 0. -1.
        -14    1    4    4    0    0 -0.13112743736E+02  0.28330791698E+01  0.20372769488E+02  0.24393034302E+02  0.00000000000E+00 0.  1.
</event>
<event>
12    1  0.8406581E-002  0.1932893E+03  0.7818608E-02  0.1156078E+00
         21   -1    0    0  501  502  0.00000000000E+00  0.00000000000E+00  0.41556210997E+03  0.41556210997E+03  0.00000000000E+00 0.  1.
         21   -1    0    0  502  503 -0.00000000000E+00 -0.00000000000E+00 -0.22425303645E+03  0.22425303645E+03  0.00000000000E+00 0.  1.
         -6    2    1    2    0  503  0.26954533326E+02 -0.83903734873E+02 -0.15276900014E+03  0.24637191591E+03  0.17203014257E+03 0.  0.
        -24    2    3    3    0    0  0.80777671140E+02 -0.37008569100E+02 -0.73505784637E+02  0.13959722757E+03  0.78674133165E+02 0.  0.
          6    2    1    2  501    0 -0.26954533326E+02  0.83903734873E+02  0.34407807366E+03  0.39344323051E+03  0.16923791322E+03 0.  0.
         24    2    5    5    0    0 -0.39197668474E+02  0.60953510939E+02  0.96298059674E+02  0.14425729097E+03  0.79278382867E+02 0.  0.
          5    1    5    5  501    0  0.12243135148E+02  0.22950223933E+02  0.24778001399E+03  0.24918593955E+03  0.47000000000E+01 0. -1.
        -13    1    6    6    0    0 -0.62343365284E+02  0.49836192192E+02  0.83704547645E+02  0.11565808464E+03  0.00000000000E+00 0.  1.
         14    1    6    6    0    0  0.23145696810E+02  0.11117318747E+02  0.12593512029E+02  0.28599206321E+02  0.00000000000E+00 0. -1.
         -5    1    3    3    0  503 -0.53823137814E+02 -0.46895165773E+02 -0.79263215502E+02  0.10677468833E+03  0.47000000000E+01 0.  1.
         11    1    4    4    0    0  0.81854211100E+02 -0.36723188219E+01 -0.36263409570E+02  0.89602637651E+02  0.00000000000E+00 0. -1.
        -12    1    4    4    0    0 -0.10765399593E+01 -0.33336250278E+02 -0.37242375066E+02  0.49994589922E+02  0.00000000000E+00 0.  1.
</event>
<event>
12    1  0.8406581E-002  0.1758159E+03  0.7818608E-02  0.1171934E+00
         21   -1    0    0  503  502  0.00000000000E+00  0.00000000000E+00  0.56785536602E+03  0.56785536602E+03  0.00000000000E+00 0. -1.
         21   -1    0    0  501  503 -0.00000000000E+00 -0.00000000000E+00 -0.26554251191E+03  0.26554251191E+03  0.00000000000E+00 0. -1.
          6    2    1    2  501    0 -0.26592923088E+02  0.28037264897E+02 -0.22041240699E+03  0.28189725616E+03  0.17143850820E+03 0.  0.
         24    2    3    3    0    0  0.43593240077E+02 -0.39082637904E+01 -0.15828332309E+03  0.18275731784E+03  0.80193402161E+02 0.  0.
         -6    2    1    2    0  502  0.26592923088E+02 -0.28037264897E+02  0.52272526110E+03  0.55150062178E+03  0.17151666229E+03 0.  0.
        -24    2    5    5    0    0  0.11471880475E+02  0.71936844715E+00  0.10228336275E+03  0.12977906698E+03  0.79048076494E+02 0.  0.
          5    1    3    3  501    0 -0.70186163165E+02  0.31945528688E+02 -0.62129083903E+02  0.99139938317E+02  0.47000000000E+01 0. -1.
        -11    1    4    4    0    0  0.46867124333E+02 -0.31628109363E+02 -0.68968488009E+02  0.89182492583E+02  0.00000000000E+00 0.  1.
         12    1    4    4    0    0 -0.32738842556E+01  0.27719845573E+02 -0.89314835080E+02  0.93574825258E+02  0.00000000000E+00 0. -1.
         -5    1    5    5    0  502  0.15121042612E+02 -0.28756633344E+02  0.42044189835E+03  0.42172155480E+03  0.47000000000E+01 0.  1.
         11    1    6    6    0    0  0.18685510156E+02  0.36286126934E+02  0.70861840951E+02  0.81775496333E+02  0.00000000000E+00 0. -1.
        -12    1    6    6    0    0 -0.72136296809E+01 -0.35566758487E+02  0.31421521803E+02  0.48003570647E+02  0.00000000000E+00 0.  1.
</event>
<event>
12    1  0.8406581E-002  0.1767712E+03  0.7818608E-02  0.1171062E+00
         21   -1    0    0  503  502  0.00000000000E+00  0.00000000000E+00  0.94982279493E+02  0.94982279493E+02  0.00000000000E+00 0.  1.
         21   -1    0    0  501  503 -0.00000000000E+00 -0.00000000000E+00 -0.32952367210E+03  0.32952367210E+03  0.00000000000E+00 0.  1.
          6    2    1    2  501    0  0.32818889339E+02  0.21639182935E+02 -0.13029990697E+03  0.21928816280E+03  0.17194155651E+03 0.  0.
         24    2    3    3    0    0  0.82232436829E+02  0.33647055757E+02 -0.11447408678E+03  0.16582383572E+03  0.80615940873E+02 0.  0.
         -6    2    1    2    0  502 -0.32818889339E+02 -0.21639182935E+02 -0.10424148564E+03  0.20521778879E+03  0.17234477008E+03 0.  0.
        -24    2    5    5    0    0  0.45393306021E+02 -0.16233681198E+02 -0.80828146645E+02  0.12326267062E+03  0.79601583156E+02 0.  0.
          5    1    3    3  501    0 -0.49413547490E+02 -0.12007872822E+02 -0.15825820195E+02  0.53464327080E+02  0.47000000000E+01 0. -1.
        -13    1    4    4    0    0  0.72801218484E+01 -0.12217180678E+02  0.70385068100E+01  0.15868215273E+02  0.00000000000E+00 0.  1.
         14    1    4    4    0    0  0.74952314981E+02  0.45864236434E+02 -0.12151259359E+03  0.14995562045E+03  0.00000000000E+00 0. -1.
         -5    1    5    5    0  502 -0.78212195360E+02 -0.54055017373E+01 -0.23413338992E+02  0.81955118173E+02  0.47000000000E+01 0.  1.
         11    1    6    6    0    0  0.20758418758E+02 -0.39153892941E+02 -0.77725245885E+02  0.89471521334E+02  0.00000000000E+00 0. -1.
        -12    1    6    6    0    0  0.24634887263E+02  0.22920211744E+02 -0.31029007598E+01  0.33791149284E+02  0.00000000000E+00 0.  1.
</event>
<event>
12    1  0.8406581E-002  0.2465829E+03  0.7818608E-02  0.1115651E+00
         21   -1    0    0  501  502  0.00000000000E+00  0.00000000000E+00  0.75594890917E+02  0.75594890917E+02  0.00000000000E+00 0. -1.
         21   -1    0    0  502  503 -0.00000000000E+00 -0.00000000000E+00 -0.85015585112E+03  0.85015585112E+03  0.00000000000E+00 0. -1.
         -6    2    1    2    0  503 -0.13204366972E+03  0.11585032144E+03 -0.27515888374E+03  0.36878975884E+03  0.17157111422E+03 0.  0.
        -24    2    3    3    0    0 -0.15584395468E+03  0.79571336401E+02 -0.16233204409E+03  0.24781619121E+03  0.66650103525E+02 0.  0.
          6    2    1    2  501    0  0.13204366972E+03 -0.11585032144E+03 -0.49940207647E+03  0.55696098320E+03  0.17304992094E+03 0.  0.
         24    2    5    5    0    0  0.79466478068E+00 -0.34273265085E+02 -0.14815044953E+03  0.17318902898E+03  0.82889057606E+02 0.  0.
          5    1    5    5  501    0  0.13124900494E+03 -0.81577056352E+02 -0.35125162694E+03  0.38377195422E+03  0.47000000000E+01 0. -1.
        -13    1    6    6    0    0  0.22517762417E+02 -0.54838057475E+02 -0.89526822382E+02  0.10737464364E+03  0.00000000000E+00 0.  1.
         14    1    6    6    0    0 -0.21723097637E+02  0.20564792389E+02 -0.58623627149E+02  0.65814385335E+02  0.00000000000E+00 0. -1.
         -5    1    3    3    0  503  0.23800284966E+02  0.36278985037E+02 -0.11282683965E+03  0.12097356763E+03  0.47000000000E+01 0.  1.
         13    1    4    4    0    0 -0.93500348883E+01 -0.67839365808E+01  0.15420890604E+01  0.11654311932E+02  0.00000000000E+00 0. -1.
        -14    1    4    4    0    0 -0.14649391980E+03  0.86355272981E+02 -0.16387413315E+03  0.23616187928E+03  0.00000000000E+00 0.  1.
</event>
<event>
12    1  0.8406581E-002  0.1742099E+03  0.7818608E-02  0.1173906E+00
         21   -1    0    0  503  502  0.00000000000E+00  0.00000000000E+00  0.10141870900E+04  0.10141870900E+04  0.00000000000E+00 0. -1.
         21   -1    0    0  501  503 -0.00000000000E+00 -0.00000000000E+00 -0.68029411793E+02  0.68029411793E+02  0.00000000000E+00 0. -1.
          6    2    1    2  501    0  0.19778955316E+02 -0.20669781401E+02  0.67638405236E+02  0.18687973149E+03  0.17184479405E+03 0.  0.
         24    2    3    3    0    0 -0.34641107106E+02  0.71295069647E+01 -0.10900222583E+02  0.87256693554E+02  0.79019488397E+02 0.  0.
         -6    2    1    2    0  502 -0.19778955316E+02  0.20669781401E+02  0.87851927302E+03  0.89533677035E+03  0.17033312168E+03 0.  0.
        -24    2    5    5    0    0 -0.58556213541E+02  0.62205516957E+02  0.56282263146E+03  0.57453254255E+03  0.77588475182E+02 0.  0.
          5    1    3    3  501    0  0.54420062422E+02 -0.27799288366E+02  0.78538627819E+02  0.99623037935E+02  0.47000000000E+01 0. -1.
        -13    1    4    4    0    0  0.43413784745E+01  0.36825729231E+02 -0.92822654530E+01  0.38224891790E+02  0.00000000000E+00 0.  1.
         14    1    4    4    0    0 -0.38982485581E+02 -0.29696222266E+02 -0.16179571304E+01  0.49031801764E+02  0.00000000000E+00 0. -1.
         -5    1    5    5    0  502  0.38777258225E+02 -0.41535735556E+02  0.31569664155E+03  0.32080422779E+03  0.47000000000E+01 0.  1.
         11    1    6    6    0    0 -0.61484883102E+02  0.54017079729E+02  0.55912414606E+03  0.56508233600E+03  0.00000000000E+00 0. -1.
        -12    1    6    6    0    0  0.29286695615E+01  0.81884372284E+01  0.36984854066E+01  0.94502065557E+01  0.00000000000E+00 0.  1.
</event>
<event>
12    1  0.8406581E-002  0.1982731E+03  0.7818608E-02  0.1151576E+00
         21   -1    0    0  503  502  0.00000000000E+00  0.00000000000E+00  0.27729765244E+03  0.27729765244E+03  0.00000000000E+00 0.  1.
         21   -1    0    0  501  503 -0.00000000000E+00 -0.00000000000E+00 -0.65102893160E+03  0.65102893160E+03  0.00000000000E+00 0. -1.
          6    2    1    2  501    0 -0.56967179135E+02  0.79228703405E+02 -0.59771166408E+03  0.62919542895E+03  0.17060248382E+03 0.  0.
         24    2    3    3    0    0 -0.63599113379E+02  0.16516441993E+02 -0.50454148549E+03  0.51659177686E+03  0.89371769950E+02 0.  0.
         -6    2    1    2    0  502  0.56967179135E+02 -0.79228703405E+02  0.22398038492E+03  0.29913115509E+03  0.17259718473E+03 0.  0.
        -24    2    5    5    0    0  0.19267752980E+02 -0.10384445667E+03  0.95873966303E+02  0.16326163485E+03  0.79420567306E+02 0.  0.
          5    1    3    3  501    0  0.66319342443E+01  0.62712261413E+02 -0.93170178593E+02  0.11260365208E+03  0.47000000000E+01 0. -1.
        -13    1    4    4    0    0 -0.51707134460E+02  0.49160613209E+02 -0.26066216328E+03  0.27025017486E+03  0.00000000000E+00 0.  1.
         14    1    4    4    0    0 -0.11891978920E+02 -0.32644171216E+02 -0.24387932221E+03  0.24634160201E+03  0.00000000000E+00 0. -1.
         -5    1    5    5    0  502  0.37699426155E+02  0.24615753268E+02  0.12810641862E+03  0.13586952025E+03  0.47000000000E+01 0.  1.
         13    1    6    6    0    0  0.47353805083E+02 -0.39999764637E+02  0.38717331514E+02  0.73084853331E+02  0.00000000000E+00 0. -1.
        -14    1    6    6    0    0 -0.28086052103E+02 -0.63844692036E+02  0.57156634789E+02  0.90176781515E+02  0.00000000000E+00 0.  1.
</event>
<event>
12    1  0.8406581E-002  0.1750322E+03  0.7818608E-02  0.1172756E+00
         21   -1    0    0  501  502  0.00000000000E+00  0.00000000000E+00  0.40971168107E+03  0.40971168107E+03  0.00000000000E+00 0.  1.
         21   -1    0    0  502  503 -0.00000000000E+00 -0.00000000000E+00 -0.80801566361E+02  0.80801566361E+02  0.00000000000E+00 0.  1.
         -6    2    1    2    0  503  0.48627773300E+01  0.42264468336E+02  0.96848005378E+02  0.19984316603E+03  0.16955182976E+03 0.  0.
        -24    2    3    3    0    0  0.59012425914E+02  0.42949214827E+02  0.96396039875E+02  0.14548373637E+03  0.80908711390E+02 0.  0.
          6    2    1    2  501    0 -0.48627773300E+01 -0.42264468336E+02  0.23206210933E+03  0.29067008141E+03  0.16978321987E+03 0.  0.
         24    2    5    5    0    0  0.19646949969E+01 -0.90252079035E+02  0.12917347193E+03  0.17683868474E+03  0.80229899509E+02 0.  0.
          5    1    5    5  501    0 -0.68274723270E+01  0.47987610699E+02  0.10288863740E+03  0.11383139666E+03  0.47000000000E+01 0. -1.
        -13    1    6    6    0    0  0.19969956115E+02  0.31083362800E+00  0.54637397065E+02  0.58173369533E+02  0.00000000000E+00 0.  1.
         14    1    6    6    0    0 -0.18005261119E+02 -0.90562912663E+02  0.74536074865E+02  0.11866531521E+03  0.00000000000E+00 0. -1.
         -5    1    3    3    0  503 -0.54149648584E+02 -0.68474649070E+00  0.45196550267E+00  0.54359429654E+02  0.47000000000E+01 0.  1.
         11    1    4    4    0    0 -0.15936477891E+02 -0.84859378871E+01  0.15275555054E+02  0.23650053945E+02  0.00000000000E+00 0. -1.
        -12    1    4    4    0    0  0.74948903805E+02  0.51435152714E+02  0.81120484821E+02  0.12183368243E+03  0.00000000000E+00 0.  1.
</event>
<event>
12    1  0.8406581E-002  0.1960878E+03  0.7818608E-02  0.1154087E+00
         21   -1    0    0  503  502  0.00000000000E+00  0.00000000000E+00  0.15939202067E+03  0.15939202067E+03  0.00000000000E+00 0. -1.
         21   -1    0    0  501  503 -0.00000000000E+00 -0.00000000000E+00 -0.25988699960E+03  0.25988699960E+03  0.00000000000E+00 0. -1.
          6    2    1    2  501    0 -0.90468876409E+02  0.27661567788E+02 -0.11375634331E+03  0.22274326062E+03  0.16650607970E+03 0.  0.
         24    2    3    3    0    0  0.31266836698E+01  0.30174327129E+02 -0.15537039811E+02  0.86965632101E+02  0.80008470753E+02 0.  0.
         -6    2    1    2    0  502  0.90468876409E+02 -0.27661567788E+02  0.13261364372E+02  0.19653575965E+03  0.17175756492E+03 0.  0.
        -24    2    5    5    0    0  0.18026808545E+02  0.13113601797E+02  0.55768079318E+02  0.10305111671E+03  0.83740800124E+02 0.  0.
          5    1    3    3  501    0 -0.93595560079E+02 -0.25127593416E+01 -0.98219303496E+02  0.13577762852E+03  0.47000000000E+01 0. -1.
        -13    1    4    4    0    0  0.12056328629E+02 -0.25353014932E+02 -0.12246929486E+02  0.30628707253E+02  0.00000000000E+00 0.  1.
         14    1    4    4    0    0 -0.89296449595E+01  0.55527342061E+02 -0.32901103250E+01  0.56336924848E+02  0.00000000000E+00 0. -1.
         -5    1    5    5    0  502  0.72442067865E+02 -0.40775169585E+02 -0.42506714946E+02  0.93484642946E+02  0.47000000000E+01 0.  1.
         11    1    6    6    0    0 -0.43234286137E+01 -0.20270087311E+02  0.59206668516E+02  0.62729562978E+02  0.00000000000E+00 0. -1.
        -12    1    6    6    0    0  0.22350237158E+02  0.33383689109E+02 -0.34385891982E+01  0.40321553730E+02  0.00000000000E+00 0.  1.
</event>
<event>
12    1  0.8406581E-002  0.2905728E+03  0.7818608E-02  0.1090085E+00
         21   -1    0    0  501  502  0.00000000000E+00  0.00000000000E+00  0.11418786923E+03  0.11418786923E+03  0.00000000000E+00 0. -1.
         21   -1    0    0  502  503 -0.00000000000E+00 -0.00000000000E+00 -0.77516310799E+03  0.77516310799E+03  0.00000000000E+00 0.  1.
         -6    2    1    2    0  503  0.47233240411E+01  0.23374316460E+03 -0.42672743975E+03  0.51611565459E+03  0.17210718839E+03 0.  0.
        -24    2    3    3    0    0 -0.45977603844E+02  0.10286165504E+03 -0.13388036753E+03  0.19133565007E+03  0.77401020948E+02 0.  0.
          6    2    1    2  501    0 -0.47233240411E+01 -0.23374316460E+03 -0.23424779902E+03  0.37323532263E+03  0.17255259465E+03 0.  0.
         24    2    5    5    0    0 -0.58963516175E+02 -0.20569254733E+03 -0.17308713056E+03  0.28668156512E+03  0.80256119685E+02 0.  0.
          5    1    5    5  501    0  0.54240192134E+02 -0.28050617271E+02 -0.61160668457E+02  0.86553757504E+02  0.47000000000E+01 0. -1.
        -11    1    6    6    0    0  0.15424643373E+02 -0.57011152885E+02 -0.67698127270E+02  0.89840011200E+02  0.00000000000E+00 0.  1.
         12    1    6    6    0    0 -0.74388159548E+02 -0.14868139445E+03 -0.10538900329E+03  0.19684155392E+03  0.00000000000E+00 0. -1.
         -5    1    3    3    0  503  0.50700927885E+02  0.13088150956E+03 -0.29284707222E+03  0.32478000452E+03  0.47000000000E+01 0.  1.
         13    1    4    4    0    0  0.37138581269E+01  0.26459060001E+02  0.30024053541E+01  0.26886595847E+02  0.00000000000E+00 0. -1.
        -14    1    4    4    0    0 -0.49691461971E+02  0.76402595043E+02 -0.13688277289E+03  0.16444905422E+03  0.00000000000E+00 0.  1.
</event>
<event>
12    1  0.8406581E-002  0.2278511E+03  0.7818608E-02  0.1128368E+00
         21   -1    0    0  501  502  0.00000000000E+00  0.00000000000E+00  0.85834414411E+03  0.85834414411E+03  0.00000000000E+00 0. -1.
         21   -1    0    0  502  503 -0.00000000000E+00 -0.00000000000E+00 -0.60895364079E+02  0.60895364079E+02  0.00000000000E+00 0.  1.
         -6    2    1    2    0  503 -0.14490580936E+03 -0.33121537764E+02  0.44762395729E+03  0.50175475099E+03  0.17116043104E+03 0.  0.
        -24    2    3    3    0    0 -0.15055148115E+03  0.21185352876E+02  0.33202303888E+03  0.37382205651E+03  0.79931620349E+02 0.  0.
          6    2    1    2  501    0  0.14490580936E+03  0.33121537764E+02  0.34982482275E+03  0.41748475720E+03  0.17268869690E+03 0.  0.
         24    2    5    5    0    0  0.40209833299E+02  0.15757623699E+02  0.58384017643E+02  0.10728710119E+03  0.78972749524E+02 0.  0.
          5    1    5    5  501    0  0.10469597606E+03  0.17363914064E+02  0.29144080510E+03  0.31019765601E+03  0.47000000000E+01 0. -1.
        -13    1    6    6    0    0  0.53417797144E+02 -0.14112845010E+02  0.25198496456E+02  0.60725593201E+02  0.00000000000E+00 0.  1.
         14    1    6    6    0    0 -0.13207963846E+02  0.29870468709E+02  0.33185521187E+02  0.46561507990E+02  0.00000000000E+00 0. -1.
         -5    1    3    3    0  503  0.56456717902E+01 -0.54306890640E+02  0.11560091841E+03  0.12793269448E+03  0.47000000000E+01 0.  1.
         13    1    4    4    0    0 -0.34208102058E+02 -0.10758487159E+02  0.15831662915E+03  0.16232712144E+03  0.00000000000E+00 0. -1.
        -14    1    4    4    0    0 -0.11634337909E+03  0.31943840035E+02  0.17370640973E+03  0.21149493506E+03  0.00000000000E+00 0.  1.
</event>
<event>
12    1  0.8406581E-002  0.1805534E+03  0.7818608E-02  0.1167482E+00
         21   -1    0    0  501  502  0.00000000000E+00  0.00000000000E+00  0.16156786452E+02  0.16156786452E+02  0.00000000000E+00 0. -1.
         21   -1    0    0  502  503 -0.00000000000E+00 -0.00000000000E+00 -0.21327745343E+04  0.21327745343E+04  0.00000000000E+00 0. -1.
         -6    2    1    2    0  503 -0.38896461883E+02  0.38272500832E+02 -0.13208263166E+04  0.13331097765E+04  0.17210984367E+03 0.  0.
        -24    2    3    3    0    0 -0.29419386505E+02  0.31165163056E+02 -0.13165800414E+04  0.13196766063E+04  0.79539751473E+02 0.  0.
          6    2    1    2  501    0  0.38896461883E+02 -0.38272500832E+02 -0.79579143116E+03  0.81582154425E+03  0.17118139819E+03 0.  0.
         24    2    5    5    0    0  0.35868570830E+02 -0.83756998834E+02 -0.45248628526E+03  0.46947125786E+03  0.85776654035E+02 0.  0.
          5    1    5    5  501    0  0.30278910531E+01  0.45484498002E+02 -0.34330514590E+03  0.34635028639E+03  0.47000000000E+01 0. -1.
        -13    1    6    6    0    0 -0.25511133831E+02 -0.21506452115E+02 -0.76583701581E+02  0.83536870781E+02  0.00000000000E+00 0.  1.
         14    1    6    6    0    0  0.61379704660E+02 -0.62250546719E+02 -0.37590258368E+03  0.38593438708E+03  0.00000000000E+00 0. -1.
         -5    1    3    3    0  503 -0.94770753776E+01  0.71073377756E+01 -0.42462752647E+01  0.13433170199E+02  0.47000000000E+01 0.  1.
         13    1    4    4    0    0 -0.88209337256E+01 -0.10788442563E+02 -0.42232311553E+02  0.44472098037E+02  0.00000000000E+00 0. -1.
        -14    1    4    4    0    0 -0.20598452779E+02  0.41953605619E+02 -0.12743477298E+04  0.12752045082E+04  0.00000000000E+00 0.  1.
</event>
<event>
12    1  0.8406581E-002  0.2050047E+03  0.7818608E-02  0.1145815E+00
         21   -1    0    0  501  502  0.00000000000E+00  0.00000000000E+00  0.24947407469E+03  0.24947407469E+03  0.00000000000E+00 0. -1.
         21   -1    0    0  502  503 -0.00000000000E+00 -0.00000000000E+00 -0.18519046831E+03  0.18519046831E+03  0.00000000000E+00 0. -1.
         -6    2    1    2    0  503  0.82119159474E+02 -0.73887689918E+02 -0.35039587770E+02  0.20686628958E+03  0.17135618454E+03 0.  0.
        -24    2    3    3    0    0  0.77685576753E+02  0.95281378146E+01  0.15334723272E+02  0.10920607156E+03  0.74598780697E+02 0.  0.
          6    2    1    2  501    0 -0.82119159474E+02  0.73887689918E+02  0.99323194142E+02  0.22779825341E+03  0.17269626600E+03 0.  0.
         24    2    5    5    0    0 -0.39775710107E+02  0.93502611398E+02  0.15303919839E+02  0.13157434109E+03  0.82175128946E+02 0.  0.
          5    1    5    5  501    0 -0.42343449367E+02 -0.19614921480E+02  0.84019274303E+02  0.96223912326E+02  0.47000000000E+01 0. -1.
        -11    1    6    6    0    0  0.21155284535E+02  0.27077834490E+01  0.30564323854E+01  0.21545763711E+02  0.00000000000E+00 0.  1.
         12    1    6    6    0    0 -0.60930994643E+02  0.90794827949E+02  0.12247487454E+02  0.11002857738E+03  0.00000000000E+00 0. -1.
         -5    1    3    3    0  503  0.44335827207E+01 -0.83415827733E+02 -0.50374311042E+02  0.97660218027E+02  0.47000000000E+01 0.  1.
         13    1    4    4    0    0  0.14998506914E+02 -0.68079332440E+01  0.37322553927E+02  0.40795541378E+02  0.00000000000E+00 0. -1.
        -14    1    4    4    0    0  0.62687069839E+02  0.16336071059E+02 -0.21987830654E+02  0.68410530180E+02  0.00000000000E+00 0.  1.
</event>
<event>
12    1  0.8406581E-002  0.2809747E+03  0.7818608E-02  0.1095598E+00
         21   -1    0    0  501  502  0.00000000000E+00  0.00000000000E+00  0.18178545981E+04  0.18178545981E+04  0.00000000000E+00 0. -1.
         21   -1    0    0  502  503 -0.00000000000E+00 -0.00000000000E+00 -0.61640238290E+02  0.61640238290E+02  0.00000000000E+00 0. -1.
         -6    2    1    2    0  503 -0.10364814346E+03  0.19516663202E+03  0.35688680553E+03  0.45223718261E+03  0.16827752518E+03 0.  0.
        -24    2    3    3    0    0 -0.72755794327E+02  0.11833491931E+03  0.32709998460E+03  0.36410776633E+03  0.79268574124E+02 0.  0.
          6    2    1    2  501    0  0.10364814346E+03 -0.19516663202E+03  0.13993275543E+04  0.14272576538E+04  0.17353343830E+03 0.  0.
         24    2    5    5    0    0  0.68641022023E+02 -0.11515170496E+03  0.50700413640E+03  0.53065793306E+03  0.81074919241E+02 0.  0.
          5    1    5    5  501    0  0.35007121439E+02 -0.80014927059E+02  0.89232341786E+03  0.89659972070E+03  0.47000000000E+01 0. -1.
        -11    1    6    6    0    0 -0.12349691688E+02  0.36516021151E+01  0.42912047943E+02  0.44802822919E+02  0.00000000000E+00 0.  1.
         12    1    6    6    0    0  0.80990713711E+02 -0.11880330707E+03  0.46409208846E+03  0.48585511014E+03  0.00000000000E+00 0. -1.
         -5    1    3    3    0  503 -0.30892349134E+02  0.76831712703E+02  0.29786820930E+02  0.88129416275E+02  0.47000000000E+01 0.  1.
         11    1    4    4    0    0 -0.65025514196E+02  0.36159933950E+02  0.12035729826E+03  0.14149818926E+03  0.00000000000E+00 0. -1.
        -12    1    4    4    0    0 -0.77302801312E+01  0.82174985362E+02  0.20674268634E+03  0.22260957707E+03  0.00000000000E+00 0.  1.
</event>
<event>
12    1  0.8406581E-002  0.1863620E+03  0.7818608E-02  0.1161979E+00
         21   -1    0    0  501  502  0.00000000000E+00  0.00000000000E+00  0.93495859362E+03  0.93495859362E+03  0.00000000000E+00 0.  1.
         21   -1    0    0  502  503 -0.00000000000E+00 -0.00000000000E+00 -0.37036140796E+02  0.37036140796E+02  0.00000000000E+00 0. -1.
         -6    2    1    2    0  503  0.45188383411E+01 -0.74556194256E+02  0.46898896961E+03  0.50465972718E+03  0.17073880817E+03 0.  0.
        -24    2    3    3    0    0  0.22924030300E+02 -0.10524261380E+03  0.26164358104E+03  0.29419688581E+03  0.80578689458E+02 0.  0.
          6    2    1    2  501    0 -0.45188383411E+01  0.74556194256E+02  0.42893348322E+03  0.46733500724E+03  0.16982058170E+03 0.  0.
         24    2    5    5    0    0 -0.44897922584E+02 -0.90400765853E+01  0.19306654090E+03  0.21381161302E+03  0.79644021802E+02 0.  0.
          5    1    5    5  501    0  0.40379084242E+02  0.83596270841E+02  0.23586694231E+03  0.25352339423E+03  0.47000000000E+01 0. -1.
        -11    1    6    6    0    0 -0.20310489613E+02  0.20192244805E+02  0.16217839664E+03  0.16468781094E+03  0.00000000000E+00 0.  1.
         12    1    6    6    0    0 -0.24587432971E+02 -0.29232321390E+02  0.30888144265E+02  0.49123802073E+02  0.00000000000E+00 0. -1.
         -5    1    3    3    0  503 -0.18405191959E+02  0.30686419542E+02  0.20734538857E+03  0.21046284137E+03  0.47000000000E+01 0.  1.
         13    1    4    4    0    0  0.12748378664E+02 -0.82837010347E+02  0.99048237504E+02  0.12974993177E+03  0.00000000000E+00 0. -1.
        -14    1    4    4    0    0  0.10175651636E+02 -0.22405603451E+02  0.16259534354E+03  0.16444695404E+03  0.00000000000E+00 0.  1.
</event>
<event>
12    1  0.8406581E-002  0.1723317E+03  0.7818608E-02  0.1175441E+00
         21   -1    0    0  503  502  0.00000000000E+00  0.00000000000E+00  0.12267714763E+03  0.12267714763E+03  0.00000000000E+00 0.  1.
         21   -1    0    0  501  503 -0.00000000000E+00 -0.00000000000E+00 -0.42469844371E+03  0.42469844371E+03  0.00000000000E+00 0.  1.
          6    2    1    2  501    0 -0.95072554000E+00  0.16102371709E+02 -0.33048244314E+03  0.37270949174E+03  0.17156202889E+03 0.  0.
         24    2    3    3    0    0  0.27560092621E+02 -0.48256162305E+02 -0.15041275487E+03  0.17931334316E+03  0.80256229056E+02 0.  0.
         -6    2    1    2    0  502  0.95072554000E+00 -0.16102371709E+02  0.28461147051E+02  0.17466609960E+03  0.17157511243E+03 0.  0.
        -24    2    5    5    0    0 -0.37291265994E+02  0.38241861795E+02  0.44361717007E+02  0.10617767900E+03  0.80328444952E+02 0.  0.
          5    1    3    3  501    0 -0.28510818161E+02  0.64358534014E+02 -0.18006968827E+03  0.19339614858E+03  0.47000000000E+01 0. -1.
        -11    1    4    4    0    0  0.35340664063E+02 -0.49161063355E+02 -0.15750835514E+03  0.16874434694E+03  0.00000000000E+00 0.  1.
         12    1    4    4    0    0 -0.77805714416E+01  0.90490105018E+00  0.70956002693E+01  0.10568996218E+02  0.00000000000E+00 0. -1.
         -5    1    5    5    0  502  0.38241991534E+02 -0.54344233504E+02 -0.15900569956E+02  0.68488420602E+02  0.47000000000E+01 0.  1.
         13    1    6    6    0    0  0.21056997855E+02  0.26637984697E+02  0.37840330014E+01  0.34165747366E+02  0.00000000000E+00 0. -1.
        -14    1    6    6    0    0 -0.58348263849E+02  0.11603877099E+02  0.40577684005E+02  0.72011931630E+02  0.00000000000E+00 0.  1.
</event>
<event>
12    1  0.8406581E-002  0.2154546E+03  0.7818608E-02  0.1138348E+00
         21   -1    0    0  501  502  0.00000000000E+00  0.00000000000E+00  0.70295419279E+03  0.70295419279E+03  0.00000000000E+00 0. -1.
         21   -1    0    0  502  503 -0.00000000000E+00 -0.00000000000E+00 -0.64712253969E+02  0.64712253969E+02  0.00000000000E+00 0. -1.
         -6    2    1    2    0  503  0.91043287291E+02  0.87466419786E+02  0.28936367227E+03  0.35762165499E+03  0.16799600750E+03 0.  0.
        -24    2    3    3    0    0  0.30407115865E+02  0.12338009864E+02  0.55183711018E+02  0.10427728952E+03  0.82168679953E+02 0.  0.
          6    2    1    2  501    0 -0.91043287291E+02 -0.87466419786E+02  0.34887826655E+03  0.41004479177E+03  0.17458932280E+03 0.  0.
         24    2    5    5    0    0  0.17891698174E+02 -0.65182027137E+02  0.18999213826E+03  0.21605943929E+03  0.77561969936E+02 0.  0.
          5    1    5    5  501    0 -0.10893498546E+03 -0.22284392649E+02  0.15888612829E+03  0.19398535248E+03  0.47000000000E+01 0. -1.
        -11    1    6    6    0    0  0.14218601871E+01 -0.66748765426E+01 -0.70760597776E+01  0.98308842546E+01  0.00000000000E+00 0.  1.
         12    1    6    6    0    0  0.16469837987E+02 -0.58507150594E+02  0.19706819804E+03  0.20622855504E+03  0.00000000000E+00 0. -1.
         -5    1    3    3    0  503  0.60636171426E+02  0.75128409922E+02  0.23417996125E+03  0.25334436547E+03  0.47000000000E+01 0.  1.
         11    1    4    4    0    0  0.40036827751E+02 -0.26394017298E+02  0.36187229282E+02  0.60075846133E+02  0.00000000000E+00 0. -1.
        -12    1    4    4    0    0 -0.96297118867E+01  0.38732027162E+02  0.18996481736E+02  0.44201443387E+02  0.00000000000E+00 0.  1.
</event>
<event>
12    1  0.8406581E-002  0.1812320E+03  0.7818608E-02  0.1166718E+00
         21   -1    0    0  501  502  0.00000000000E+00  0.00000000000E+00  0.71650838983E+03  0.71650838983E+03  0.00000000000E+00 0.  1.
         21   -1    0    0  502  503 -0.00000000000E+00 -0.00000000000E+00 -0.47391387874E+02  0.47391387874E+02  0.00000000000E+00 0.  1.
         -6    2    1    2    0  503  0.12237928827E+02  0.54626652599E+02  0.26271796107E+03  0.31892200183E+03  0.17192055756E+03 0.  0.
        -24    2    3    3    0    0  0.22298734156E+02  0.86369161405E+02  0.25718458247E+03  0.28484099616E+03  0.83866668259E+02 0.  0.
          6    2    1    2  501    0 -0.12237928827E+02 -0.54626652599E+02  0.40639904089E+03  0.44497777587E+03  0.17236937810E+03 0.  0.
         24    2    5    5    0    0 -0.75626812279E+02 -0.28123734087E+02  0.23493471228E+03  0.26020044712E+03  0.77457049344E+02 0.  0.
          5    1    5    5  501    0  0.63388883451E+02 -0.26502918512E+02  0.17146432861E+03  0.18477732875E+03  0.47000000000E+01 0. -1.
        -13    1    6    6    0    0 -0.28954582573E+02 -0.33795422998E+02  0.19008079876E+03  0.19522092235E+03  0.00000000000E+00 0.  1.
         14    1    6    6    0    0 -0.46672229705E+02  0.56716889106E+01  0.44853913519E+02  0.64979524766E+02  0.00000000000E+00 0. -1.
         -5    1    3    3    0  503 -0.10060805329E+02 -0.31742508806E+02  0.55333785965E+01  0.34081005676E+02  0.47000000000E+01 0.  1.
         11    1    4    4    0    0 -0.11192608735E+02  0.37509984731E+01  0.12408037225E+03  0.12464061640E+03  0.00000000000E+00 0. -1.
        -12    1    4    4    0    0  0.33491342892E+02  0.82618162932E+02  0.13310421022E+03  0.16020037975E+03  0.00000000000E+00 0.  1.
</event>
<event>
12    1  0.8406581E-002  0.1803633E+03  0.7818608E-02  0.1168858E+00
         21   -1    0    0  501  502  0.00000000000E+00  0.00000000000E+00  0.29848508233E+02  0.29848508233E+02  0.00000000000E+00 0.  1.
         21   -1    0    0  502  503 -0.00000000000E+00 -0.00000000000E+00 -0.13201728075E+04  0.13201728075E+04  0.00000000000E+00 0.  1.
         -6    2    1    2    0  503 -0.58306314859E+01 -0.54437292400E+02 -0.95567554671E+03  0.97254647932E+03  0.17185310236E+03 0.  0.
        -24    2    3    3    0    0 -0.36153210889E+02 -0.77976692168E+02 -0.41049040806E+03  0.42599136996E+03  0.74691719701E+02 0.  0.
          6    2    1    2  501    0  0.58306314859E+01  0.54437292400E+02 -0.33464875258E+03  0.37747483644E+03  0.16583138868E+03 0.  0.
         24    2    5    5    0    0  0.15698031114E+02 -0.27133449003E+01 -0.71602075877E+02  0.10806955615E+03  0.79362341674E+02 0.  0.
          5    1    5    5  501    0 -0.98673996280E+01  0.57150637301E+02 -0.26304667671E+03  0.26940528029E+03  0.47000000000E+01 0. -1.
        -11    1    6    6    0    0  0.83083106199E+01  0.32216593633E+02 -0.63152150962E+02  0.71380187039E+02  0.00000000000E+00 0.  1.
         12    1    6    6    0    0  0.73897204940E+01 -0.34929938534E+02 -0.84499249151E+01  0.36689369114E+02  0.00000000000E+00 0. -1.
         -5    1    3    3    0  503  0.30322579403E+02  0.23539399768E+02 -0.54518513865E+03  0.54655510936E+03  0.47000000000E+01 0.  1.
         13    1    4    4    0    0  0.10356329487E+02 -0.50809457515E+01 -0.73415590812E+01  0.13673626436E+02  0.00000000000E+00 0. -1.
        -14    1    4    4    0    0 -0.46509540376E+02 -0.72895746417E+02 -0.40314884898E+03  0.41231774352E+03  0.00000000000E+00 0.  1.
</event>
<event>
12    1  0.8406581E-002  0.2247503E+03  0.7818608E-02  0.1132719E+00
         21   -1    0    0  501  502  0.00000000000E+00  0.00000000000E+00  0.58486164072E+03  0.58486164072E+03  0.00000000000E+00 0.  1.
         21   -1    0    0  502  503 -0.00000000000E+00 -0.00000000000E+00 -0.16376408716E+03  0.16376408716E+03  0.00000000000E+00 0.  1.
         -6    2    1    2    0  503 -0.12481078531E+03  0.11498796573E+00 -0.57449495698E+02  0.21992925751E+03  0.17172853112E+03 0.  0.
        -24    2    3    3    0    0 -0.43162476780E+02 -0.26840825960E+02  0.14881373745E+02  0.10747079023E+03  0.93515165226E+02 0.  0.
          6    2    1    2  501    0  0.12481078531E+03 -0.11498796573E+00  0.47854704926E+03  0.52869647037E+03  0.18690889244E+03 0.  0.
         24    2    5    5    0    0  0.14507037563E+03  0.49085748880E+02  0.35747271882E+03  0.39636262361E+03  0.76562132062E+02 0.  0.
          5    1    5    5  501    0 -0.20259590321E+02 -0.49200736845E+02  0.12107433044E+03  0.13233384676E+03  0.47000000000E+01 0. -1.
        -11    1    6    6    0    0  0.58092619123E+02  0.13295109475E+02  0.23212077792E+03  0.23964884284E+03  0.00000000000E+00 0.  1.
         12    1    6    6    0    0  0.86977756505E+02  0.35790639404E+02  0.12535194090E+03  0.15671378077E+03  0.00000000000E+00 0. -1.
         -5    1    3    3    0  503 -0.81648308526E+02  0.26955813926E+02 -0.72330869443E+02  0.11245846728E+03  0.47000000000E+01 0.  1.
         11    1    4    4    0    0 -0.68078039071E+02 -0.20631762207E+02  0.30519269792E+02  0.77406167998E+02  0.00000000000E+00 0. -1.
        -12    1    4    4    0    0  0.24915562291E+02 -0.62090637535E+01 -0.15637896047E+02  0.30064622228E+02  0.00000000000E+00 0.  1.
</event>
<event>
12    1  0.8406581E-002  0.2964734E+03  0.7818608E-02  0.1087558E+00
         21   -1    0    0  503  502  0.00000000000E+00  0.00000000000E+00  0.16485310219E+04  0.16485310219E+04  0.00000000000E+00 0.  1.
         21   -1    0    0  501  503 -0.00000000000E+00 -0.00000000000E+00 -0.20233280058E+03  0.20233280058E+03  0.00000000000E+00 0. -1.
          6    2    1    2  501    0 -0.12357809997E+03  0.20411467300E+03 -0.74458441490E+02  0.30157586813E+03  0.16872936379E+03 0.  0.
         24    2    3    3    0    0 -0.48721894699E+02  0.16969253436E+02 -0.26531290802E+01  0.87554952282E+02  0.70689829466E+02 0.  0.
         -6    2    1    2    0  502  0.12357809997E+03 -0.20411467300E+03  0.15206566628E+04  0.15492879544E+04  0.17596060014E+03 0.  0.
        -24    2    5    5    0    0  0.90750769825E+01 -0.63053397126E+02  0.35791308471E+03  0.37242604900E+03  0.80878290411E+02 0.  0.
          5    1    3    3  501    0 -0.74856205271E+02  0.18714541957E+03 -0.71805312410E+02  0.21402091585E+03  0.47000000000E+01 0. -1.
        -13    1    4    4    0    0 -0.37047180916E+02 -0.20765835397E+02 -0.16694652146E+02  0.45633594465E+02  0.00000000000E+00 0.  1.
         14    1    4    4    0    0 -0.11674713783E+02  0.37735088833E+02  0.14041523066E+02  0.41921357816E+02  0.00000000000E+00 0. -1.
         -5    1    5    5    0  502  0.11450302299E+03 -0.14106127588E+03  0.11627435781E+04  0.11768619054E+04  0.47000000000E+01 0.  1.
         13    1    6    6    0    0 -0.31307506957E+01 -0.74337911748E+02  0.19575399222E+03  0.20941717263E+03  0.00000000000E+00 0. -1.
        -14    1    6    6    0    0  0.12205827678E+02  0.11284514622E+02  0.16215909248E+03  0.16300887637E+03  0.00000000000E+00 0.  1.
</event>
<event>
12    1  0.8406581E-002  0.2194802E+03  0.7818608E-02  0.1134290E+00
         21   -1    0    0  501  502  0.00000000000E+00  0.00000000000E+00  0.28317900475E+03  0.28317900475E+03  0.00000000000E+00 0. -1.
         21   -1    0    0  502  503 -0.00000000000E+00 -0.00000000000E+00 -0.23693665513E+03  0.23693665513E+03  0.00000000000E+00 0.  1.
         -6    2    1    2    0  503 -0.60258008408E+02  0.12255847651E+03 -0.11506740895E+03  0.24781460951E+03  0.17181374899E+03 0.  0.
        -24    2    3    3    0    0 -0.30326316395E+02 -0.82391809989E+01 -0.50203241986E+02  0.98705979467E+02  0.78961606537E+02 0.  0.
          6    2    1    2  501    0  0.60258008408E+02 -0.12255847651E+03  0.16130975857E+03  0.27230105037E+03  0.17168405890E+03 0.  0.
         24    2    5    5    0    0  0.40454930462E+02 -0.14770770636E+03  0.16161732412E+03  0.23994629408E+03  0.89442141448E+02 0.  0.
          5    1    5    5  501    0  0.19803077946E+02  0.25149229851E+02 -0.30756555442E+00  0.32354756293E+02  0.47000000000E+01 0. -1.
        -13    1    6    6    0    0 -0.13408462401E+01 -0.13254499126E+03  0.12731369188E+03  0.18378995815E+03  0.00000000000E+00 0.  1.
         14    1    6    6    0    0  0.41795776702E+02 -0.15162715098E+02  0.34303632247E+02  0.56156335926E+02  0.00000000000E+00 0. -1.
         -5    1    3    3    0  503 -0.29931692013E+02  0.13079765751E+03 -0.64864166963E+02  0.14910863004E+03  0.47000000000E+01 0.  1.
         11    1    4    4    0    0 -0.11184308328E+02  0.34164192839E+02 -0.33891232114E+02  0.49405429249E+02  0.00000000000E+00 0. -1.
        -12    1    4    4    0    0 -0.19142008067E+02 -0.42403373838E+02 -0.16312009872E+02  0.49300550217E+02  0.00000000000E+00 0.  1.
</event>
<event>
12    1  0.8406581E-002  0.2477298E+03  0.7818608E-02  0.1114760E+00
         21   -1    0    0  501  502  0.00000000000E+00  0.00000000000E+00  0.19140844763E+04  0.19140844763E+04  0.00000000000E+00 0. -1.
         21   -1    0    0  502  503 -0.00000000000E+00 -0.00000000000E+00 -0.16921357390E+03  0.16921357390E+03  0.00000000000E+00 0.  1.
         -6    2    1    2    0  503 -0.13076574386E+03 -0.12256873843E+03 -0.65358270422E+02  0.25620649768E+03  0.17101839238E+03 0.  0.
        -24    2    3    3    0    0 -0.55107269405E+02  0.55607622771E+01 -0.18546705493E+01  0.94354185661E+02  0.76364516174E+02 0.  0.
          6    2    1    2  501    0  0.13076574386E+03  0.12256873843E+03  0.18102291728E+04  0.18270915525E+04  0.17091257350E+03 0.  0.
         24    2    5    5    0    0  0.15304175809E+03  0.96680811547E+02  0.17048005513E+04  0.17161695538E+04  0.78256364637E+02 0.  0.
          5    1    5    5  501    0 -0.22276014231E+02  0.25887926888E+02  0.10542862158E+03  0.11092199879E+03  0.47000000000E+01 0.  1.
        -11    1    6    6    0    0  0.95942485666E+02  0.66411183457E+02  0.73367150964E+03  0.74289251571E+03  0.00000000000E+00 0.  1.
         12    1    6    6    0    0  0.57099272421E+02  0.30269628089E+02  0.97112904162E+03  0.97327703804E+03  0.00000000000E+00 0. -1.
         -5    1    3    3    0  503 -0.75658474451E+02 -0.12812950071E+03 -0.63503599873E+02  0.16185231202E+03  0.47000000000E+01 0.  1.
         13    1    4    4    0    0 -0.55339919898E+02 -0.27138347963E+02 -0.11852057446E+01  0.61647395542E+02  0.00000000000E+00 0. -1.
        -14    1    4    4    0    0  0.23265049329E+00  0.32699110240E+02 -0.66946480463E+00  0.32706790119E+02  0.00000000000E+00 0.  1.
</event>
<event>
12    1  0.8406581E-002  0.2157738E+03  0.7818608E-02  0.1137186E+00
         21   -1    0    0  501  502  0.00000000000E+00  0.00000000000E+00  0.36613995625E+03  0.36613995625E+03  0.00000000000E+00 0. -1.
         21   -1    0    0  502  503 -0.00000000000E+00 -0.00000000000E+00 -0.21835581509E+03  0.21835581509E+03  0.00000000000E+00 0. -1.
         -6    2    1    2    0  503 -0.12598381360E+03 -0.34400149799E+02 -0.11527421821E+03  0.24463537518E+03  0.17176446027E+03 0.  0.
        -24    2    3    3    0    0 -0.96435173760E+02 -0.87828322359E+02 -0.95669458870E+02  0.18033818762E+03  0.79722390886E+02 0.  0.
          6    2    1    2  501    0  0.12598381360E+03  0.34400149799E+02  0.26305835936E+03  0.33986039616E+03  0.17102659691E+03 0.  0.
         24    2    5    5    0    0  0.75091507166E+02  0.52596586914E+02  0.73263286218E+02  0.14246384865E+03  0.80766971349E+02 0.  0.
          5    1    5    5  501    0  0.50892306434E+02 -0.18196437115E+02  0.18979507314E+03  0.19739654751E+03  0.47000000000E+01 0. -1.
        -13    1    6    6    0    0 -0.41526523271E+01  0.36193484958E+02  0.42282037119E+02  0.55812037570E+02  0.00000000000E+00 0.  1.
         14    1    6    6    0    0  0.79244159494E+02  0.16403101956E+02  0.30981249099E+02  0.86651811080E+02  0.00000000000E+00 0. -1.
         -5    1    3    3    0  503 -0.29548639841E+02  0.53428172559E+02 -0.19604759337E+02  0.64297187560E+02  0.47000000000E+01 0.  1.
         13    1    4    4    0    0 -0.70124317545E+02 -0.52250254623E+02 -0.10339594121E+03  0.13541871982E+03  0.00000000000E+00 0. -1.
        -14    1    4    4    0    0 -0.26310856215E+02 -0.35578067736E+02  0.77264823372E+01  0.44919467805E+02  0.00000000000E+00 0.  1.
</event>
<event>
12    1  0.8406581E-002  0.1890848E+03  0.7818608E-02  0.1160678E+00
         21   -1    0    0  501  502  0.00000000000E+00  0.00000000000E+00  0.44242646474E+02  0.44242646474E+02  0.00000000000E+00 0.  1.
         21   -1    0    0  502  503 -0.00000000000E+00 -0.00000000000E+00 -0.87725316618E+03  0.87725316618E+03  0.00000000000E+00 0.  1.
         -6    2    1    2    0  503 -0.81191577377E+01  0.69521666940E+02 -0.57382235384E+03  0.60417313026E+03  0.17565276733E+03 0.  0.
        -24    2    3    3    0    0 -0.99330963123E+01  0.96924513585E+02 -0.55916275532E+03  0.57268979807E+03  0.76273128525E+02 0.  0.
          6    2    1    2  501    0  0.81191577377E+01 -0.69521666940E+02 -0.25918816587E+03  0.31732268240E+03  0.16916263340E+03 0.  0.
         24    2    5    5    0    0  0.62219715689E+02 -0.57982956491E+02 -0.22150320131E+03  0.25022380935E+03  0.79466787490E+02 0.  0.
          5    1    5    5  501    0 -0.54100557951E+02 -0.11538710449E+02 -0.37684964568E+02  0.67098873045E+02  0.47000000000E+01 0. -1.
        -13    1    6    6    0    0  0.23175539616E+02 -0.34485526130E+02 -0.19081048233E+03  0.19528184072E+03  0.00000000000E+00 0.  1.
         14    1    6    6    0    0  0.39044176073E+02 -0.23497430362E+02 -0.30692718977E+02  0.54941968630E+02  0.00000000000E+00 0. -1.
         -5    1    3    3    0  503  0.18139385745E+01 -0.27402846645E+02 -0.14659598515E+02  0.31483332193E+02  0.47000000000E+01 0.  1.
         11    1    4    4    0    0  0.96975943270E+01  0.19186468322E+02 -0.31429931440E+03  0.31503368540E+03  0.00000000000E+00 0. -1.
        -12    1    4    4    0    0 -0.19630690639E+02  0.77738045263E+02 -0.24486344092E+03  0.25765611267E+03  0.00000000000E+00 0.  1.
</event>
<event>
12    1  0.8406581E-002  0.2303435E+03  0.7818608E-02  0.1126562E+00
         21   -1    0    0  503  502  0.00000000000E+00  0.00000000000E+00  0.64618296076E+03  0.64618296076E+03  0.00000000000E+00 0. -1.
         21   -1    0    0  501  503 -0.00000000000E+00 -0.00000000000E+00 -0.23789426043E+03  0.23789426043E+03  0.00000000000E+00 0.  1.
          6    2    1    2  501    0  0.76461683295E+02 -0.13133913259E+03 -0.15408795519E+03  0.27635555771E+03  0.17185150445E+03 0.  0.
         24    2    3    3    0    0 -0.28563931150E+02 -0.58645997816E+02 -0.69470171172E+02  0.12306847115E+03  0.77874852725E+02 0.  0.
         -6    2    1    2    0  502 -0.76461683295E+02  0.13133913259E+03  0.56237665551E+03  0.60772166348E+03  0.17309465861E+03 0.  0.
        -24    2    5    5    0    0 -0.14326706804E+02  0.10052558841E+02  0.23264376062E+03  0.25090650090E+03  0.92329000705E+02 0.  0.
          5    1    3    3  501    0  0.10502561445E+03 -0.72693134772E+02 -0.84617784016E+02  0.15328708655E+03  0.47000000000E+01 0. -1.
        -13    1    4    4    0    0 -0.29570926002E+02 -0.76736368744E+02 -0.48986056749E+02  0.95721176907E+02  0.00000000000E+00 0.  1.
         14    1    4    4    0    0  0.10069948520E+01  0.18090370928E+02 -0.20484114423E+02  0.27347294247E+02  0.00000000000E+00 0. -1.
         -5    1    5    5    0  502 -0.62134976491E+02  0.12128657375E+03  0.32973289489E+03  0.35681516258E+03  0.47000000000E+01 0.  1.
         11    1    6    6    0    0 -0.22362586044E+02 -0.23312306315E+02  0.20300939960E+03  0.20556353082E+03  0.00000000000E+00 0. -1.
        -12    1    6    6    0    0  0.80358792399E+01  0.33364865156E+02  0.29634361024E+02  0.45342970076E+02  0.00000000000E+00 0.  1.
</event>
<event>
12    1  0.8406581E-002  0.1786475E+03  0.7818608E-02  0.1169845E+00
         21   -1    0    0  503  502  0.00000000000E+00  0.00000000000E+00  0.43300779954E+02  0.43300779954E+02  0.00000000000E+00 0.  1.
         21   -1    0    0  501  503 -0.00000000000E+00 -0.00000000000E+00 -0.76502566790E+03  0.76502566790E+03  0.00000000000E+00 0.  1.
          6    2    1    2  501    0  0.27173960637E+02 -0.22466625958E+02 -0.45053350970E+03  0.48358084864E+03  0.17212443289E+03 0.  0.
         24    2    3    3    0    0  0.10743413676E+02 -0.79942359737E+02 -0.35126836661E+03  0.36761067369E+03  0.72401244545E+02 0.  0.
         -6    2    1    2    0  502 -0.27173960637E+02  0.22466625958E+02 -0.27119137825E+03  0.32474559921E+03  0.17513356946E+03 0.  0.
        -24    2    5    5    0    0  0.24596038754E+02  0.63304269781E+02 -0.11428995636E+03  0.15448699537E+03  0.78686986976E+02 0.  0.
          5    1    3    3  501    0  0.16430546961E+02  0.57475733779E+02 -0.99265143086E+02  0.11597017495E+03  0.47000000000E+01 0. -1.
        -11    1    4    4    0    0  0.36712222603E+02 -0.17383688196E+02 -0.13619289068E+03  0.14212136847E+03  0.00000000000E+00 0.  1.
         12    1    4    4    0    0 -0.25968808928E+02 -0.62558671541E+02 -0.21507547593E+03  0.22548930522E+03  0.00000000000E+00 0. -1.
         -5    1    5    5    0  502 -0.51769999391E+02 -0.40837643823E+02 -0.15690142189E+03  0.17025860384E+03  0.47000000000E+01 0.  1.
         13    1    6    6    0    0  0.20439233328E+01  0.57510289525E+02 -0.11764167602E+03  0.13096249448E+03  0.00000000000E+00 0. -1.
        -14    1    6    6    0    0  0.22552115422E+02  0.57939802555E+01  0.33517196664E+01  0.23524500886E+02  0.00000000000E+00 0.  1.
</event>
<event>
12    1  0.8406581E-002  0.2327681E+03  0.7818608E-02  0.1124835E+00
         21   -1    0    0  503  502  0.00000000000E+00  0.00000000000E+00  0.27192611548E+03  0.27192611548E+03  0.00000000000E+00 0.  1.
         21   -1    0    0  501  503 -0.00000000000E+00 -0.00000000000E+00 -0.40701899456E+03  0.40701899456E+03  0.00000000000E+00 0.  1.
          6    2    1    2  501    0 -0.10663193183E+03 -0.11414666600E+03 -0.31040661384E+03  0.38754181751E+03  0.17157087212E+03 0.  0.
         24    2    3    3    0    0 -0.78658992524E+02 -0.68509133966E+02 -0.30684740082E+03  0.33368991261E+03  0.79453708832E+02 0.  0.
         -6    2    1    2    0  502  0.10663193183E+03  0.11414666600E+03  0.17531373476E+03  0.29140329253E+03  0.17257213870E+03 0.  0.
        -24    2    5    5    0    0 -0.88740135734E+01  0.18919295926E+02  0.49603196043E+02  0.95865303948E+02  0.79328378075E+02 0.  0.
          5    1    3    3  501    0 -0.27972939302E+02 -0.45637532038E+02 -0.35592130164E+01  0.53851904896E+02  0.47000000000E+01 0. -1.
        -11    1    4    4    0    0  0.13275619410E+02 -0.86052914382E-01 -0.61218719762E+02  0.62641688396E+02  0.00000000000E+00 0.  1.
         12    1    4    4    0    0 -0.91934611934E+02 -0.68423081052E+02 -0.24562868106E+03  0.27104822422E+03  0.00000000000E+00 0. -1.
         -5    1    5    5    0  502  0.11550594540E+03  0.95227370077E+02  0.12571053872E+03  0.19553798858E+03  0.47000000000E+01 0.  1.
         13    1    6    6    0    0  0.47359385886E+01  0.32709920846E+02 -0.89072541903E+01  0.34230209074E+02  0.00000000000E+00 0. -1.
        -14    1    6    6    0    0 -0.13609952162E+02 -0.13790624919E+02  0.58510450234E+02  0.61635094873E+02  0.00000000000E+00 0.  1.
</event>
<event>
12    1  0.8406581E-002  0.1884807E+03  0.7818608E-02  0.1159922E+00
         21   -1    0    0  501  502  0.00000000000E+00  0.00000000000E+00  0.71733886111E+02  0.71733886111E+02  0.00000000000E+00 0.  1.
         21   -1    0    0  502  503 -0.00000000000E+00 -0.00000000000E+00 -0.49524120576E+03  0.49524120576E+03  0.00000000000E+00 0.  1.
         -6    2    1    2    0  503  0.13693093000E+02  0.75743357651E+02 -0.22405669806E+03  0.29255656162E+03  0.17164900460E+03 0.  0.
        -24    2    3    3    0    0 -0.55336020687E+01 -0.60119405818E+01 -0.33437117542E+02  0.84202274247E+02  0.76845416111E+02 0.  0.
          6    2    1    2  501    0 -0.13693093000E+02 -0.75743357651E+02 -0.19945062159E+03  0.27441853025E+03  0.17204773252E+03 0.  0.
         24    2    5    5    0    0  0.70113601319E+01 -0.11701202145E+03 -0.16022534556E+03  0.21365267412E+03  0.78957782786E+02 0.  0.
          5    1    5    5  501    0 -0.20704453132E+02  0.41268663801E+02 -0.39225276027E+02  0.60765856126E+02  0.47000000000E+01 0. -1.
        -11    1    6    6    0    0 -0.14654259082E+02 -0.78167120447E+02 -0.47895939333E+02  0.92837853448E+02  0.00000000000E+00 0.  1.
         12    1    6    6    0    0  0.21665619213E+02 -0.38844901005E+02 -0.11232940623E+03  0.12081482067E+03  0.00000000000E+00 0. -1.
         -5    1    3    3    0  503  0.19226695069E+02  0.81755298233E+02 -0.19061958051E+03  0.20835428738E+03  0.47000000000E+01 0.  1.
         13    1    4    4    0    0 -0.95835206302E+01  0.23041945678E+02  0.13860485695E+02  0.28546246548E+02  0.00000000000E+00 0. -1.
        -14    1    4    4    0    0  0.40499185615E+01 -0.29053886260E+02 -0.47297603237E+02  0.55656027698E+02  0.00000000000E+00 0.  1.
</event>
<event>
12    1  0.8406581E-002  0.2914091E+03  0.7818608E-02  0.1090015E+00
         21   -1    0    0  503  502  0.00000000000E+00  0.00000000000E+00  0.15907311315E+03  0.15907311315E+03  0.00000000000E+00 0. -1.
         21   -1    0    0  501  503 -0.00000000000E+00 -0.00000000000E+00 -0.56381753618E+03  0.56381753618E+03  0.00000000000E+00 0.  1.
          6    2    1    2  501    0 -0.10696377096E+03  0.20631184070E+03 -0.29215354583E+03  0.41048712906E+03  0.17070490583E+03 0.  0.
         24    2    3    3    0    0  0.87784984286E+01  0.10648697132E+03 -0.16060725067E+03  0.20877496968E+03  0.79848368204E+02 0.  0.
         -6    2    1    2    0  502  0.10696377096E+03 -0.20631184070E+03 -0.11259087720E+03  0.31240352027E+03  0.17582215428E+03 0.  0.
        -24    2    5    5    0    0  0.42009857581E+02 -0.14887432852E+03 -0.47620366247E+01  0.17395776364E+03  0.79436973202E+02 0.  0.
          5    1    3    3  501    0 -0.11574226938E+03  0.99824869383E+02 -0.13154629517E+03  0.20171215938E+03  0.47000000000E+01 0. -1.
        -13    1    4    4    0    0 -0.60392364756E+00  0.11698612153E+03 -0.12884760698E+03  0.17403397134E+03  0.00000000000E+00 0.  1.
         14    1    4    4    0    0  0.93824220761E+01 -0.10499150213E+02 -0.31759643681E+02  0.34740998344E+02  0.00000000000E+00 0. -1.
         -5    1    5    5    0  502  0.64953913375E+02 -0.57437512183E+02 -0.10782884057E+03  0.13844575663E+03  0.47000000000E+01 0.  1.
         13    1    6    6    0    0  0.46437059329E+01 -0.92590643737E+02 -0.36096922609E+02  0.99486577659E+02  0.00000000000E+00 0. -1.
        -14    1    6    6    0    0  0.37366151648E+02 -0.56283684781E+02  0.31334885984E+02  0.74471185980E+02  0.00000000000E+00 0.  1.
</event>
<event>
12    1  0.8406581E-002  0.2058215E+03  0.7818608E-02  0.1145699E+00
         21   -1    0    0  501  502  0.00000000000E+00  0.00000000000E+00  0.62882431971E+02  0.62882431971E+02  0.00000000000E+00 0.  1.
         21   -1    0    0  502  503 -0.00000000000E+00 -0.00000000000E+00 -0.84710680545E+03  0.84710680545E+03  0.00000000000E+00 0.  1.
         -6    2    1    2    0  503  0.86659574307E+02  0.69828400815E+02 -0.17616409508E+03  0.26803925774E+03  0.16859824410E+03 0.  0.
        -24    2    3    3    0    0  0.53887533306E+02  0.16835935994E+02 -0.16194732913E+03  0.20395794663E+03  0.11038383757E+03 0.  0.
          6    2    1    2  501    0 -0.86659574307E+02 -0.69828400815E+02 -0.60806027839E+03  0.64194997968E+03  0.17313747967E+03 0.  0.
         24    2    5    5    0    0 -0.10944355181E+03 -0.39977203006E+02 -0.57295291025E+03  0.59032807599E+03  0.81462458536E+02 0.  0.
          5    1    5    5  501    0  0.22783977507E+02 -0.29851197809E+02 -0.35107368148E+02  0.51621903684E+02  0.47000000000E+01 0. -1.
        -11    1    6    6    0    0 -0.37807678421E+02 -0.40852130111E+02 -0.12707381626E+03  0.13873021251E+03  0.00000000000E+00 0.  1.
         12    1    6    6    0    0 -0.71635873394E+02  0.87492710477E+00 -0.44587909398E+03  0.45159786348E+03  0.00000000000E+00 0. -1.
         -5    1    3    3    0  503  0.32772041001E+02  0.52992464822E+02 -0.14216765957E+02  0.64081311110E+02  0.47000000000E+01 0.  1.
         11    1    4    4    0    0 -0.20220479303E+02  0.37235426965E+02 -0.32462371113E+02  0.53377432898E+02  0.00000000000E+00 0. -1.
        -12    1    4    4    0    0  0.74108012610E+02 -0.20399490971E+02 -0.12948495801E+03  0.15058051373E+03  0.00000000000E+00 0.  1.
</event>
<event>
12    1  0.8406581E-002  0.3079463E+03  0.7818608E-02  0.1081820E+00
         21   -1    0    0  501  502  0.00000000000E+00  0.00000000000E+00  0.15951215544E+03  0.15951215544E+03  0.00000000000E+00 0. -1.
         21   -1    0    0  502  503 -0.00000000000E+00 -0.00000000000E+00 -0.61472895809E+03  0.61472895809E+03  0.00000000000E+00 0. -1.
         -6    2    1    2    0  503 -0.21629426033E+03 -0.13299990582E+03 -0.14654430903E+03  0.34103685804E+03  0.17423754483E+03 0.  0.
        -24    2    3    3    0    0 -0.49243394690E+02 -0.85885356782E+02 -0.10016586674E+03  0.16131812681E+03  0.78671028649E+02 0.  0.
          6    2    1    2  501    0  0.21629426033E+03  0.13299990582E+03 -0.30867249362E+03  0.43320425549E+03  0.16707793589E+03 0.  0.
         24    2    5    5    0    0  0.47088225773E+02  0.36822241206E+02 -0.13093347328E+03  0.16958696726E+03  0.89682699486E+02 0.  0.
          5    1    5    5  501    0  0.16920603456E+03  0.96177664616E+02 -0.17773902034E+03  0.26361728823E+03  0.47000000000E+01 0. -1.
        -11    1    6    6    0    0  0.21490939406E+02  0.60080473932E+02 -0.48362613948E+02  0.80065387355E+02  0.00000000000E+00 0.  1.
         12    1    6    6    0    0  0.25597286368E+02 -0.23258232725E+02 -0.82570859329E+02  0.89521579908E+02  0.00000000000E+00 0. -1.
         -5    1    3    3    0  503 -0.16705086564E+03 -0.47114549040E+02 -0.46378442297E+02  0.17971873122E+03  0.47000000000E+01 0.  1.
         11    1    4    4    0    0 -0.51668365777E+02 -0.36746116882E+02 -0.18620215631E+02  0.66080326559E+02  0.00000000000E+00 0. -1.
        -12    1    4    4    0    0  0.24249710874E+01 -0.49139239900E+02 -0.81545651105E+02  0.95237800252E+02  0.00000000000E+00 0.  1.
</event>
<event>
12    1  0.8406581E-002  0.2535094E+03  0.7818608E-02  0.1111398E+00
         21   -1    0    0  503  502  0.00000000000E+00  0.00000000000E+00  0.13174638282E+03  0.13174638282E+03  0.00000000000E+00 0. -1.
         21   -1    0    0  501  503 -0.00000000000E+00 -0.00000000000E+00 -0.75323657248E+03  0.75323657248E+03  0.00000000000E+00 0.  1.
          6    2    1    2  501    0  0.66942370289E+02  0.17142354864E+03 -0.57444782898E+03  0.62714576415E+03  0.17162222265E+03 0.  0.
         24    2    3    3    0    0  0.73138658842E+01  0.13760010086E+03 -0.50561343852E+03  0.52988401696E+03  0.78389041478E+02 0.  0.
         -6    2    1    2    0  502 -0.66942370289E+02 -0.17142354864E+03 -0.47042360687E+02  0.25783719115E+03  0.17435515327E+03 0.  0.
        -24    2    5    5    0    0 -0.82924565711E+02 -0.44289008574E+02 -0.14760613582E+01  0.12176000907E+03  0.77364857477E+02 0.  0.
          5    1    3    3  501    0  0.59628504405E+02  0.33823447779E+02 -0.68834390453E+02  0.97261747189E+02  0.47000000000E+01 0. -1.
        -13    1    4    4    0    0  0.39665167540E+02  0.86941400485E+02 -0.35716691862E+03  0.36973009127E+03  0.00000000000E+00 0.  1.
         14    1    4    4    0    0 -0.32351301656E+02  0.50658700378E+02 -0.14844651991E+03  0.16015392569E+03  0.00000000000E+00 0. -1.
         -5    1    5    5    0  502  0.15982195422E+02 -0.12713454007E+03 -0.45566299329E+02  0.13607718208E+03  0.47000000000E+01 0.  1.
         13    1    6    6    0    0 -0.46611445706E+01 -0.11283717439E+02  0.29043441073E+02  0.31505079230E+02  0.00000000000E+00 0. -1.
        -14    1    6    6    0    0 -0.78263421140E+02 -0.33005291135E+02 -0.30519502431E+02  0.90254929838E+02  0.00000000000E+00 0.  1.
</event>
<event>
12    1  0.8406581E-002  0.1875989E+03  0.7818608E-02  0.1161136E+00
         21   -1    0    0  501  502  0.00000000000E+00  0.00000000000E+00  0.34999670862E+03  0.34999670862E+03  0.00000000000E+00 0. -1.
         21   -1    0    0  502  503 -0.00000000000E+00 -0.00000000000E+00 -0.10893933302E+03  0.10893933302E+03  0.00000000000E+00 0. -1.
         -6    2    1    2    0  503 -0.58282924220E+02 -0.31052137479E+02  0.52053534353E+02  0.19263580569E+03  0.17331430609E+03 0.  0.
        -24    2    3    3    0    0  0.24955455117E+02 -0.19425922471E-01  0.60569036663E+02  0.10326992428E+03  0.79832912637E+02 0.  0.
          6    2    1    2  501    0  0.58282924220E+02  0.31052137479E+02  0.18900384124E+03  0.26630023595E+03  0.17559108509E+03 0.  0.
         24    2    5    5    0    0  0.53001383001E+02  0.21126717717E+02  0.21579246634E+03  0.23687016511E+03  0.79281787250E+02 0.  0.
          5    1    5    5  501    0  0.52815412195E+01  0.99254197625E+01 -0.26788625095E+02  0.29430070839E+02  0.47000000000E+01 0. -1.
        -13    1    6    6    0    0  0.51908658045E+01 -0.27757508810E+02  0.48161543131E+02  0.55829728818E+02  0.00000000000E+00 0.  1.
         14    1    6    6    0    0  0.47810517196E+02  0.48884226526E+02  0.16763092321E+03  0.18104043629E+03  0.00000000000E+00 0. -1.
         -5    1    3    3    0  503 -0.83238379337E+02 -0.31032711557E+02 -0.85155023108E+01  0.89365881413E+02  0.47000000000E+01 0.  1.
         13    1    4    4    0    0  0.15208066189E+02 -0.37988115394E+02  0.45706361523E+02  0.61346993994E+02  0.00000000000E+00 0. -1.
        -14    1    4    4    0    0  0.97473889274E+01  0.37968689471E+02  0.14862675140E+02  0.41922930282E+02  0.00000000000E+00 0.  1.
</event>
<event>
12    1  0.8406581E-002  0.3915500E+03  0.7818608E-02  0.1046759E+00
         21   -1    0    0  501  502  0.00000000000E+00  0.00000000000E+00  0.58768045033E+03  0.58768045033E+03  0.00000000000E+00 0. -1.
         21   -1    0    0  502  503 -0.00000000000E+00 -0.00000000000E+00 -0.26752069274E+03  0.26752069274E+03  0.00000000000E+00 0.  1.
         -6    2    1    2    0  503  0.29427112533E+03  0.19278918006E+03  0.22795688940E+03  0.45294152168E+03  0.17154741468E+03 0.  0.
        -24    2    3    3    0    0  0.27484987972E+03  0.17830448766E+03  0.14711473859E+03  0.36841617375E+03  0.82175325175E+02 0.  0.
          6    2    1    2  501    0 -0.29427112533E+03 -0.19278918006E+03  0.92202868185E+02  0.40225962139E+03  0.17189610510E+03 0.  0.
         24    2    5    5    0    0 -0.24072470225E+03 -0.21196884160E+03  0.10034794421E+03  0.34460972021E+03  0.76203525379E+02 0.  0.
          5    1    5    5  501    0 -0.53546423087E+02  0.19179661541E+02 -0.81450760249E+01  0.57649901177E+02  0.47000000000E+01 0. -1.
        -11    1    6    6    0    0 -0.83306800520E+02 -0.38855968249E+02  0.52244986193E+02  0.10573243525E+03  0.00000000000E+00 0.  1.
         12    1    6    6    0    0 -0.15741790172E+03 -0.17311287335E+03  0.48102958017E+02  0.23887728496E+03  0.00000000000E+00 0. -1.
         -5    1    3    3    0  503  0.19421245614E+02  0.14484692400E+02  0.80842150811E+02  0.84525347931E+02  0.47000000000E+01 0.  1.
         11    1    4    4    0    0  0.12718440986E+03  0.10339344830E+03  0.11373865036E+03  0.19950578901E+03  0.00000000000E+00 0. -1.
        -12    1    4    4    0    0  0.14766546986E+03  0.74911039354E+02  0.33376088230E+02  0.16891038474E+03  0.00000000000E+00 0.  1.
</event>
<event>
12    1  0.8406581E-002  0.2025969E+03  0.7818608E-02  0.1147791E+00
         21   -1    0    0  503  502  0.00000000000E+00  0.00000000000E+00  0.88069162488E+03  0.88069162488E+03  0.00000000000E+00 0.  1.
         21   -1    0    0  501  503 -0.00000000000E+00 -0.00000000000E+00 -0.64373962624E+02  0.64373962624E+02  0.00000000000E+00 0.  1.
          6    2    1    2  501    0  0.78898035166E+02 -0.72731838232E+02  0.15896280052E+03  0.25751638944E+03  0.17184498431E+03 0.  0.
         24    2    3    3    0    0 -0.53069526430E+01 -0.37099322648E+02  0.17226739231E+02  0.88781813226E+02  0.78618867506E+02 0.  0.
         -6    2    1    2    0  502 -0.78898035166E+02  0.72731838232E+02  0.65735486173E+03  0.68754919806E+03  0.17056865267E+03 0.  0.
        -24    2    5    5    0    0 -0.17113234770E+02 -0.20606340291E+02  0.19571399337E+03  0.21250840143E+03  0.78347746690E+02 0.  0.
          5    1    3    3  501    0  0.84204987809E+02 -0.35632515584E+02  0.14173606129E+03  0.16873457621E+03  0.47000000000E+01 0. -1.
        -11    1    4    4    0    0  0.19866190778E+02 -0.13622335752E+02 -0.24722845886E+02  0.34517425688E+02  0.00000000000E+00 0.  1.
         12    1    4    4    0    0 -0.25173143421E+02 -0.23476986896E+02  0.41949585117E+02  0.54264387538E+02  0.00000000000E+00 0. -1.
         -5    1    5    5    0  502 -0.61784800396E+02  0.93338178524E+02  0.46164086836E+03  0.47504079664E+03  0.47000000000E+01 0.  1.
         11    1    6    6    0    0 -0.39463659879E+02 -0.28029974575E+02  0.17352887008E+03  0.18015362521E+03  0.00000000000E+00 0. -1.
        -12    1    6    6    0    0  0.22350425109E+02  0.74236342837E+01  0.22185123292E+02  0.32354776216E+02  0.00000000000E+00 0.  1.
</event>
<event>
12    1  0.8406581E-002  0.2007626E+03  0.7818608E-02  0.1149159E+00
         21   -1    0    0  503  502  0.00000000000E+00  0.00000000000E+00  0.15646718932E+03  0.15646718932E+03  0.00000000000E+00 0. -1.
         21   -1    0    0  501  503 -0.00000000000E+00 -0.00000000000E+00 -0.25860735390E+03  0.25860735390E+03  0.00000000000E+00 0.  1.
          6    2    1    2  501    0 -0.92145338802E+02 -0.45673104879E+02 -0.35828023252E+02  0.20364390120E+03  0.17207671334E+03 0.  0.
         24    2    3    3    0    0 -0.81216961876E+01 -0.53645353727E+02 -0.62990775639E+02  0.11485519479E+03  0.79247031669E+02 0.  0.
         -6    2    1    2    0  502  0.92145338802E+02  0.45673104879E+02 -0.66312141332E+02  0.21143064202E+03  0.17242047537E+03 0.  0.
        -24    2    5    5    0    0  0.11538765099E+03  0.77515664656E+02 -0.45732908787E+02  0.16671209440E+03  0.79865106308E+02 0.  0.
          5    1    3    3  501    0 -0.84023642615E+02  0.79722488479E+01  0.27162752387E+02  0.88788706417E+02  0.47000000000E+01 0. -1.
        -11    1    4    4    0    0  0.35471046585E+02 -0.29422319638E+02 -0.32667746637E+02  0.56489376958E+02  0.00000000000E+00 0.  1.
         12    1    4    4    0    0 -0.43592742773E+02 -0.24223034089E+02 -0.30323029001E+02  0.58365817828E+02  0.00000000000E+00 0. -1.
         -5    1    5    5    0  502 -0.23242312188E+02 -0.31842559777E+02 -0.20579232545E+02  0.44718547619E+02  0.47000000000E+01 0.  1.
         11    1    6    6    0    0  0.44372134279E+02  0.55763526401E+02  0.12476735847E+02  0.72347260587E+02  0.00000000000E+00 0. -1.
        -12    1    6    6    0    0  0.71015516712E+02  0.21752138255E+02 -0.58209644634E+02  0.94364833815E+02  0.00000000000E+00 0.  1.
</event>
<event>
12    1  0.8406581E-002  0.3001127E+03  0.7818608E-02  0.1085525E+00
         21   -1    0    0  503  502  0.00000000000E+00  0.00000000000E+00  0.30777857817E+03  0.30777857817E+03  0.00000000000E+00 0.  1.
         21   -1    0    0  501  503 -0.00000000000E+00 -0.00000000000E+00 -0.53074032129E+03  0.53074032129E+03  0.00000000000E+00 0. -1.
          6    2    1    2  501    0 -0.21712312477E+03 -0.10718041502E+03 -0.39357253735E+03  0.49330062229E+03  0.17267330170E+03 0.  0.
         24    2    3    3    0    0 -0.16385423023E+03 -0.13134232357E+02 -0.29808152843E+03  0.34899926269E+03  0.76988122072E+02 0.  0.
         -6    2    1    2    0  502  0.21712312477E+03  0.10718041502E+03  0.17061079423E+03  0.34521827717E+03  0.17730629745E+03 0.  0.
        -24    2    5    5    0    0  0.89740227480E+02  0.11802333461E+03  0.68555390596E+02  0.18156814171E+03  0.79273782323E+02 0.  0.
          5    1    3    3  501    0 -0.53268894531E+02 -0.94046182660E+02 -0.95491008923E+02  0.14430135960E+03  0.47000000000E+01 0. -1.
        -13    1    4    4    0    0 -0.88814668365E+02 -0.34092642131E+02 -0.11007430685E+03  0.14548782284E+03  0.00000000000E+00 0.  1.
         14    1    4    4    0    0 -0.75039561869E+02  0.20958409774E+02 -0.18800722157E+03  0.20351143985E+03  0.00000000000E+00 0. -1.
         -5    1    5    5    0  502  0.12738289728E+03 -0.10842919595E+02  0.10205540363E+03  0.16365013546E+03  0.47000000000E+01 0.  1.
         13    1    6    6    0    0  0.97267355856E+02  0.75241970334E+02  0.38925206660E+02  0.12898629512E+03  0.00000000000E+00 0. -1.
        -14    1    6    6    0    0 -0.75271283757E+01  0.42781364278E+02  0.29630183935E+02  0.52581846593E+02  0.00000000000E+00 0.  1.
</event>
<event>
12    1  0.8406581E-002  0.1899232E+03  0.7818608E-02  0.1158717E+00
         21   -1    0    0  501  502  0.00000000000E+00  0.00000000000E+00  0.57158755708E+02  0.57158755708E+02  0.00000000000E+00 0.  1.
         21   -1    0    0  502  503 -0.00000000000E+00 -0.00000000000E+00 -0.65400818472E+03  0.65400818472E+03  0.00000000000E+00 0.  1.
         -6    2    1    2    0  503 -0.45756638362E+02  0.58045036650E+02 -0.22858480893E+03  0.29718988042E+03  0.17495117581E+03 0.  0.
        -24    2    3    3    0    0 -0.35305420347E+01  0.23642832933E+01 -0.21024612777E+03  0.22478969581E+03  0.79428700964E+02 0.  0.
          6    2    1    2  501    0  0.45756638362E+02 -0.58045036650E+02 -0.36826462008E+03  0.41397706001E+03  0.17405539226E+03 0.  0.
         24    2    5    5    0    0  0.64729392868E+02 -0.47748441485E+02 -0.11740738630E+03  0.16214889037E+03  0.77704313416E+02 0.  0.
          5    1    5    5  501    0 -0.18972754506E+02 -0.10296595165E+02 -0.25085723378E+03  0.25182816964E+03  0.47000000000E+01 0. -1.
        -11    1    6    6    0    0 -0.13397222486E+02 -0.28324314037E+02 -0.32775453065E+02  0.45342944982E+02  0.00000000000E+00 0.  1.
         12    1    6    6    0    0  0.78126615354E+02 -0.19424127448E+02 -0.84631933239E+02  0.11680594539E+03  0.00000000000E+00 0. -1.
         -5    1    3    3    0  503 -0.42226096327E+02  0.55680753357E+02 -0.18338681164E+02  0.72400184615E+02  0.47000000000E+01 0.  1.
         11    1    4    4    0    0 -0.32759490292E+02 -0.22985629454E+02 -0.90641221175E+02  0.99082563258E+02  0.00000000000E+00 0. -1.
        -12    1    4    4    0    0  0.29228948257E+02  0.25349912748E+02 -0.11960490659E+03  0.12570713255E+03  0.00000000000E+00 0.  1.
</event>
<event>
12    1  0.8406581E-002  0.1911302E+03  0.7818608E-02  0.1157494E+00
         21   -1    0    0  501  502  0.00000000000E+00  0.00000000000E+00  0.21419827614E+03  0.21419827614E+03  0.00000000000E+00 0. -1.
         21   -1    0    0  502  503 -0.00000000000E+00 -0.00000000000E+00 -0.17040256824E+03  0.17040256824E+03  0.00000000000E+00 0.  1.
         -6    2    1    2    0  503 -0.54437597373E+02 -0.63025582431E+02  0.18613143750E+02  0.19181880474E+03  0.17179152680E+03 0.  0.
        -24    2    3    3    0    0 -0.47997527312E+02 -0.10076188613E+03  0.45957539572E+02  0.14453974910E+03  0.79516811436E+02 0.  0.
          6    2    1    2  501    0  0.54437597373E+02  0.63025582431E+02  0.25182564145E+02  0.19278203965E+03  0.17203219822E+03 0.  0.
         24    2    5    5    0    0 -0.16178368537E+02  0.81910493221E+02  0.28523488571E+02  0.11945737618E+03  0.80532023535E+02 0.  0.
          5    1    5    5  501    0  0.70615965910E+02 -0.18884910789E+02 -0.33409244263E+01  0.73324663470E+02  0.47000000000E+01 0. -1.
        -13    1    6    6    0    0 -0.18342139111E+02  0.67379568934E+02 -0.16790210535E+02  0.71821664884E+02  0.00000000000E+00 0.  1.
         14    1    6    6    0    0  0.21637705744E+01  0.14530924287E+02  0.45313699106E+02  0.47635711293E+02  0.00000000000E+00 0. -1.
         -5    1    3    3    0  503 -0.64400700613E+01  0.37736303698E+02 -0.27344395823E+02  0.47279055639E+02  0.47000000000E+01 0.  1.
         13    1    4    4    0    0 -0.14481630328E+01  0.48124394256E+01  0.27180034048E+02  0.27640748909E+02  0.00000000000E+00 0. -1.
        -14    1    4    4    0    0 -0.46549364279E+02 -0.10557432556E+03  0.18777505525E+02  0.11689900019E+03  0.00000000000E+00 0.  1.
</event>
<event>
12    1  0.8406581E-002  0.3040647E+03  0.7818608E-02  0.1083282E+00
         21   -1    0    0  501  502  0.00000000000E+00  0.00000000000E+00  0.40461594174E+03  0.40461594174E+03  0.00000000000E+00 0. -1.
         21   -1    0    0  502  503 -0.00000000000E+00 -0.00000000000E+00 -0.43037029071E+03  0.43037029071E+03  0.00000000000E+00 0.  1.
         -6    2    1    2    0  503  0.23879847631E+03 -0.75749284519E+02 -0.29904706332E+03  0.42615346832E+03  0.17150791843E+03 0.  0.
        -24    2    3    3    0    0  0.15399773372E+03 -0.37919985713E+01 -0.10835413741E+03  0.20534835303E+03  0.81839145614E+02 0.  0.
          6    2    1    2  501    0 -0.23879847631E+03  0.75749284519E+02  0.27329271435E+03  0.40883276413E+03  0.17231556783E+03 0.  0.
         24    2    5    5    0    0 -0.25657679398E+03  0.62100527618E+02  0.22435882397E+03  0.35480524548E+03  0.76562089753E+02 0.  0.
          5    1    5    5  501    0  0.17778317669E+02  0.13648756901E+02  0.48933890380E+02  0.54027518653E+02  0.47000000000E+01 0. -1.
        -13    1    6    6    0    0 -0.21126530133E+03  0.50116186283E+02  0.14014881189E+03  0.25843054995E+03  0.00000000000E+00 0.  1.
         14    1    6    6    0    0 -0.45311492646E+02  0.11984341335E+02  0.84210012085E+02  0.96374695529E+02  0.00000000000E+00 0. -1.
         -5    1    3    3    0  503  0.84800742592E+02 -0.71957285948E+02 -0.19069292591E+03  0.22080511529E+03  0.47000000000E+01 0.  1.
         13    1    4    4    0    0  0.41832481316E+02  0.30518836036E+01  0.89673614070E+01  0.42891538293E+02  0.00000000000E+00 0. -1.
        -14    1    4    4    0    0  0.11216525240E+03 -0.68438821749E+01 -0.11732149882E+03  0.16245681473E+03  0.00000000000E+00 0.  1.
</event>
<event>
12    1  0.8406581E-002  0.1885233E+03  0.7818608E-02  0.1159818E+00
         21   -1    0    0  503  502  0.00000000000E+00  0.00000000000E+00  0.69608590160E+03  0.69608590160E+03  0.00000000000E+00 0.  1.
         21   -1    0    0  501  503 -0.00000000000E+00 -0.00000000000E+00 -0.63757962752E+02  0.63757962752E+02  0.00000000000E+00 0. -1.
          6    2    1    2  501    0  0.70336970542E+02 -0.34889654158E+02  0.48581520329E+03  0.52108242035E+03  0.17130644956E+03 0.  0.
         24    2    3    3    0    0  0.53699611585E+02 -0.79800511287E+02  0.42694212583E+03  0.44504350892E+03  0.80823116398E+02 0.  0.
         -6    2    1    2    0  502 -0.70336970542E+02  0.34889654158E+02  0.14651273557E+03  0.23876144401E+03  0.17139564775E+03 0.  0.
        -24    2    5    5    0    0 -0.72350783909E+01  0.66402495293E+02  0.89192881302E+02  0.14775285297E+03  0.97025242826E+02 0.  0.
          5    1    3    3  501    0  0.16637358957E+02  0.44910857129E+02  0.58873077461E+02  0.76038911426E+02  0.47000000000E+01 0. -1.
        -11    1    4    4    0    0  0.13995311042E+02  0.16338616600E+02  0.80317302038E+02  0.83148590669E+02  0.00000000000E+00 0.  1.
         12    1    4    4    0    0  0.39704300543E+02 -0.96139127888E+02  0.34662482379E+03  0.36189491825E+03  0.00000000000E+00 0. -1.
         -5    1    5    5    0  502 -0.63101892152E+02 -0.31512841135E+02  0.57319854264E+02  0.91008591036E+02  0.47000000000E+01 0.  1.
         11    1    6    6    0    0 -0.10827449832E+02  0.54569097870E+02 -0.20549242847E+01  0.55670843590E+02  0.00000000000E+00 0. -1.
        -12    1    6    6    0    0  0.35923714416E+01  0.11833397424E+02  0.91247805587E+02  0.92082009381E+02  0.00000000000E+00 0.  1.
</event>
<event>
12    1  0.8406581E-002  0.2115826E+03  0.7818608E-02  0.1140636E+00
         21   -1    0    0  501  502  0.00000000000E+00  0.00000000000E+00  0.53275609563E+03  0.53275609563E+03  0.00000000000E+00 0. -1.
         21   -1    0    0  502  503 -0.00000000000E+00 -0.00000000000E+00 -0.14871121671E+03  0.14871121671E+03  0.00000000000E+00 0. -1.
         -6    2    1    2    0  503  0.97232689951E+02  0.70205028739E+02 -0.33387967936E+02  0.21420070168E+03  0.17431076313E+03 0.  0.
        -24    2    3    3    0    0  0.63557230592E+02 -0.25816513138E+02  0.42074241989E+01  0.10562042457E+03  0.80199487259E+02 0.  0.
          6    2    1    2  501    0 -0.97232689951E+02 -0.70205028739E+02  0.41743284685E+03  0.46726661066E+03  0.17235127429E+03 0.  0.
         24    2    5    5    0    0 -0.38570133716E+02  0.30209946061E+02  0.17638950854E+03  0.19959434162E+03  0.79525759519E+02 0.  0.
          5    1    5    5  501    0 -0.58662556234E+02 -0.10041497480E+03  0.24104333831E+03  0.26767226904E+03  0.47000000000E+01 0. -1.
        -11    1    6    6    0    0 -0.32247487117E+02  0.36134734633E+02  0.39680992342E+02  0.62611505537E+02  0.00000000000E+00 0.  1.
         12    1    6    6    0    0 -0.63226465988E+01 -0.59247885718E+01  0.13670851620E+03  0.13698283608E+03  0.00000000000E+00 0. -1.
         -5    1    3    3    0  503  0.33675459359E+02  0.96021541877E+02 -0.37595392135E+02  0.10858027711E+03  0.47000000000E+01 0.  1.
         11    1    4    4    0    0  0.63602279995E+02  0.91133076408E+01 -0.14685109016E+02  0.65908685494E+02  0.00000000000E+00 0. -1.
        -12    1    4    4    0    0 -0.45049403332E-01 -0.34929820778E+02  0.18892533215E+02  0.39711739075E+02  0.00000000000E+00 0.  1.
</event>
<event>
12    1  0.8406581E-002  0.1781723E+03  0.7818608E-02  0.1172051E+00
         21   -1    0    0  503  502  0.00000000000E+00  0.00000000000E+00  0.35569086554E+02  0.35569086554E+02  0.00000000000E+00 0.  1.
         21   -1    0    0  501  503 -0.00000000000E+00 -0.00000000000E+00 -0.10738682447E+04  0.10738682447E+04  0.00000000000E+00 0.  1.
          6    2    1    2  501    0  0.42353560576E+02  0.12313808711E+02 -0.78706385135E+03  0.80697884884E+03  0.17262648233E+03 0.  0.
         24    2    3    3    0    0 -0.24358070698E+02 -0.31710899452E+02 -0.31096434530E+03  0.32419375552E+03  0.82485576423E+02 0.  0.
         -6    2    1    2    0  502 -0.42353560576E+02 -0.12313808711E+02 -0.25123530684E+03  0.30245848245E+03  0.16253153610E+03 0.  0.
        -24    2    5    5    0    0  0.12847728433E+02 -0.56574453327E+02 -0.16377804060E+03  0.18986607423E+03  0.76551594807E+02 0.  0.
          5    1    3    3  501    0  0.66711631274E+02  0.44024708163E+02 -0.47609950605E+03  0.48278509333E+03  0.47000000000E+01 0. -1.
        -13    1    4    4    0    0 -0.18063026990E+02  0.21997687562E+02 -0.18406664220E+03  0.18625439585E+03  0.00000000000E+00 0.  1.
         14    1    4    4    0    0 -0.62950437082E+01 -0.53708587014E+02 -0.12689770310E+03  0.13793935967E+03  0.00000000000E+00 0. -1.
         -5    1    5    5    0  502 -0.55201289009E+02  0.44260644616E+02 -0.87457266241E+02  0.11259240822E+03  0.47000000000E+01 0.  1.
         13    1    6    6    0    0  0.40598744565E+02 -0.14931505671E+02 -0.98773232947E+02  0.10783023448E+03  0.00000000000E+00 0. -1.
        -14    1    6    6    0    0 -0.27751016132E+02 -0.41642947656E+02 -0.65004807653E+02  0.82035839752E+02  0.00000000000E+00 0.  1.
</event>
<event>
12    1  0.8406581E-002  0.1742343E+03  0.7818608E-02  0.1174047E+00
         21   -1    0    0  501  502  0.00000000000E+00  0.00000000000E+00  0.13166395839E+04  0.13166395839E+04  0.00000000000E+00 0.  1.
         21   -1    0    0  502  503 -0.00000000000E+00 -0.00000000000E+00 -0.34174830141E+02  0.34174830141E+02  0.00000000000E+00 0.  1.
         -6    2    1    2    0  503  0.12836681556E+02 -0.17790083045E+02  0.24850225603E+03  0.30227446405E+03  0.17069040078E+03 0.  0.
        -24    2    3    3    0    0  0.19626195553E+02  0.18077847303E+02  0.44995677712E+02  0.95466283977E+02  0.79857399460E+02 0.  0.
          6    2    1    2  501    0 -0.12836681556E+02  0.17790083045E+02  0.10339624978E+04  0.10485399500E+04  0.17284765709E+03 0.  0.
         24    2    5    5    0    0  0.34884686808E+02  0.13234497223E+02  0.50882150135E+03  0.52119448595E+03  0.10654707251E+03 0.  0.
          5    1    5    5  501    0 -0.47721368364E+02  0.45555858215E+01  0.52514099643E+03  0.52734546408E+03  0.47000000000E+01 0. -1.
        -13    1    6    6    0    0  0.31049049259E+01  0.57905279760E+01  0.47177318240E+03  0.47181893378E+03  0.00000000000E+00 0.  1.
         14    1    6    6    0    0  0.31779781883E+02  0.74439692471E+01  0.37048318955E+02  0.49375552170E+02  0.00000000000E+00 0. -1.
         -5    1    3    3    0  503 -0.67895139974E+01 -0.35867930348E+02  0.20350657832E+03  0.20680818007E+03  0.47000000000E+01 0.  1.
         13    1    4    4    0    0  0.23178300501E+02 -0.10081489665E+02  0.58727984802E+02  0.63936267071E+02  0.00000000000E+00 0. -1.
        -14    1    4    4    0    0 -0.35521049478E+01  0.28159336968E+02 -0.13732307091E+02  0.31530016906E+02  0.00000000000E+00 0.  1.
</event>
<event>
12    1  0.8406581E-002  0.1920448E+03  0.7818608E-02  0.1157385E+00
         21   -1    0    0  503  502  0.00000000000E+00  0.00000000000E+00  0.62563040807E+02  0.62563040807E+02  0.00000000000E+00 0. -1.
         21   -1    0    0  501  503 -0.00000000000E+00 -0.00000000000E+00 -0.18684341914E+04  0.18684341914E+04  0.00000000000E+00 0. -1.
          6    2    1    2  501    0  0.75957653003E+02 -0.15650226311E+02 -0.17024530786E+04  0.17128768568E+04  0.17200624230E+03 0.  0.
         24    2    3    3    0    0  0.75983469509E+02 -0.38975641814E+02 -0.16607478721E+04  0.16648613393E+04  0.79919936665E+02 0.  0.
         -6    2    1    2    0  502 -0.75957653003E+02  0.15650226311E+02 -0.10341807203E+03  0.21812037536E+03  0.17568923100E+03 0.  0.
        -24    2    5    5    0    0 -0.11825960122E+03 -0.67394772623E+01 -0.89081443304E+02  0.16793688632E+03  0.78971769705E+02 0.  0.
          5    1    3    3  501    0 -0.25816505439E-01  0.23325415503E+02 -0.41705206463E+02  0.48015517502E+02  0.47000000000E+01 0. -1.
        -13    1    4    4    0    0 -0.92924017417E+01  0.50701325700E+01 -0.51244123512E+03  0.51255055792E+03  0.00000000000E+00 0.  1.
         14    1    4    4    0    0  0.85275871250E+02 -0.44045774384E+02 -0.11483066370E+04  0.11523107814E+04  0.00000000000E+00 0. -1.
         -5    1    5    5    0  502  0.42301948217E+02  0.22389703573E+02 -0.14336628728E+02  0.50183489041E+02  0.47000000000E+01 0.  1.
         11    1    6    6    0    0 -0.83574535162E+02 -0.10688699099E+02 -0.14369821634E+02  0.85471884206E+02  0.00000000000E+00 0. -1.
        -12    1    6    6    0    0 -0.34685066058E+02  0.39492218372E+01 -0.74711621670E+02  0.82465002111E+02  0.00000000000E+00 0.  1.
</event>
<event>
12    1  0.8406581E-002  0.2060563E+03  0.7818608E-02  0.1146088E+00
         21   -1    0    0  501  502  0.00000000000E+00  0.00000000000E+00  0.56189613205E+03  0.56189613205E+03  0.00000000000E+00 0.  1.
         21   -1    0    0  502  503 -0.00000000000E+00 -0.00000000000E+00 -0.73201685572E+02  0.73201685572E+02  0.00000000000E+00 0. -1.
         -6    2    1    2    0  503 -0.10036749730E+03  0.15452397386E+02  0.24149492309E+03  0.31745706602E+03  0.17929523080E+03 0.  0.
        -24    2    3    3    0    0 -0.37355512179E+02  0.32942089419E+02  0.35028600028E+02  0.10083104691E+03  0.80369656309E+02 0.  0.
          6    2    1    2  501    0  0.10036749730E+03 -0.15452397386E+02  0.24719952339E+03  0.31764075161E+03  0.17168468661E+03 0.  0.
         24    2    5    5    0    0  0.87405776569E+02 -0.64989105569E+02  0.22329182191E+03  0.26093484493E+03  0.79777201920E+02 0.  0.
          5    1    5    5  501    0  0.12961720732E+02  0.49536708183E+02  0.23907701480E+02  0.56705906677E+02  0.47000000000E+01 0. -1.
        -13    1    6    6    0    0  0.81352296596E+02 -0.14952420655E+02  0.15913467011E+03  0.17934774678E+03  0.00000000000E+00 0.  1.
         14    1    6    6    0    0  0.60534799734E+01 -0.50036684914E+02  0.64157151799E+02  0.81587098147E+02  0.00000000000E+00 0. -1.
         -5    1    3    3    0  503 -0.63011985122E+02 -0.17489692032E+02  0.20646632306E+03  0.21662601911E+03  0.47000000000E+01 0.  1.
         11    1    4    4    0    0 -0.38352551254E+02  0.12729762716E+02  0.57698865096E+02  0.70442345786E+02  0.00000000000E+00 0. -1.
        -12    1    4    4    0    0  0.99703907440E+00  0.20212326703E+02 -0.22670265068E+02  0.30388701123E+02  0.00000000000E+00 0.  1.
</event>
<event>
12    1  0.8406581E-002  0.2119752E+03  0.7818608E-02  0.1140279E+00
         21   -1    0    0  503  502  0.00000000000E+00  0.00000000000E+00  0.34701538958E+02  0.34701538958E+02  0.00000000000E+00 0.  1.
         21   -1    0    0  501  503 -0.00000000000E+00 -0.00000000000E+00 -0.20656771329E+04  0.20656771329E+04  0.00000000000E+00 0.  1.
          6    2    1    2  501    0 -0.11861993304E+03  0.30122426383E+02 -0.16584227739E+04  0.16717423778E+04  0.17140137571E+03 0.  0.
         24    2    3    3    0    0 -0.79224011713E+02 -0.49293872981E+02 -0.10300144489E+04  0.10370943650E+04  0.76997577809E+02 0.  0.
         -6    2    1    2    0  502  0.11861993304E+03 -0.30122426383E+02 -0.37255282003E+03  0.42863629407E+03  0.17307634094E+03 0.  0.
        -24    2    5    5    0    0  0.20120729172E+02  0.16698131308E+02 -0.74912073446E+02  0.11160891068E+03  0.78492412785E+02 0.  0.
          5    1    3    3  501    0 -0.39395921325E+02  0.79416299365E+02 -0.62840832502E+03  0.63464801282E+03  0.47000000000E+01 0. -1.
        -11    1    4    4    0    0 -0.40037438718E+02  0.17274438863E+02 -0.34938878387E+03  0.35209931132E+03  0.00000000000E+00 0.  1.
         12    1    4    4    0    0 -0.39186572995E+02 -0.66568311844E+02 -0.68062566502E+03  0.68499505365E+03  0.00000000000E+00 0. -1.
         -5    1    5    5    0  502  0.98499203866E+02 -0.46820557691E+02 -0.29764074659E+03  0.31702738338E+03  0.47000000000E+01 0.  1.
         13    1    6    6    0    0 -0.21356104479E+02  0.23256525959E+02 -0.58589784276E+02  0.66556081763E+02  0.00000000000E+00 0. -1.
        -14    1    6    6    0    0  0.41476833651E+02 -0.65583946509E+01 -0.16322289170E+02  0.45052828921E+02  0.00000000000E+00 0.  1.
</event>
<event>
12    1  0.8406581E-002  0.1824904E+03  0.7818608E-02  0.1165703E+00
         21   -1    0    0  501  502  0.00000000000E+00  0.00000000000E+00  0.57361372172E+03  0.57361372172E+03  0.00000000000E+00 0. -1.
         21   -1    0    0  502  503 -0.00000000000E+00 -0.00000000000E+00 -0.12553698027E+03  0.12553698027E+03  0.00000000000E+00 0. -1.
         -6    2    1    2    0  503  0.45542870561E+02 -0.33797327842E+02 -0.32642279627E+02  0.18538677243E+03  0.17345409924E+03 0.  0.
        -24    2    3    3    0    0 -0.20063298547E+02 -0.37692221450E+02 -0.66419087630E+02  0.11134420103E+03  0.78503480141E+02 0.  0.
          6    2    1    2  501    0 -0.45542870561E+02  0.33797327842E+02  0.48071902107E+03  0.51376392956E+03  0.17218067740E+03 0.  0.
         24    2    5    5    0    0 -0.90731049417E+02 -0.53731978137E+01  0.29460819763E+03  0.31822459799E+03  0.78815671491E+02 0.  0.
          5    1    5    5  501    0  0.45188178856E+02  0.39170525655E+02  0.18611082344E+03  0.19553933157E+03  0.47000000000E+01 0. -1.
        -13    1    6    6    0    0 -0.43288375464E+02  0.33439356826E+02  0.18164814543E+03  0.18970535779E+03  0.00000000000E+00 0.  1.
         14    1    6    6    0    0 -0.47442673952E+02 -0.38812554639E+02  0.11296005220E+03  0.12851924021E+03  0.00000000000E+00 0. -1.
         -5    1    3    3    0  503  0.65606169107E+02  0.38948936078E+01  0.33776808004E+02  0.74042571404E+02  0.47000000000E+01 0.  1.
         11    1    4    4    0    0  0.15725525557E+02  0.11290692806E+01 -0.55143165076E+02  0.57352729718E+02  0.00000000000E+00 0. -1.
        -12    1    4    4    0    0 -0.35788824103E+02 -0.38821290730E+02 -0.11275922554E+02  0.53991471309E+02  0.00000000000E+00 0.  1.
</event>
<event>
12    1  0.8406581E-002  0.2432809E+03  0.7818608E-02  0.1117829E+00
         21   -1    0    0  501  502  0.00000000000E+00  0.00000000000E+00  0.43007088799E+03  0.43007088799E+03  0.00000000000E+00 0. -1.
         21   -1    0    0  502  503 -0.00000000000E+00 -0.00000000000E+00 -0.15436041577E+03  0.15436041577E+03  0.00000000000E+00 0. -1.
         -6    2    1    2    0  503  0.15641350745E+03 -0.68883230990E+02  0.39321290687E+02  0.24521833997E+03  0.17139365663E+03 0.  0.
        -24    2    3    3    0    0  0.16401731207E+03 -0.60139148914E+02  0.75643751330E+02  0.20680365576E+03  0.80792196582E+02 0.  0.
          6    2    1    2  501    0 -0.15641350745E+03  0.68883230990E+02  0.23638918153E+03  0.33921296379E+03  0.17313435486E+03 0.  0.
         24    2    5    5    0    0 -0.18518121729E+02  0.17166192506E+02  0.37451588899E+02  0.91648739322E+02  0.79745036904E+02 0.  0.
          5    1    5    5  501    0 -0.13789538573E+03  0.51717038483E+02  0.19893759263E+03  0.24756422447E+03  0.47000000000E+01 0. -1.
        -11    1    6    6    0    0 -0.10090162107E+02  0.66653550414E+01 -0.24995180592E+02  0.27766839611E+02  0.00000000000E+00 0.  1.
         12    1    6    6    0    0 -0.84279596220E+01  0.10500837465E+02  0.62446769491E+02  0.63881899711E+02  0.00000000000E+00 0. -1.
         -5    1    3    3    0  503 -0.76038046196E+01 -0.87440820756E+01 -0.36322460643E+02  0.38414684214E+02  0.47000000000E+01 0.  1.
         13    1    4    4    0    0  0.47199352682E+02 -0.54878755342E+02  0.11079056521E+02  0.73227059035E+02  0.00000000000E+00 0. -1.
        -14    1    4    4    0    0  0.11681795939E+03 -0.52603935719E+01  0.64564694809E+02  0.13357659673E+03  0.00000000000E+00 0.  1.
</event>
<event>
12    1  0.8406581E-002  0.1991662E+03  0.7818608E-02  0.1150454E+00
         21   -1    0    0  503  502  0.00000000000E+00  0.00000000000E+00  0.69944405635E+03  0.69944405635E+03  0.00000000000E+00 0. -1.
         21   -1    0    0  501  503 -0.00000000000E+00 -0.00000000000E+00 -0.57056142069E+02  0.57056142069E+02  0.00000000000E+00 0. -1.
          6    2    1    2  501    0  0.67055580053E+02  0.74434923240E+02  0.29126644732E+03  0.35282525658E+03  0.17208285717E+03 0.  0.
         24    2    3    3    0    0 -0.21576111043E+02 -0.38884389084E+01  0.11426235844E+03  0.13988708902E+03  0.77665066747E+02 0.  0.
         -6    2    1    2    0  502 -0.67055580053E+02 -0.74434923240E+02  0.35112146696E+03  0.40367494184E+03  0.17213414970E+03 0.  0.
        -24    2    5    5    0    0  0.13711501779E+02 -0.70741632909E+01  0.22152037639E+03  0.23670390793E+03  0.81972030616E+02 0.  0.
          5    1    3    3  501    0  0.88631691096E+02  0.78323362149E+02  0.17700408888E+03  0.21293816756E+03  0.47000000000E+01 0. -1.
        -13    1    4    4    0    0 -0.17029070433E+02  0.32748328153E+02  0.28885357608E+02  0.46870098365E+02  0.00000000000E+00 0.  1.
         14    1    4    4    0    0 -0.45470406103E+01 -0.36636767061E+02  0.85377000836E+02  0.93016990656E+02  0.00000000000E+00 0. -1.
         -5    1    5    5    0  502 -0.80767081833E+02 -0.67360759949E+02  0.12960109057E+03  0.16697103391E+03  0.47000000000E+01 0.  1.
         13    1    6    6    0    0  0.13820914945E+02  0.17253738011E+02  0.20739999882E+03  0.20857485149E+03  0.00000000000E+00 0. -1.
        -14    1    6    6    0    0 -0.10941316545E+00 -0.24327901302E+02  0.14120377573E+02  0.28129056433E+02  0.00000000000E+00 0.  1.
</event>
<event>
12    1  0.8406581E-002  0.2392840E+03  0.7818608E-02  0.1121002E+00
         21   -1    0    0  501  502  0.00000000000E+00  0.00000000000E+00  0.78692316691E+02  0.78692316691E+02  0.00000000000E+00 0.  1.
         21   -1    0    0  502  503 -0.00000000000E+00 -0.00000000000E+00 -0.75252683981E+03  0.75252683981E+03  0.00000000000E+00 0. -1.
         -6    2    1    2    0  503 -0.97369445822E+02  0.12792467266E+03 -0.42743600104E+03  0.48775289205E+03  0.17133539584E+03 0.  0.
        -24    2    3    3    0    0 -0.10184361439E+03  0.14243505696E+03 -0.28753219656E+03  0.34694900737E+03  0.83898643670E+02 0.  0.
          6    2    1    2  501    0  0.97369445822E+02 -0.12792467266E+03 -0.24639852208E+03  0.34346626445E+03  0.17723236802E+03 0.  0.
         24    2    5    5    0    0  0.12539080865E+03 -0.12551198612E+03 -0.16228912317E+03  0.25465467277E+03  0.83875677701E+02 0.  0.
          5    1    5    5  501    0 -0.28021362829E+02 -0.24126865410E+01 -0.84109398912E+02  0.88811591678E+02  0.47000000000E+01 0. -1.
        -11    1    6    6    0    0  0.66317138908E+02 -0.10735152056E+03 -0.72122670033E+02  0.14534094885E+03  0.00000000000E+00 0.  1.
         12    1    6    6    0    0  0.59073669743E+02 -0.18160465561E+02 -0.90166453135E+02  0.10931372392E+03  0.00000000000E+00 0. -1.
         -5    1    3    3    0  503  0.44741685666E+01 -0.14510384294E+02 -0.13990380447E+03  0.14080388469E+03  0.47000000000E+01 0.  1.
         13    1    4    4    0    0 -0.46551328957E+02  0.91262515701E+02 -0.93104608121E+02  0.13843533166E+03  0.00000000000E+00 0. -1.
        -14    1    4    4    0    0 -0.55292285432E+02  0.51172541255E+02 -0.19442758844E+03  0.20851367570E+03  0.00000000000E+00 0.  1.
</event>
<event>
12    1  0.8406581E-002  0.2160685E+03  0.7818608E-02  0.1137125E+00
         21   -1    0    0  501  502  0.00000000000E+00  0.00000000000E+00  0.37006158288E+03  0.37006158288E+03  0.00000000000E+00 0. -1.
         21   -1    0    0  502  503 -0.00000000000E+00 -0.00000000000E+00 -0.17346943507E+03  0.17346943507E+03  0.00000000000E+00 0. -1.
         -6    2    1    2    0  503  0.66173631265E+02 -0.11083161328E+03 -0.45126036491E+02  0.21931924675E+03  0.17147004651E+03 0.  0.
        -24    2    3    3    0    0  0.63178418236E+02 -0.92704683732E+02 -0.95996346972E+02  0.16502895881E+03  0.73712873353E+02 0.  0.
          6    2    1    2  501    0 -0.66173631265E+02  0.11083161328E+03  0.24171818430E+03  0.32421177120E+03  0.17327145173E+03 0.  0.
         24    2    5    5    0    0 -0.12225841233E+02  0.49916747997E+02  0.21993884871E+03  0.23984700177E+03  0.80699034459E+02 0.  0.
          5    1    5    5  501    0 -0.53947790032E+02  0.60914865283E+02  0.21779335590E+02  0.84364769428E+02  0.47000000000E+01 0. -1.
        -11    1    6    6    0    0 -0.27489897020E+02  0.53985841946E+02  0.87244631172E+02  0.10621577678E+03  0.00000000000E+00 0.  1.
         12    1    6    6    0    0  0.15264055788E+02 -0.40690939484E+01  0.13269421754E+03  0.13363122499E+03  0.00000000000E+00 0. -1.
         -5    1    3    3    0  503  0.29952130289E+01 -0.18126929549E+02  0.50870310481E+02  0.54290287938E+02  0.47000000000E+01 0.  1.
         11    1    4    4    0    0  0.44685600671E+02 -0.60541396673E+01 -0.39498816575E+02  0.59946743242E+02  0.00000000000E+00 0. -1.
        -12    1    4    4    0    0  0.18492817565E+02 -0.86650544065E+02 -0.56497530398E+02  0.10508221557E+03  0.00000000000E+00 0.  1.
</event>
<event>
12    1  0.8406581E-002  0.2166888E+03  0.7818608E-02  0.1136380E+00
         21   -1    0    0  503  502  0.00000000000E+00  0.00000000000E+00  0.27975094954E+03  0.27975094954E+03  0.00000000000E+00 0. -1.
         21   -1    0    0  501  503 -0.00000000000E+00 -0.00000000000E+00 -0.17962498133E+03  0.17962498133E+03  0.00000000000E+00 0. -1.
          6    2    1    2  501    0 -0.58366033803E+02 -0.11818854572E+03 -0.88007758191E+01  0.21686746906E+03  0.17198522972E+03 0.  0.
         24    2    3    3    0    0 -0.63463565209E+02 -0.20602349319E+01 -0.57583443574E+01  0.10049257580E+03  0.77677091754E+02 0.  0.
         -6    2    1    2    0  502  0.58366033803E+02  0.11818854572E+03  0.10892674403E+03  0.24250846180E+03  0.17195985648E+03 0.  0.
        -24    2    5    5    0    0 -0.14632586564E+02  0.86496006748E+02  0.82824362815E+02  0.15862377961E+03  0.10298522519E+03 0.  0.
          5    1    3    3  501    0  0.50975314062E+01 -0.11612831079E+03 -0.30424314617E+01  0.11637489327E+03  0.47000000000E+01 0. -1.
        -11    1    4    4    0    0 -0.17513532243E+02  0.30757201578E+02  0.17427494062E+02  0.39451828979E+02  0.00000000000E+00 0.  1.
         12    1    4    4    0    0 -0.45950032967E+02 -0.32817436510E+02 -0.23185838419E+02  0.61040746817E+02  0.00000000000E+00 0. -1.
         -5    1    5    5    0  502  0.72998620367E+02  0.31692538976E+02  0.26102381214E+02  0.83884682196E+02  0.47000000000E+01 0.  1.
         11    1    6    6    0    0 -0.12310275451E+02 -0.16531554604E+02  0.43838547136E+02  0.48442268675E+02  0.00000000000E+00 0. -1.
        -12    1    6    6    0    0 -0.23223111126E+01  0.10302756135E+03  0.38985815679E+02  0.11018151093E+03  0.00000000000E+00 0.  1.
</event>
<event>
12    1  0.8406581E-002  0.3794726E+03  0.7818608E-02  0.1051212E+00
         21   -1    0    0  503  502  0.00000000000E+00  0.00000000000E+00  0.10827157933E+03  0.10827157933E+03  0.00000000000E+00 0.  1.
         21   -1    0    0  501  503 -0.00000000000E+00 -0.00000000000E+00 -0.15633615071E+04  0.15633615071E+04  0.00000000000E+00 0.  1.
          6    2    1    2  501    0  0.30249798475E+03  0.15036463421E+03 -0.10533644321E+04  0.11196321269E+04  0.17287255065E+03 0.  0.
         24    2    3    3    0    0  0.96304575614E+02  0.10553244188E+03 -0.36541740849E+03  0.40003582012E+03  0.78019916522E+02 0.  0.
         -6    2    1    2    0  502 -0.30249798475E+03 -0.15036463421E+03 -0.40172549565E+03  0.55200095951E+03  0.17090094046E+03 0.  0.
        -24    2    5    5    0    0 -0.92160148389E+02 -0.78374772714E+02 -0.23850136499E+03  0.27615906206E+03  0.68882715571E+02 0.  0.
          5    1    3    3  501    0  0.20619340913E+03  0.44832192326E+02 -0.68794702362E+03  0.71959630679E+03  0.47000000000E+01 0. -1.
        -13    1    4    4    0    0  0.10157647749E+03  0.10597834932E+03 -0.36634745551E+03  0.39466397031E+03  0.00000000000E+00 0.  1.
         14    1    4    4    0    0 -0.52719018790E+01 -0.44590743413E+00  0.93004701921E+00  0.53718498042E+01  0.00000000000E+00 0. -1.
         -5    1    5    5    0  502 -0.21033783636E+03 -0.71989861496E+02 -0.16322413066E+03  0.27584189745E+03  0.47000000000E+01 0.  1.
         13    1    6    6    0    0 -0.57633608660E+02 -0.70623831370E+01 -0.12395616579E+03  0.13688185102E+03  0.00000000000E+00 0. -1.
        -14    1    6    6    0    0 -0.34526539730E+02 -0.71312389577E+02 -0.11454519920E+03  0.13927721104E+03  0.00000000000E+00 0.  1.
</event>
<event>
12    1  0.8406581E-002  0.2056131E+03  0.7818608E-02  0.1145204E+00
         21   -1    0    0  501  502  0.00000000000E+00  0.00000000000E+00  0.13534830967E+03  0.13534830967E+03  0.00000000000E+00 0. -1.
         21   -1    0    0  502  503 -0.00000000000E+00 -0.00000000000E+00 -0.40783326880E+03  0.40783326880E+03  0.00000000000E+00 0.  1.
         -6    2    1    2    0  503  0.11216989433E+03 -0.58531119730E+01 -0.26810023843E+03  0.33752171639E+03  0.17154249350E+03 0.  0.
        -24    2    3    3    0    0  0.12033756463E+02 -0.20693019132E+02 -0.19515024006E+03  0.21265674447E+03  0.81032477663E+02 0.  0.
          6    2    1    2  501    0 -0.11216989433E+03  0.58531119730E+01 -0.43847207001E+01  0.20565986208E+03  0.17222197589E+03 0.  0.
         24    2    5    5    0    0 -0.11908596327E+03  0.44308018391E+02 -0.37759322539E+02  0.15405980505E+03  0.78511081712E+02 0.  0.
          5    1    5    5  501    0  0.69160689431E+01 -0.38454906417E+02  0.33374601839E+02  0.51600057026E+02  0.47000000000E+01 0. -1.
        -13    1    6    6    0    0 -0.58053224338E+02 -0.19224281927E+02 -0.18367850712E+02  0.63852390804E+02  0.00000000000E+00 0.  1.
         14    1    6    6    0    0 -0.61032738936E+02  0.63532300318E+02 -0.19391471827E+02  0.90207414248E+02  0.00000000000E+00 0. -1.
         -5    1    3    3    0  503  0.10013613787E+03  0.14839907159E+02 -0.72949998369E+02  0.12486497192E+03  0.47000000000E+01 0.  1.
         13    1    4    4    0    0 -0.94522487749E+01  0.18293846215E+02 -0.11288324596E+02  0.23482676347E+02  0.00000000000E+00 0. -1.
        -14    1    4    4    0    0  0.21486005238E+02 -0.38986865347E+02 -0.18386191546E+03  0.18917406812E+03  0.00000000000E+00 0.  1.
</event>
<event>
12    1  0.8406581E-002  0.1772787E+03  0.7818608E-02  0.1170768E+00
         21   -1    0    0  501  502  0.00000000000E+00  0.00000000000E+00  0.52165820649E+02  0.52165820649E+02  0.00000000000E+00 0.  1.
         21   -1    0    0  502  503 -0.00000000000E+00 -0.00000000000E+00 -0.64642827520E+03  0.64642827520E+03  0.00000000000E+00 0.  1.
         -6    2    1    2    0  503 -0.37752418045E+02 -0.13081560458E+02 -0.20276752863E+03  0.26933701115E+03  0.17271763840E+03 0.  0.
        -24    2    3    3    0    0 -0.92198619762E+02 -0.17596273544E+02 -0.15179300700E+03  0.19446870429E+03  0.77244712740E+02 0.  0.
          6    2    1    2  501    0  0.37752418045E+02  0.13081560458E+02 -0.39149492592E+03  0.42925708471E+03  0.17145552034E+03 0.  0.
         24    2    5    5    0    0  0.80724951669E+02 -0.25134548682E+02 -0.24888661761E+03  0.27541843792E+03  0.82234446335E+02 0.  0.
          5    1    5    5  501    0 -0.42972533624E+02  0.38216109140E+02 -0.14260830832E+03  0.15383864679E+03  0.47000000000E+01 0. -1.
        -11    1    6    6    0    0  0.37938293285E+02 -0.50897100810E+02 -0.17568303215E+03  0.18680031251E+03  0.00000000000E+00 0.  1.
         12    1    6    6    0    0  0.42786658384E+02  0.25762552128E+02 -0.73203585459E+02  0.88618125414E+02  0.00000000000E+00 0. -1.
         -5    1    3    3    0  503  0.54446201717E+02  0.45147130863E+01 -0.50974521634E+02  0.74868306856E+02  0.47000000000E+01 0.  1.
         13    1    4    4    0    0 -0.35027497852E+02  0.92615382567E+01 -0.11673102485E+03  0.12222452233E+03  0.00000000000E+00 0. -1.
        -14    1    4    4    0    0 -0.57171121910E+02 -0.26857811801E+02 -0.35061982155E+02  0.72244181965E+02  0.00000000000E+00 0.  1.
</event>
<event>
12    1  0.8406581E-002  0.2324090E+03  0.7818608E-02  0.1125198E+00
         21   -1    0    0  503  502  0.00000000000E+00  0.00000000000E+00  0.47289039873E+03  0.47289039873E+03  0.00000000000E+00 0. -1.
         21   -1    0    0  501  503 -0.00000000000E+00 -0.00000000000E+00 -0.20487383380E+03  0.20487383380E+03  0.00000000000E+00 0. -1.
          6    2    1    2  501    0 -0.14920604655E+03 -0.41280924439E+02 -0.92038455698E+02  0.24997008320E+03  0.17334187641E+03 0.  0.
         24    2    3    3    0    0 -0.21471675771E+02 -0.60338951996E+02 -0.43949074627E+02  0.11207897956E+03  0.80798233332E+02 0.  0.
         -6    2    1    2    0  502  0.14920604655E+03  0.41280924439E+02  0.36005502062E+03  0.42779414933E+03  0.17146911464E+03 0.  0.
        -24    2    5    5    0    0  0.11728534247E+03 -0.23729041086E+02  0.30291436480E+03  0.33542331240E+03  0.80204533240E+02 0.  0.
          5    1    3    3  501    0 -0.12773437078E+03  0.19058027557E+02 -0.48089381071E+02  0.13789110365E+03  0.47000000000E+01 0. -1.
        -13    1    4    4    0    0 -0.24285639593E+02 -0.54766930876E+02  0.73879654103E+01  0.60363822286E+02  0.00000000000E+00 0.  1.
         14    1    4    4    0    0  0.28139638220E+01 -0.55720211198E+01 -0.51337040037E+02  0.51715157271E+02  0.00000000000E+00 0. -1.
         -5    1    5    5    0  502  0.31920704084E+02  0.65009965525E+02  0.57140655823E+02  0.92370836928E+02  0.47000000000E+01 0.  1.
         13    1    6    6    0    0  0.75807527705E+02  0.10992502856E+02  0.10325352382E+03  0.12856479517E+03  0.00000000000E+00 0. -1.
        -14    1    6    6    0    0  0.41477814762E+02 -0.34721543942E+02  0.19966084097E+03  0.20685851723E+03  0.00000000000E+00 0.  1.
</event>
<event>
12    1  0.8406581E-002  0.2073514E+03  0.7818608E-02  0.1143959E+00
         21   -1    0    0  501  502  0.00000000000E+00  0.00000000000E+00  0.76011979724E+03  0.76011979724E+03  0.00000000000E+00 0.  1.
         21   -1    0    0  502  503 -0.00000000000E+00 -0.00000000000E+00 -0.69675304540E+02  0.69675304540E+02  0.00000000000E+00 0. -1.
         -6    2    1    2    0  503  0.83170015700E+02 -0.79622715893E+02  0.16360662620E+03  0.26412445798E+03  0.17244585459E+03 0.  0.
        -24    2    3    3    0    0  0.18900499628E+02 -0.26829152161E+02  0.74486865655E+01  0.87135409785E+02  0.80374525909E+02 0.  0.
          6    2    1    2  501    0 -0.83170015700E+02  0.79622715893E+02  0.52683786650E+03  0.56567064381E+03  0.17078674213E+03 0.  0.
         24    2    5    5    0    0 -0.15667189891E+02 -0.24987375283E+02  0.25046248987E+03  0.26251170616E+03  0.72877344051E+02 0.  0.
          5    1    5    5  501    0 -0.67502825809E+02  0.10461009118E+03  0.27637537663E+03  0.30315893765E+03  0.47000000000E+01 0. -1.
        -13    1    6    6    0    0  0.46670487047E+01 -0.21261577941E+02  0.23665024072E+03  0.23764926357E+03  0.00000000000E+00 0.  1.
         14    1    6    6    0    0 -0.20334238595E+02 -0.37257973414E+01  0.13812249147E+02  0.24862442591E+02  0.00000000000E+00 0. -1.
         -5    1    3    3    0  503  0.64269516072E+02 -0.52793563731E+02  0.15615793964E+03  0.17698904819E+03  0.47000000000E+01 0.  1.
         11    1    4    4    0    0 -0.11127573948E+02  0.21026266064E+02  0.17783704936E+02  0.29701631737E+02  0.00000000000E+00 0. -1.
        -12    1    4    4    0    0  0.30028073575E+02 -0.47855418226E+02 -0.10335018371E+02  0.57433778049E+02  0.00000000000E+00 0.  1.
</event>
<event>
12    1  0.8406581E-002  0.2304077E+03  0.7818608E-02  0.1127095E+00
         21   -1    0    0  501  502  0.00000000000E+00  0.00000000000E+00  0.25950496993E+03  0.25950496993E+03  0.00000000000E+00 0. -1.
         21   -1    0    0  502  503 -0.00000000000E+00 -0.00000000000E+00 -0.20087827774E+03  0.20087827774E+03  0.00000000000E+00 0. -1.
         -6    2    1    2    0  503 -0.14644740401E+03  0.63198511569E+01  0.27806897017E+02  0.22792344722E+03  0.17230522804E+03 0.  0.
        -24    2    3    3    0    0 -0.12852844309E+03  0.47610466452E+02 -0.22800624143E+02  0.16003224551E+03  0.79398576448E+02 0.  0.
          6    2    1    2  501    0  0.14644740401E+03 -0.63198511569E+01  0.30819795180E+02  0.23245980045E+03  0.17776646588E+03 0.  0.
         24    2    5    5    0    0  0.16258733417E+02  0.71557019141E+01  0.51569654955E+01  0.99000625763E+02  0.97257283152E+02 0.  0.
          5    1    5    5  501    0  0.13018867059E+03 -0.13475553071E+02  0.25662829684E+02  0.13345917469E+03  0.47000000000E+01 0. -1.
        -13    1    6    6    0    0  0.68441086077E+01 -0.22183605729E+02  0.43802817323E+02  0.49574600263E+02  0.00000000000E+00 0.  1.
         14    1    6    6    0    0  0.94146248096E+01  0.29339307643E+02 -0.38645851827E+02  0.49426025500E+02  0.00000000000E+00 0. -1.
         -5    1    3    3    0  503 -0.17918960922E+02 -0.41290615295E+02  0.50607521159E+02  0.67891201711E+02  0.47000000000E+01 0.  1.
         11    1    4    4    0    0 -0.13137984545E+02 -0.89113836018E+01 -0.27170103186E+02  0.31467982185E+02  0.00000000000E+00 0. -1.
        -12    1    4    4    0    0 -0.11539045855E+03  0.56521850053E+02  0.43694790439E+01  0.12856426332E+03  0.00000000000E+00 0.  1.
</event>
<event>
12    1  0.8406581E-002  0.2293768E+03  0.7818608E-02  0.1127324E+00
         21   -1    0    0  501  502  0.00000000000E+00  0.00000000000E+00  0.81791585343E+03  0.81791585343E+03  0.00000000000E+00 0.  1.
         21   -1    0    0  502  503 -0.00000000000E+00 -0.00000000000E+00 -0.14064567674E+03  0.14064567674E+03  0.00000000000E+00 0. -1.
         -6    2    1    2    0  503  0.70227418066E+02  0.13269502734E+03 -0.15781589056E+02  0.22853793247E+03  0.17158282984E+03 0.  0.
        -24    2    3    3    0    0  0.26509684050E+02  0.75219074821E+01  0.27574020653E+02  0.88962328958E+02  0.79966411186E+02 0.  0.
          6    2    1    2  501    0 -0.70227418066E+02 -0.13269502734E+03  0.69305176575E+03  0.73002359770E+03  0.17341811513E+03 0.  0.
         24    2    5    5    0    0  0.19286437433E+02 -0.80829245581E+02  0.47331174522E+03  0.48710271291E+03  0.79622303091E+02 0.  0.
          5    1    5    5  501    0 -0.89513855500E+02 -0.51865781760E+02  0.21974002053E+03  0.24292088479E+03  0.47000000000E+01 0. -1.
        -11    1    6    6    0    0 -0.79613414508E+01 -0.79914095310E+02  0.26179561696E+03  0.27383679564E+03  0.00000000000E+00 0.  1.
         12    1    6    6    0    0  0.27247778884E+02 -0.91515027068E+00  0.21151612827E+03  0.21326591728E+03  0.00000000000E+00 0. -1.
         -5    1    3    3    0  503  0.43717734017E+02  0.12517311986E+03 -0.43355609709E+02  0.13957560351E+03  0.47000000000E+01 0.  1.
         11    1    4    4    0    0  0.35097969657E+02  0.46707356548E+00 -0.19801066668E+02  0.40300966154E+02  0.00000000000E+00 0. -1.
        -12    1    4    4    0    0 -0.85882856070E+01  0.70548339167E+01  0.47375087321E+02  0.48661362804E+02  0.00000000000E+00 0.  1.
</event>
<event>
12    1  0.8406581E-002  0.1759140E+03  0.7818608E-02  0.1172042E+00
         21   -1    0    0  503  502  0.00000000000E+00  0.00000000000E+00  0.80057817480E+03  0.80057817480E+03  0.00000000000E+00 0. -1.
         21   -1    0    0  501  503 -0.00000000000E+00 -0.00000000000E+00 -0.44371094066E+02  0.44371094066E+02  0.00000000000E+00 0. -1.
          6    2    1    2  501    0  0.11914704693E+02 -0.32620952355E+02  0.22302502479E+03  0.28349682725E+03  0.17153484387E+03 0.  0.
         24    2    3    3    0    0  0.27763164470E+02  0.13514665412E+02  0.21756186443E+03  0.23418551998E+03  0.80970694894E+02 0.  0.
         -6    2    1    2    0  502 -0.11914704693E+02  0.32620952355E+02  0.53318205595E+03  0.56145244161E+03  0.17245188513E+03 0.  0.
        -24    2    5    5    0    0 -0.10502986556E+02  0.64474726853E+02  0.51376220313E+03  0.52382430611E+03  0.78568436259E+02 0.  0.
          5    1    3    3  501    0 -0.15848459777E+02 -0.46135617767E+02  0.54631603563E+01  0.49311307275E+02  0.47000000000E+01 0. -1.
        -13    1    4    4    0    0  0.13266303772E+02  0.35873323028E+02  0.19658840777E+03  0.20027454204E+03  0.00000000000E+00 0.  1.
         14    1    4    4    0    0  0.14496860698E+02 -0.22358657615E+02  0.20973456661E+02  0.33910977939E+02  0.00000000000E+00 0. -1.
         -5    1    5    5    0  502 -0.14117181376E+01 -0.31853774498E+02  0.19419852817E+02  0.37628135501E+02  0.47000000000E+01 0.  1.
         11    1    6    6    0    0 -0.16701131125E+02  0.36184707653E+02  0.46782813155E+03  0.46952254634E+03  0.00000000000E+00 0. -1.
        -12    1    6    6    0    0  0.61981445692E+01  0.28290019199E+02  0.45934071576E+02  0.54301759769E+02  0.00000000000E+00 0.  1.
</event>
<event>
12    1  0.8406581E-002  0.1827523E+03  0.7818608E-02  0.1165282E+00
         21   -1    0    0  503  502  0.00000000000E+00  0.00000000000E+00  0.73630159020E+02  0.73630159020E+02  0.00000000000E+00 0. -1.
         21   -1    0    0  501  503 -0.00000000000E+00 -0.00000000000E+00 -0.49768975473E+03  0.49768975473E+03  0.00000000000E+00 0. -1.
          6    2    1    2  501    0 -0.60295990588E+02 -0.88182744174E+01 -0.12558558632E+03  0.22134115568E+03  0.17177543265E+03 0.  0.
         24    2    3    3    0    0 -0.41869518551E+01  0.36916513826E+02 -0.11962232407E+03  0.14855691577E+03  0.79870502993E+02 0.  0.
         -6    2    1    2    0  502  0.60295990588E+02  0.88182744174E+01 -0.29847400939E+03  0.34997875807E+03  0.17229343683E+03 0.  0.
        -24    2    5    5    0    0 -0.18796422719E+01  0.23574401922E+02 -0.26374903242E+03  0.27709894848E+03  0.81614886294E+02 0.  0.
          5    1    3    3  501    0 -0.56109038733E+02 -0.45734788243E+02 -0.59632622556E+01  0.72784239915E+02  0.47000000000E+01 0. -1.
        -13    1    4    4    0    0 -0.56524601571E+01 -0.20562652889E+02 -0.68069907277E+02  0.71332217660E+02  0.00000000000E+00 0.  1.
         14    1    4    4    0    0  0.14655083020E+01  0.57479166715E+02 -0.51552416789E+02  0.77224698107E+02  0.00000000000E+00 0. -1.
         -5    1    5    5    0  502  0.62175632860E+02 -0.14756127504E+02 -0.34724976969E+02  0.72879809591E+02  0.47000000000E+01 0.  1.
         11    1    6    6    0    0  0.36886029797E+02  0.10451287448E+01 -0.82329603906E+02  0.90221035061E+02  0.00000000000E+00 0. -1.
        -12    1    6    6    0    0 -0.38765672069E+02  0.22529273177E+02 -0.18141942852E+03  0.18687791342E+03  0.00000000000E+00 0.  1.
</event>
<event>
12    1  0.8406581E-002  0.2970279E+03  0.7818608E-02  0.1087017E+00
         21   -1    0    0  503  502  0.00000000000E+00  0.00000000000E+00  0.55470148305E+02  0.55470148305E+02  0.00000000000E+00 0.  1.
         21   -1    0    0  501  503 -0.00000000000E+00 -0.00000000000E+00 -0.18308878029E+04  0.18308878029E+04  0.00000000000E+00 0.  1.
          6    2    1    2  501    0  0.16975348975E+03 -0.16905495314E+03 -0.53479626608E+03  0.61067500489E+03  0.17181702746E+03 0.  0.
         24    2    3    3    0    0  0.37216063002E+02 -0.31171956241E+02 -0.10566868420E+03  0.14083411496E+03  0.79445899297E+02 0.  0.
         -6    2    1    2    0  502 -0.16975348975E+03  0.16905495314E+03 -0.12406213885E+04  0.12756829463E+04  0.17558395542E+03 0.  0.
        -24    2    5    5    0    0 -0.74512288619E+01  0.64449884480E+02 -0.39818748444E+03  0.41139062480E+03  0.80496366322E+02 0.  0.
          5    1    3    3  501    0  0.13253742675E+03 -0.13788299690E+03 -0.42912758187E+03  0.46984088993E+03  0.47000000000E+01 0. -1.
        -11    1    4    4    0    0  0.45710326281E+02 -0.24968903811E+02 -0.22056513791E+02  0.56562972754E+02  0.00000000000E+00 0.  1.
         12    1    4    4    0    0 -0.84942632790E+01 -0.62030524303E+01 -0.83612170414E+02  0.84271142210E+02  0.00000000000E+00 0. -1.
         -5    1    5    5    0  502 -0.16230226089E+03  0.10460506866E+03 -0.84243390406E+03  0.86429232149E+03  0.47000000000E+01 0.  1.
         11    1    6    6    0    0  0.10866529816E+02 -0.10570487735E+02 -0.16614734111E+03  0.16683751269E+03  0.00000000000E+00 0. -1.
        -12    1    6    6    0    0 -0.18317758678E+02  0.75020372214E+02 -0.23204014332E+03  0.24455311211E+03  0.00000000000E+00 0.  1.
</event>
<event>
12    1  0.8406581E-002  0.2446968E+03  0.7818608E-02  0.1117434E+00
         21   -1    0    0  503  502  0.00000000000E+00  0.00000000000E+00  0.53760389503E+03  0.53760389503E+03  0.00000000000E+00 0. -1.
         21   -1    0    0  501  503 -0.00000000000E+00 -0.00000000000E+00 -0.23485286521E+03  0.23485286521E+03  0.00000000000E+00 0.  1.
          6    2    1    2  501    0 -0.97960962716E+02 -0.13494502469E+03 -0.13030405313E+03  0.27722852129E+03  0.17908097847E+03 0.  0.
         24    2    3    3    0    0 -0.38054334940E+02 -0.36182065238E+01 -0.79332288835E+01  0.87934448887E+02  0.78792812835E+02 0.  0.
         -6    2    1    2    0  502  0.97960962716E+02  0.13494502469E+03  0.43305508295E+03  0.49522823896E+03  0.17293869981E+03 0.  0.
        -24    2    5    5    0    0 -0.17043082717E+01  0.10592500600E+03  0.28947973327E+03  0.31799590907E+03  0.78101668630E+02 0.  0.
          5    1    3    3  501    0 -0.59906627776E+02 -0.13132681816E+03 -0.12237082424E+03  0.18929407240E+03  0.47000000000E+01 0. -1.
        -11    1    4    4    0    0 -0.46102256534E+02  0.23176401667E+02 -0.22615792393E+02  0.56338598823E+02  0.00000000000E+00 0.  1.
         12    1    4    4    0    0  0.80479215946E+01 -0.26794608191E+02  0.14682563509E+02  0.31595850064E+02  0.00000000000E+00 0. -1.
         -5    1    5    5    0  502  0.99665270988E+02  0.29020018684E+02  0.14357534967E+03  0.17723232989E+03  0.47000000000E+01 0.  1.
         11    1    6    6    0    0  0.22541727874E+01  0.90769982009E+02  0.28833181164E+03  0.30229043077E+03  0.00000000000E+00 0. -1.
        -12    1    6    6    0    0 -0.39584810591E+01  0.15155023993E+02  0.11479216330E+01  0.15705478299E+02  0.00000000000E+00 0.  1.
</event>
<event>
12    1  0.8406581E-002  0.2055607E+03  0.7818608E-02  0.1147838E+00
         21   -1    0    0  503  502  0.00000000000E+00  0.00000000000E+00  0.19368675776E+03  0.19368675776E+03  0.00000000000E+00 0. -1.
         21   -1    0    0  501  503 -0.00000000000E+00 -0.00000000000E+00 -0.32129234321E+03  0.32129234321E+03  0.00000000000E+00 0.  1.
          6    2    1    2  501    0  0.79289177958E+02  0.11422435141E+00 -0.22015109096E+03  0.30120042667E+03  0.18965338750E+03 0.  0.
         24    2    3    3    0    0 -0.53390788039E+01  0.47182677596E+02 -0.16049099248E+03  0.18736370815E+03  0.84220482297E+02 0.  0.
         -6    2    1    2    0  502 -0.79289177958E+02 -0.11422435141E+00  0.92545505500E+02  0.21377867430E+03  0.17564129414E+03 0.  0.
        -24    2    5    5    0    0 -0.93361902005E+02 -0.50176417409E+02  0.93399046556E+02  0.16155719148E+03  0.78378738254E+02 0.  0.
          5    1    3    3  501    0  0.84628256762E+02 -0.47068453244E+02 -0.59660098474E+02  0.11383671852E+03  0.47000000000E+01 0. -1.
        -13    1    4    4    0    0  0.66612980664E+01 -0.16581603945E+02 -0.89178511695E+02  0.90951247542E+02  0.00000000000E+00 0.  1.
         14    1    4    4    0    0 -0.12000376870E+02  0.63764281541E+02 -0.71312480786E+02  0.96412460612E+02  0.00000000000E+00 0. -1.
         -5    1    5    5    0  502  0.14072724047E+02  0.50062193058E+02 -0.85354105600E+00  0.52221482823E+02  0.47000000000E+01 0.  1.
         13    1    6    6    0    0 -0.12834562818E+02  0.20826341192E+02  0.17454459043E+02  0.30051965504E+02  0.00000000000E+00 0. -1.
        -14    1    6    6    0    0 -0.80527339188E+02 -0.71002758602E+02  0.75944587513E+02  0.13150522597E+03  0.00000000000E+00 0.  1.
</event>
<event>
12    1  0.8406581E-002  0.2532953E+03  0.7818608E-02  0.1112016E+00
         21   -1    0    0  501  502  0.00000000000E+00  0.00000000000E+00  0.16897699114E+04  0.16897699114E+04  0.00000000000E+00 0.  1.
         21   -1    0    0  502  503 -0.00000000000E+00 -0.00000000000E+00 -0.37252147569E+02  0.37252147569E+02  0.00000000000E+00 0. -1.
         -6    2    1    2    0  503 -0.27614360774E+02 -0.17856099315E+03  0.85459898557E+03  0.89134614123E+03  0.17751601660E+03 0.  0.
        -24    2    3    3    0    0 -0.25821736365E+01 -0.17937682865E+03  0.52179547559E+03  0.55756845738E+03  0.80183240398E+02 0.  0.
          6    2    1    2  501    0  0.27614360774E+02  0.17856099315E+03  0.79791877821E+03  0.83567591769E+03  0.17039155376E+03 0.  0.
         24    2    5    5    0    0 -0.24815466663E+02  0.17651699218E+03  0.61370196438E+03  0.64407479754E+03  0.80175980384E+02 0.  0.
          5    1    5    5  501    0  0.52429827436E+02  0.20440009721E+01  0.18421681383E+03  0.19160112015E+03  0.47000000000E+01 0. -1.
        -11    1    6    6    0    0  0.12818490168E+02  0.14373392195E+03  0.48580810637E+03  0.50678720409E+03  0.00000000000E+00 0.  1.
         12    1    6    6    0    0 -0.37633956830E+02  0.32783070223E+02  0.12789385800E+03  0.13728759345E+03  0.00000000000E+00 0. -1.
         -5    1    3    3    0  503 -0.25032187137E+02  0.81583550142E+00  0.33280350998E+03  0.33377768385E+03  0.47000000000E+01 0.  1.
         11    1    4    4    0    0  0.33975771844E+02 -0.10121638303E+03  0.33930533131E+03  0.35570664475E+03  0.00000000000E+00 0. -1.
        -12    1    4    4    0    0 -0.36557945481E+02 -0.78160445620E+02  0.18249014428E+03  0.20186181262E+03  0.00000000000E+00 0.  1.
</event>
<event>
12    1  0.8406581E-002  0.2454253E+03  0.7818608E-02  0.1116242E+00
         21   -1    0    0  501  502  0.00000000000E+00  0.00000000000E+00  0.20506791590E+03  0.20506791590E+03  0.00000000000E+00 0. -1.
         21   -1    0    0  502  503 -0.00000000000E+00 -0.00000000000E+00 -0.43665072922E+03  0.43665072922E+03  0.00000000000E+00 0. -1.
         -6    2    1    2    0  503 -0.76350760704E+02  0.15681375776E+03 -0.29940343807E+03  0.38709494242E+03  0.17256906569E+03 0.  0.
        -24    2    3    3    0    0 -0.66702539962E+02  0.53836815486E+02 -0.23947611933E+03  0.26746755284E+03  0.82719094274E+02 0.  0.
          6    2    1    2  501    0  0.76350760704E+02 -0.15681375776E+03  0.67820624756E+02  0.25462370270E+03  0.17266615056E+03 0.  0.
         24    2    5    5    0    0 -0.45658106473E+01 -0.13650921170E+03  0.24193582875E+02  0.16036249703E+03  0.80468562160E+02 0.  0.
          5    1    5    5  501    0  0.80916571351E+02 -0.20304546061E+02  0.43627041881E+02  0.94261205664E+02  0.47000000000E+01 0. -1.
        -13    1    6    6    0    0  0.70044691730E+01  0.87112546149E+01 -0.41992356120E+01  0.11940775732E+02  0.00000000000E+00 0.  1.
         14    1    6    6    0    0 -0.11570279820E+02 -0.14522046632E+03  0.28392818487E+02  0.14842172130E+03  0.00000000000E+00 0. -1.
         -5    1    3    3    0  503 -0.96482207415E+01  0.10297694228E+03 -0.59927318748E+02  0.11962738958E+03  0.47000000000E+01 0.  1.
         11    1    4    4    0    0  0.13462104062E+02  0.33900195179E+02 -0.70179566452E+02  0.79092496650E+02  0.00000000000E+00 0. -1.
        -12    1    4    4    0    0 -0.80164644024E+02  0.19936620306E+02 -0.16929655287E+03  0.18837505619E+03  0.00000000000E+00 0.  1.
</event>
<event>
12    1  0.8406581E-002  0.3665652E+03  0.7818608E-02  0.1056052E+00
         21   -1    0    0  501  502  0.00000000000E+00  0.00000000000E+00  0.16419229141E+04  0.16419229141E+04  0.00000000000E+00 0.  1.
         21   -1    0    0  502  503 -0.00000000000E+00 -0.00000000000E+00 -0.84933128427E+02  0.84933128427E+02  0.00000000000E+00 0. -1.
         -6    2    1    2    0  503  0.69813238506E+02  0.31588639918E+03  0.61173516518E+03  0.71315495353E+03  0.17237160428E+03 0.  0.
        -24    2    3    3    0    0  0.10817053620E+03  0.21710720100E+03  0.48653795962E+03  0.54906643303E+03  0.76930878701E+02 0.  0.
          6    2    1    2  501    0 -0.69813238506E+02 -0.31588639918E+03  0.94525462048E+03  0.10137010890E+04  0.17153861028E+03 0.  0.
         24    2    5    5    0    0  0.24978392834E+02 -0.19715249011E+03  0.55978911426E+03  0.59934744652E+03  0.79752647282E+02 0.  0.
          5    1    5    5  501    0 -0.94791631340E+02 -0.11873390907E+03  0.38546550622E+03  0.41435364246E+03  0.47000000000E+01 0. -1.
        -13    1    6    6    0    0 -0.19575398304E+02 -0.59249599167E+02  0.24466170448E+03  0.25249368480E+03  0.00000000000E+00 0.  1.
         14    1    6    6    0    0  0.44553791138E+02 -0.13790289094E+03  0.31512740977E+03  0.34685376173E+03  0.00000000000E+00 0. -1.
         -5    1    3    3    0  503 -0.38357297694E+02  0.98779198181E+02  0.12519720556E+03  0.16408852050E+03  0.47000000000E+01 0.  1.
         11    1    4    4    0    0  0.31334857602E+02  0.12755730159E+03  0.20103619148E+03  0.24014222614E+03  0.00000000000E+00 0. -1.
        -12    1    4    4    0    0  0.76835678598E+02  0.89549899407E+02  0.28550176814E+03  0.30892420689E+03  0.00000000000E+00 0.  1.
</event>
<event>
12    1  0.8406581E-002  0.2139729E+03  0.7818608E-02  0.1138557E+00
         21   -1    0    0  501  502  0.00000000000E+00  0.00000000000E+00  0.12500640046E+04  0.12500640046E+04  0.00000000000E+00 0.  1.
         21   -1    0    0  502  503 -0.00000000000E+00 -0.00000000000E+00 -0.45751897087E+02  0.45751897087E+02  0.00000000000E+00 0.  1.
         -6    2    1    2    0  503 -0.21936733156E+02 -0.12490859245E+03  0.89233468719E+03  0.91751139796E+03  0.17170496407E+03 0.  0.
        -24    2    3    3    0    0 -0.76036997134E+01 -0.43298363823E+02  0.19959973755E+03  0.21982273836E+03  0.80928465413E+02 0.  0.
          6    2    1    2  501    0  0.21936733156E+02  0.12490859245E+03  0.31197742031E+03  0.37830450372E+03  0.17233980975E+03 0.  0.
         24    2    5    5    0    0  0.17916437614E+02  0.27059265300E+02  0.53772753556E+02  0.10211182907E+03  0.80511577024E+02 0.  0.
          5    1    5    5  501    0  0.40202955422E+01  0.97849327145E+02  0.25820466675E+03  0.27619267465E+03  0.47000000000E+01 0. -1.
        -13    1    6    6    0    0 -0.24180064088E+02  0.16043816697E+02 -0.45206358276E+01  0.29368617635E+02  0.00000000000E+00 0.  1.
         14    1    6    6    0    0  0.42096501702E+02  0.11015448603E+02  0.58293389384E+02  0.72743211431E+02  0.00000000000E+00 0. -1.
         -5    1    3    3    0  503 -0.14333033443E+02 -0.81610228623E+02  0.69273494965E+03  0.69768865959E+03  0.47000000000E+01 0.  1.
         11    1    4    4    0    0 -0.46279897649E+01 -0.63598412813E+02  0.10357355043E+03  0.12162917721E+03  0.00000000000E+00 0. -1.
        -12    1    4    4    0    0 -0.29757099485E+01  0.20300048990E+02  0.96026187122E+02  0.98193561152E+02  0.00000000000E+00 0.  1.
</event>
<event>
12    1  0.8406581E-002  0.2023063E+03  0.7818608E-02  0.1150506E+00
         21   -1    0    0  503  502  0.00000000000E+00  0.00000000000E+00  0.29768756277E+02  0.29768756277E+02  0.00000000000E+00 0.  1.
         21   -1    0    0  501  503 -0.00000000000E+00 -0.00000000000E+00 -0.15292020504E+04  0.15292020504E+04  0.00000000000E+00 0.  1.
          6    2    1    2  501    0 -0.23316605132E+02 -0.77232380884E+02 -0.10370312134E+04  0.10542495691E+04  0.17175538299E+03 0.  0.
         24    2    3    3    0    0  0.43256050650E+02 -0.67364959307E+02 -0.79642893695E+03  0.80436793722E+03  0.79370039349E+02 0.  0.
         -6    2    1    2    0  502  0.23316605132E+02  0.77232380884E+02 -0.46240208067E+03  0.50472123756E+03  0.18552449622E+03 0.  0.
        -24    2    5    5    0    0  0.44046060547E+02 -0.14994378646E+02 -0.32366486376E+03  0.33677603562E+03  0.80587016926E+02 0.  0.
          5    1    3    3  501    0 -0.66572655783E+02 -0.98674215770E+01 -0.24060227646E+03  0.24988163187E+03  0.47000000000E+01 0. -1.
        -11    1    4    4    0    0  0.57769104004E+02 -0.54304225702E+02 -0.41907161915E+03  0.42650585024E+03  0.00000000000E+00 0.  1.
         12    1    4    4    0    0 -0.14513053354E+02 -0.13060733606E+02 -0.37735731780E+03  0.37786208698E+03  0.00000000000E+00 0. -1.
         -5    1    5    5    0  502 -0.20729455415E+02  0.92226759531E+02 -0.13873721692E+03  0.16794520194E+03  0.47000000000E+01 0.  1.
         11    1    6    6    0    0  0.57951504868E+02  0.12709233331E+02 -0.24821270284E+03  0.25520471661E+03  0.00000000000E+00 0. -1.
        -12    1    6    6    0    0 -0.13905444320E+02 -0.27703611978E+02 -0.75452160919E+02  0.81571319014E+02  0.00000000000E+00 0.  1.
</event>
<event>
12    1  0.8406581E-002  0.1892663E+03  0.7818608E-02  0.1159268E+00
         21   -1    0    0  503  502  0.00000000000E+00  0.00000000000E+00  0.17004786521E+03  0.17004786521E+03  0.00000000000E+00 0. -1.
         21   -1    0    0  501  503 -0.00000000000E+00 -0.00000000000E+00 -0.28233335460E+03  0.28233335460E+03  0.00000000000E+00 0. -1.
          6    2    1    2  501    0  0.70627359506E+02  0.38993034951E+02 -0.17059637761E+03  0.25433605463E+03  0.17051399926E+03 0.  0.
         24    2    3    3    0    0  0.39562078831E+02  0.86257199532E+01 -0.12608711083E+02  0.90417116556E+02  0.79854331410E+02 0.  0.
         -6    2    1    2    0  502 -0.70627359506E+02 -0.38993034951E+02  0.58310888225E+02  0.19804516518E+03  0.17121053438E+03 0.  0.
        -24    2    5    5    0    0  0.78579346248E+01  0.27433841832E+02  0.38209886413E+02  0.93170899379E+02  0.80040353930E+02 0.  0.
          5    1    3    3  501    0  0.31065280676E+02  0.30367314998E+02 -0.15798766653E+03  0.16391893807E+03  0.47000000000E+01 0. -1.
        -13    1    4    4    0    0  0.15927605135E+02 -0.35530990997E+02 -0.10314538153E+02  0.40280635843E+02  0.00000000000E+00 0.  1.
         14    1    4    4    0    0  0.23634473695E+02  0.44156710951E+02 -0.22941729302E+01  0.50136480713E+02  0.00000000000E+00 0. -1.
         -5    1    5    5    0  502 -0.78485294131E+02 -0.66426876784E+02  0.20101001813E+02  0.10487426580E+03  0.47000000000E+01 0.  1.
         11    1    6    6    0    0 -0.36003802353E+02  0.75445578069E+01  0.15340178344E+02  0.39856181553E+02  0.00000000000E+00 0. -1.
        -12    1    6    6    0    0  0.43861736978E+02  0.19889284025E+02  0.22869708069E+02  0.53314717826E+02  0.00000000000E+00 0.  1.
</event>
<event>
12    1  0.8406581E-002  0.1839457E+03  0.7818608E-02  0.1167554E+00
         21   -1    0    0  501  502  0.00000000000E+00  0.00000000000E+00  0.17039668012E+04  0.17039668012E+04  0.00000000000E+00 0. -1.
         21   -1    0    0  502  503 -0.00000000000E+00 -0.00000000000E+00 -0.21121630904E+02  0.21121630904E+02  0.00000000000E+00 0. -1.
         -6    2    1    2    0  503  0.32196152035E+02 -0.79630629566E+01  0.49916536803E+03  0.52720117416E+03  0.16635808009E+03 0.  0.
        -24    2    3    3    0    0 -0.54747394059E+01  0.47763317732E+02  0.36759835779E+03  0.37936175536E+03  0.80470376442E+02 0.  0.
          6    2    1    2  501    0 -0.32196152035E+02  0.79630629566E+01  0.11836798023E+04  0.11978872580E+04  0.18093094232E+03 0.  0.
         24    2    5    5    0    0  0.28230523744E+02  0.53910230208E+02  0.54765041816E+03  0.55732657170E+03  0.83598155599E+02 0.  0.
          5    1    5    5  501    0 -0.60426675779E+02 -0.45947167251E+02  0.63602938412E+03  0.64056068627E+03  0.47000000000E+01 0. -1.
        -13    1    6    6    0    0  0.18270166361E+02  0.67308522983E+02  0.25999204744E+03  0.26918413953E+03  0.00000000000E+00 0.  1.
         14    1    6    6    0    0  0.99603573827E+01 -0.13398292775E+02  0.28765837073E+03  0.28814243217E+03  0.00000000000E+00 0. -1.
         -5    1    3    3    0  503  0.37670891441E+02 -0.55726380689E+02  0.13156701024E+03  0.14783941880E+03  0.47000000000E+01 0.  1.
         13    1    4    4    0    0  0.36230599295E+02  0.12260971156E+02  0.12857467396E+03  0.13414333574E+03  0.00000000000E+00 0. -1.
        -14    1    4    4    0    0 -0.41705338700E+02  0.35502346576E+02  0.23902368383E+03  0.24521841962E+03  0.00000000000E+00 0.  1.
</event>
<event>
12    1  0.8406581E-002  0.3017647E+03  0.7818608E-02  0.1084397E+00
         21   -1    0    0  501  502  0.00000000000E+00  0.00000000000E+00  0.51245800202E+02  0.51245800202E+02  0.00000000000E+00 0.  1.
         21   -1    0    0  502  503 -0.00000000000E+00 -0.00000000000E+00 -0.19032139112E+04  0.19032139112E+04  0.00000000000E+00 0. -1.
         -6    2    1    2    0  503  0.24140213651E+03  0.53964268618E+02 -0.11789238473E+04  0.12168619066E+04  0.17234943661E+03 0.  0.
        -24    2    3    3    0    0  0.89927679633E+02  0.77527557998E+02 -0.68120627307E+03  0.69605041158E+03  0.79666047804E+02 0.  0.
          6    2    1    2  501    0 -0.24140213651E+03 -0.53964268618E+02 -0.67304426376E+03  0.73759780482E+03  0.17284330157E+03 0.  0.
         24    2    5    5    0    0 -0.25618356896E+03 -0.67355183873E+02 -0.65159786050E+03  0.70793561392E+03  0.80164330250E+02 0.  0.
          5    1    5    5  501    0  0.14781432446E+02  0.13390915256E+02 -0.21446403260E+02  0.29662190906E+02  0.47000000000E+01 0. -1.
        -13    1    6    6    0    0 -0.43179358381E+02  0.15505296723E+02 -0.14693108611E+03  0.15392730519E+03  0.00000000000E+00 0.  1.
         14    1    6    6    0    0 -0.21300421058E+03 -0.82860480596E+02 -0.50466677439E+03  0.55400830873E+03  0.00000000000E+00 0. -1.
         -5    1    3    3    0  503  0.15147445688E+03 -0.23563289380E+02 -0.49771757421E+03  0.52081149504E+03  0.47000000000E+01 0.  1.
         13    1    4    4    0    0  0.97868781687E+02  0.56577534146E+02 -0.63135788775E+03  0.64139854866E+03  0.00000000000E+00 0. -1.
        -14    1    4    4    0    0 -0.79411020541E+01  0.20950023852E+02 -0.49848385320E+02  0.54651862916E+02  0.00000000000E+00 0.  1.
</event>
<event>
12    1  0.8406581E-002  0.2241612E+03  0.7818608E-02  0.1132355E+00
         21   -1    0    0  501  502  0.00000000000E+00  0.00000000000E+00  0.22957698953E+03  0.22957698953E+03  0.00000000000E+00 0.  1.
         21   -1    0    0  502  503 -0.00000000000E+00 -0.00000000000E+00 -0.78327756446E+03  0.78327756446E+03  0.00000000000E+00 0. -1.
         -6    2    1    2    0  503 -0.63335702356E+02 -0.12772240352E+03 -0.71115783365E+03  0.74564985541E+03  0.17298502522E+03 0.  0.
        -24    2    3    3    0    0  0.19357841262E+02 -0.10755755350E+03 -0.36891403743E+03  0.39294920417E+03  0.79800731258E+02 0.  0.
          6    2    1    2  501    0  0.63335702356E+02  0.12772240352E+03  0.15745725871E+03  0.26720469858E+03  0.16211458624E+03 0.  0.
         24    2    5    5    0    0  0.13498403855E+02  0.11592261956E+03  0.16331772426E+03  0.21544152365E+03  0.78243916188E+02 0.  0.
          5    1    5    5  501    0  0.49837298501E+02  0.11799783959E+02 -0.58604655472E+01  0.51763174939E+02  0.47000000000E+01 0. -1.
        -11    1    6    6    0    0  0.38378321455E+02  0.60210667515E+02  0.51420486611E+02  0.87990263573E+02  0.00000000000E+00 0.  1.
         12    1    6    6    0    0 -0.24879917600E+02  0.55711952046E+02  0.11189723765E+03  0.12745126007E+03  0.00000000000E+00 0. -1.
         -5    1    3    3    0  503 -0.82693543618E+02 -0.20164850015E+02 -0.34224379622E+03  0.35270065124E+03  0.47000000000E+01 0.  1.
         11    1    4    4    0    0 -0.61221296194E+01 -0.45324368552E+02 -0.26672962297E+03  0.27062237644E+03  0.00000000000E+00 0. -1.
        -12    1    4    4    0    0  0.25479970881E+02 -0.62233184953E+02 -0.10218441446E+03  0.12232682773E+03  0.00000000000E+00 0.  1.
</event>
<event>
12    1  0.8406581E-002  0.1830258E+03  0.7818608E-02  0.1165578E+00
         21   -1    0    0  501  502  0.00000000000E+00  0.00000000000E+00  0.95612527990E+02  0.95612527990E+02  0.00000000000E+00 0. -1.
         21   -1    0    0  502  503 -0.00000000000E+00 -0.00000000000E+00 -0.57424760167E+03  0.57424760167E+03  0.00000000000E+00 0. -1.
         -6    2    1    2    0  503  0.55614871537E+02 -0.11865092301E+02 -0.45205141816E+03  0.48769757568E+03  0.17396737141E+03 0.  0.
        -24    2    3    3    0    0  0.86186738448E+02 -0.11488884726E+02 -0.43829628470E+03  0.45384385691E+03  0.79438434733E+02 0.  0.
          6    2    1    2  501    0 -0.55614871537E+02  0.11865092301E+02 -0.26583655517E+02  0.18216255397E+03  0.17100500279E+03 0.  0.
         24    2    5    5    0    0  0.19435114672E+02  0.55915897547E+02 -0.77879991280E+01  0.93009087570E+02  0.71314277388E+02 0.  0.
          5    1    5    5  501    0 -0.75049986209E+02 -0.44050805246E+02 -0.18795656389E+02  0.89153466404E+02  0.47000000000E+01 0. -1.
        -13    1    6    6    0    0  0.17319568338E+02  0.11390102351E+02 -0.35076285462E+02  0.40743682710E+02  0.00000000000E+00 0.  1.
         14    1    6    6    0    0  0.21155463334E+01  0.44525795195E+02  0.27288286334E+02  0.52265404859E+02  0.00000000000E+00 0. -1.
         -5    1    3    3    0  503 -0.30571866910E+02 -0.37620757521E+00 -0.13755133459E+02  0.33853718776E+02  0.47000000000E+01 0.  1.
         13    1    4    4    0    0 -0.12296358265E+02  0.11208455076E+02 -0.67621603876E+02  0.69638431936E+02  0.00000000000E+00 0. -1.
        -14    1    4    4    0    0  0.98483096713E+02 -0.22697339802E+02 -0.37067468082E+03  0.38420542497E+03  0.00000000000E+00 0.  1.
</event>
<event>
12    1  0.8406581E-002  0.2393414E+03  0.7818608E-02  0.1120366E+00
         21   -1    0    0  503  502  0.00000000000E+00  0.00000000000E+00  0.54113662799E+02  0.54113662799E+02  0.00000000000E+00 0. -1.
         21   -1    0    0  501  503 -0.00000000000E+00 -0.00000000000E+00 -0.10811481259E+04  0.10811481259E+04  0.00000000000E+00 0.  1.
          6    2    1    2  501    0 -0.10327017981E+03  0.12906779198E+03 -0.60084953101E+03  0.64646950733E+03  0.17198674372E+03 0.  0.
         24    2    3    3    0    0 -0.15665975717E+02  0.12716122005E+03 -0.37870465830E+03  0.40762109083E+03  0.79513123357E+02 0.  0.
         -6    2    1    2    0  502  0.10327017981E+03 -0.12906779198E+03 -0.42618493205E+03  0.48879228134E+03  0.17309267177E+03 0.  0.
        -24    2    5    5    0    0  0.36758068342E+02 -0.27761983142E+02 -0.91211295893E+02  0.13253934479E+03  0.84411457293E+02 0.  0.
          5    1    3    3  501    0 -0.87604204098E+02  0.19065719285E+01 -0.22214487271E+03  0.23884841650E+03  0.47000000000E+01 0. -1.
        -13    1    4    4    0    0 -0.20688080191E+02 -0.70322912810E+00 -0.32581932068E+02  0.38601470056E+02  0.00000000000E+00 0.  1.
         14    1    4    4    0    0  0.50221044740E+01  0.12786444918E+03 -0.34612272624E+03  0.36901962077E+03  0.00000000000E+00 0. -1.
         -5    1    5    5    0  502  0.66512111473E+02 -0.10130580884E+03 -0.33497363616E+03  0.35625293655E+03  0.47000000000E+01 0.  1.
         13    1    6    6    0    0 -0.21620551895E+02  0.12724295676E+02 -0.22324962249E+02  0.33582136682E+02  0.00000000000E+00 0. -1.
        -14    1    6    6    0    0  0.58378620238E+02 -0.40486278818E+02 -0.68886333643E+02  0.98957208107E+02  0.00000000000E+00 0.  1.
</event>
<event>
12    1  0.8406581E-002  0.2096219E+03  0.7818608E-02  0.1142051E+00
         21   -1    0    0  501  502  0.00000000000E+00  0.00000000000E+00  0.45278784933E+03  0.45278784933E+03  0.00000000000E+00 0. -1.
         21   -1    0    0  502  503 -0.00000000000E+00 -0.00000000000E+00 -0.98336602891E+02  0.98336602891E+02  0.00000000000E+00 0. -1.
         -6    2    1    2    0  503  0.11958364001E+03 -0.83853026926E+01  0.21407032598E+03  0.29961217707E+03  0.17196160014E+03 0.  0.
        -24    2    3    3    0    0  0.29201068948E+02  0.42836131071E+02  0.15043373419E+03  0.17769273546E+03  0.79099704786E+02 0.  0.
          6    2    1    2  501    0 -0.11958364001E+03  0.83853026926E+01  0.14038092046E+03  0.25151227515E+03  0.17082465122E+03 0.  0.
         24    2    5    5    0    0 -0.19827818965E+02 -0.51477796681E+00  0.12326985043E+03  0.14980035851E+03  0.82772483258E+02 0.  0.
          5    1    5    5  501    0 -0.99755821047E+02  0.89000806594E+01  0.17111070028E+02  0.10171191664E+03  0.47000000000E+01 0. -1.
        -13    1    6    6    0    0 -0.34180584072E+02  0.27360852750E+02  0.10439327942E+03  0.11320285058E+03  0.00000000000E+00 0.  1.
         14    1    6    6    0    0  0.14352765108E+02 -0.27875630717E+02  0.18876571010E+02  0.36597507937E+02  0.00000000000E+00 0. -1.
         -5    1    3    3    0  503  0.90382571064E+02 -0.51221433764E+02  0.63636591783E+02  0.12191944161E+03  0.47000000000E+01 0.  1.
         11    1    4    4    0    0  0.49616794138E+02  0.34677644083E+02  0.62329879804E+02  0.86887163472E+02  0.00000000000E+00 0. -1.
        -12    1    4    4    0    0 -0.20415725190E+02  0.81584869878E+01  0.88103854390E+02  0.90805571984E+02  0.00000000000E+00 0.  1.
</event>
<event>
12    1  0.8406581E-002  0.2388464E+03  0.7818608E-02  0.1122959E+00
         21   -1    0    0  501  502  0.00000000000E+00  0.00000000000E+00  0.20675211041E+03  0.20675211041E+03  0.00000000000E+00 0. -1.
         21   -1    0    0  502  503 -0.00000000000E+00 -0.00000000000E+00 -0.29524287638E+03  0.29524287638E+03  0.00000000000E+00 0. -1.
         -6    2    1    2    0  503  0.10965331154E+03 -0.97891082728E+02 -0.13190023518E+03  0.27284662903E+03  0.18825806257E+03 0.  0.
        -24    2    3    3    0    0  0.62220360864E+02 -0.14066955108E+03 -0.80712002076E+02  0.19085756041E+03  0.79075186872E+02 0.  0.
          6    2    1    2  501    0 -0.10965331154E+03  0.97891082728E+02  0.43409469218E+02  0.22914835777E+03  0.17034692554E+03 0.  0.
         24    2    5    5    0    0  0.62039095183E+01  0.27871107716E+02  0.38899185723E+02  0.93619300999E+02  0.80225555348E+02 0.  0.
          5    1    5    5  501    0 -0.11585722106E+03  0.70019975011E+02  0.45102834954E+01  0.13552905677E+03  0.47000000000E+01 0. -1.
        -11    1    6    6    0    0  0.72755530120E+01  0.18111978400E+02  0.63871003942E+02  0.66786844346E+02  0.00000000000E+00 0.  1.
         12    1    6    6    0    0 -0.10716434937E+01  0.97591293169E+01 -0.24971818220E+02  0.26832456652E+02  0.00000000000E+00 0. -1.
         -5    1    3    3    0  503  0.47432950674E+02  0.42778468353E+02 -0.51188233106E+02  0.81989068617E+02  0.47000000000E+01 0.  1.
         13    1    4    4    0    0  0.51788937603E+02 -0.78363494312E+02 -0.86144461699E+02  0.12745116547E+03  0.00000000000E+00 0. -1.
        -14    1    4    4    0    0  0.10431423261E+02 -0.62306056768E+02  0.54324596230E+01  0.63406394936E+02  0.00000000000E+00 0.  1.
</event>
<event>
12    1  0.8406581E-002  0.2700238E+03  0.7818608E-02  0.1101433E+00
         21   -1    0    0  503  502  0.00000000000E+00  0.00000000000E+00  0.93323491596E+02  0.93323491596E+02  0.00000000000E+00 0. -1.
         21   -1    0    0  501  503 -0.00000000000E+00 -0.00000000000E+00 -0.77820014247E+03  0.77820014247E+03  0.00000000000E+00 0. -1.
          6    2    1    2  501    0  0.48896363985E+02 -0.20076385223E+03 -0.35147976031E+03  0.44322779855E+03  0.17382715762E+03 0.  0.
         24    2    3    3    0    0 -0.23580855265E+02 -0.17219568478E+03 -0.26199671131E+03  0.32449114220E+03  0.80279599157E+02 0.  0.
         -6    2    1    2    0  502 -0.48896363985E+02  0.20076385223E+03 -0.33339689056E+03  0.42829583551E+03  0.17200830592E+03 0.  0.
        -24    2    5    5    0    0 -0.60365423270E+02  0.15280998670E+03 -0.33169878563E+03  0.37873692006E+03  0.80141711147E+02 0.  0.
          5    1    3    3  501    0  0.72477219250E+02 -0.28568167458E+02 -0.89483049004E+02  0.11873665635E+03  0.47000000000E+01 0. -1.
        -13    1    4    4    0    0 -0.41815884802E+02 -0.40864931836E+02 -0.70851428198E+02  0.91860958810E+02  0.00000000000E+00 0.  1.
         14    1    4    4    0    0  0.18235029537E+02 -0.13133075294E+03 -0.19114528311E+03  0.23263018339E+03  0.00000000000E+00 0. -1.
         -5    1    5    5    0  502  0.11469059285E+02  0.47953865535E+02 -0.16981049317E+01  0.49558915454E+02  0.47000000000E+01 0.  1.
         11    1    6    6    0    0  0.12668974744E+01  0.90995739987E+02 -0.12733972069E+03  0.15651592312E+03  0.00000000000E+00 0. -1.
        -12    1    6    6    0    0 -0.61632320745E+02  0.61814246713E+02 -0.20435906494E+03  0.22222099694E+03  0.00000000000E+00 0.  1.
</event>
<event>
12    1  0.8406581E-002  0.2224422E+03  0.7818608E-02  0.1132332E+00
         21   -1    0    0  501  502  0.00000000000E+00  0.00000000000E+00  0.15694396712E+03  0.15694396712E+03  0.00000000000E+00 0.  1.
         21   -1    0    0  502  503 -0.00000000000E+00 -0.00000000000E+00 -0.34803286601E+03  0.34803286601E+03  0.00000000000E+00 0.  1.
         -6    2    1    2    0  503  0.10114074792E+03 -0.98213466863E+02 -0.17557175766E+03  0.28338310438E+03  0.17206163371E+03 0.  0.
        -24    2    3    3    0    0 -0.12914926832E+02 -0.51135787992E+02 -0.10071987685E+03  0.13898816384E+03  0.79947182230E+02 0.  0.
          6    2    1    2  501    0 -0.10114074792E+03  0.98213466863E+02 -0.15517141222E+02  0.22159372875E+03  0.17025763709E+03 0.  0.
         24    2    5    5    0    0 -0.13881125686E+03  0.82082329910E+02 -0.11702365858E+02  0.18017002377E+03  0.79487220247E+02 0.  0.
          5    1    5    5  501    0  0.37670508945E+02  0.16131136952E+02 -0.38147753631E+01  0.41423704984E+02  0.47000000000E+01 0. -1.
        -13    1    6    6    0    0 -0.26986023209E+02  0.59067377839E+02  0.32764104546E+01  0.65022576378E+02  0.00000000000E+00 0.  1.
         14    1    6    6    0    0 -0.11182523365E+03  0.23014952071E+02 -0.14978776313E+02  0.11514744739E+03  0.00000000000E+00 0. -1.
         -5    1    3    3    0  503  0.11405567475E+03 -0.47077678870E+02 -0.74851880812E+02  0.14439494053E+03  0.47000000000E+01 0.  1.
         11    1    4    4    0    0  0.31401514066E+01 -0.55846555396E+01  0.13518347410E+02  0.14959767547E+02  0.00000000000E+00 0. -1.
        -12    1    4    4    0    0 -0.16055078239E+02 -0.45551132453E+02 -0.11423822426E+03  0.12402839630E+03  0.00000000000E+00 0.  1.
</event>
<event>
12    1  0.8406581E-002  0.2244624E+03  0.7818608E-02  0.1132633E+00
         21   -1    0    0  501  502  0.00000000000E+00  0.00000000000E+00  0.16842806135E+03  0.16842806135E+03  0.00000000000E+00 0. -1.
         21   -1    0    0  502  503 -0.00000000000E+00 -0.00000000000E+00 -0.28603528977E+03  0.28603528977E+03  0.00000000000E+00 0. -1.
         -6    2    1    2    0  503 -0.96895909769E+02  0.81397112385E+02 -0.45213141134E+02  0.22897077121E+03  0.18538899294E+03 0.  0.
        -24    2    3    3    0    0 -0.12309898449E+03  0.16116123468E+02 -0.11571356682E+02  0.15085503464E+03  0.84913224903E+02 0.  0.
          6    2    1    2  501    0  0.96895909769E+02 -0.81397112385E+02 -0.72394087287E+02  0.22549257991E+03  0.17202236043E+03 0.  0.
         24    2    5    5    0    0  0.13826469180E+02 -0.41134962585E+02 -0.93033454461E+02  0.13078436409E+03  0.81031289299E+02 0.  0.
          5    1    5    5  501    0  0.83069440589E+02 -0.40262149800E+02  0.20639367174E+02  0.94708215819E+02  0.47000000000E+01 0. -1.
        -11    1    6    6    0    0 -0.20619159221E+02 -0.12450663430E+02 -0.80808824207E+02  0.84322208323E+02  0.00000000000E+00 0.  1.
         12    1    6    6    0    0  0.34445628401E+02 -0.28684299155E+02 -0.12224630254E+02  0.46462155770E+02  0.00000000000E+00 0. -1.
         -5    1    3    3    0  503  0.26203074717E+02  0.65280988917E+02 -0.33641784452E+02  0.78115736569E+02  0.47000000000E+01 0.  1.
         11    1    4    4    0    0 -0.76538611765E+02  0.39457920019E+02  0.22015913227E+02  0.88880745825E+02  0.00000000000E+00 0. -1.
        -12    1    4    4    0    0 -0.46560372722E+02 -0.23341796551E+02 -0.33587269909E+02  0.61974288815E+02  0.00000000000E+00 0.  1.
</event>
<event>
12    1  0.8406581E-002  0.2043733E+03  0.7818608E-02  0.1146355E+00
         21   -1    0    0  501  502  0.00000000000E+00  0.00000000000E+00  0.24422865216E+03  0.24422865216E+03  0.00000000000E+00 0.  1.
         21   -1    0    0  502  503 -0.00000000000E+00 -0.00000000000E+00 -0.18415759798E+03  0.18415759798E+03  0.00000000000E+00 0. -1.
         -6    2    1    2    0  503  0.98130882137E+01  0.10858479122E+03 -0.29292531048E+02  0.20646180876E+03  0.17286258275E+03 0.  0.
        -24    2    3    3    0    0 -0.24340713331E+02 -0.23397493962E+01 -0.34126109099E+02  0.90202661389E+02  0.79837234713E+02 0.  0.
          6    2    1    2  501    0 -0.98130882137E+01 -0.10858479122E+03  0.89363585225E+02  0.22192444138E+03  0.17139910658E+03 0.  0.
         24    2    5    5    0    0  0.47181998770E+02 -0.94729567606E+02  0.19104754835E+02  0.13027947202E+03  0.73538542179E+02 0.  0.
          5    1    5    5  501    0 -0.56995086984E+02 -0.13855223609E+02  0.70258830390E+02  0.91644969362E+02  0.47000000000E+01 0. -1.
        -13    1    6    6    0    0  0.36665284120E+01 -0.83858816872E+02  0.14625966417E+02  0.85203658908E+02  0.00000000000E+00 0.  1.
         14    1    6    6    0    0  0.43515470358E+02 -0.10870750734E+02  0.44787884182E+01  0.45075813112E+02  0.00000000000E+00 0. -1.
         -5    1    3    3    0  503  0.34153801545E+02  0.11092454061E+03  0.48335780512E+01  0.11625914737E+03  0.47000000000E+01 0.  1.
         11    1    4    4    0    0  0.10943057139E+02 -0.18929862143E+02 -0.44737581258E+02  0.49794993294E+02  0.00000000000E+00 0. -1.
        -12    1    4    4    0    0 -0.35283770470E+02  0.16590112747E+02  0.10611472159E+02  0.40407668095E+02  0.00000000000E+00 0.  1.
</event>
<event>
12    1  0.8406581E-002  0.2089976E+03  0.7818608E-02  0.1147532E+00
         21   -1    0    0  503  502  0.00000000000E+00  0.00000000000E+00  0.80645581125E+02  0.80645581125E+02  0.00000000000E+00 0. -1.
         21   -1    0    0  501  503 -0.00000000000E+00 -0.00000000000E+00 -0.48973388611E+03  0.48973388611E+03  0.00000000000E+00 0. -1.
          6    2    1    2  501    0  0.88211003052E+02 -0.13818172266E+02 -0.23127151137E+03  0.29597317721E+03  0.16168329138E+03 0.  0.
         24    2    3    3    0    0 -0.84267316044E+01  0.15182274284E+02 -0.79042263169E+02  0.11328297039E+03  0.79270680302E+02 0.  0.
         -6    2    1    2    0  502 -0.88211003052E+02  0.13818172266E+02 -0.17781679362E+03  0.27440629003E+03  0.18896527980E+03 0.  0.
        -24    2    5    5    0    0 -0.11309097539E+03  0.34628729805E+02 -0.64815447182E+02  0.15674794300E+03  0.79875889969E+02 0.  0.
          5    1    3    3  501    0  0.96637734656E+02 -0.29000446550E+02 -0.15222924820E+03  0.18269020682E+03  0.47000000000E+01 0. -1.
        -13    1    4    4    0    0  0.13181828663E+02 -0.29046392260E+02 -0.32528169674E+02  0.45558043555E+02  0.00000000000E+00 0.  1.
         14    1    4    4    0    0 -0.21608560267E+02  0.44228666544E+02 -0.46514093496E+02  0.67724926835E+02  0.00000000000E+00 0. -1.
         -5    1    5    5    0  502  0.24879972342E+02 -0.20810557539E+02 -0.11300134644E+03  0.11765834703E+03  0.47000000000E+01 0.  1.
         13    1    6    6    0    0 -0.63486063735E+02 -0.18577295270E+02 -0.48962223627E+02  0.82297603432E+02  0.00000000000E+00 0. -1.
        -14    1    6    6    0    0 -0.49604911659E+02  0.53206025075E+02 -0.15853223555E+02  0.74450339570E+02  0.00000000000E+00 0.  1.
</event>
<event>
12    1  0.8406581E-002  0.1852571E+03  0.7818608E-02  0.1163222E+00
         21   -1    0    0  503  502  0.00000000000E+00  0.00000000000E+00  0.32980462446E+02  0.32980462446E+02  0.00000000000E+00 0. -1.
         21   -1    0    0  501  503 -0.00000000000E+00 -0.00000000000E+00 -0.10350201790E+04  0.10350201790E+04  0.00000000000E+00 0. -1.
          6    2    1    2  501    0  0.16461495310E+01  0.63823122139E+02 -0.46916201746E+03  0.50441369889E+03  0.17390825244E+03 0.  0.
         24    2    3    3    0    0 -0.93915049561E+01  0.98628372945E+02 -0.23662533058E+03  0.26898082938E+03  0.80891181129E+02 0.  0.
         -6    2    1    2    0  502 -0.16461495310E+01 -0.63823122139E+02 -0.53287769914E+03  0.56358694260E+03  0.17203342381E+03 0.  0.
        -24    2    5    5    0    0 -0.39876411939E+02  0.98156388796E+01 -0.36973035726E+03  0.38049307255E+03  0.79924753281E+02 0.  0.
          5    1    3    3  501    0  0.11037654487E+02 -0.34805250806E+02 -0.23253668688E+03  0.23543286951E+03  0.47000000000E+01 0. -1.
        -13    1    4    4    0    0 -0.33521811005E+02  0.86203080611E+01 -0.68992762761E+02  0.77188229915E+02  0.00000000000E+00 0.  1.
         14    1    4    4    0    0  0.24130306049E+02  0.90008064884E+02 -0.16763256782E+03  0.19179259946E+03  0.00000000000E+00 0. -1.
         -5    1    5    5    0  502  0.38230262408E+02 -0.73638761019E+02 -0.16314734188E+03  0.18309387005E+03  0.47000000000E+01 0.  1.
         11    1    6    6    0    0  0.55309797557E+00 -0.73836760471E+01  0.72651319517E+00  0.74399200776E+01  0.00000000000E+00 0. -1.
        -12    1    6    6    0    0 -0.40429509914E+02  0.17199314927E+02 -0.37045687046E+03  0.37305315248E+03  0.00000000000E+00 0.  1.
</event>
<event>
12    1  0.8406581E-002  0.2414873E+03  0.7818608E-02  0.1118849E+00
         21   -1    0    0  501  502  0.00000000000E+00  0.00000000000E+00  0.36341923129E+03  0.36341923129E+03  0.00000000000E+00 0. -1.
         21   -1    0    0  502  503 -0.00000000000E+00 -0.00000000000E+00 -0.19498720299E+03  0.19498720299E+03  0.00000000000E+00 0.  1.
         -6    2    1    2    0  503  0.16230215253E+03  0.47465695416E+02 -0.33521636963E+02  0.24380279149E+03  0.17239814394E+03 0.  0.
        -24    2    3    3    0    0  0.18832791312E+03  0.44826005932E+02 -0.46605777439E+02  0.21417859688E+03  0.78889791499E+02 0.  0.
          6    2    1    2  501    0 -0.16230215253E+03 -0.47465695416E+02  0.20195366527E+03  0.31460364279E+03  0.17203252072E+03 0.  0.
         24    2    5    5    0    0 -0.17534001834E+03 -0.77978360891E+02  0.16560140201E+03  0.26516089061E+03  0.77857091934E+02 0.  0.
          5    1    5    5  501    0  0.13037865804E+02  0.30512665475E+02  0.36352263264E+02  0.49442752184E+02  0.47000000000E+01 0. -1.
        -11    1    6    6    0    0 -0.56392201639E+02 -0.59438974217E+02  0.39972409470E+02  0.91163948908E+02  0.00000000000E+00 0.  1.
         12    1    6    6    0    0 -0.11894781670E+03 -0.18539386674E+02  0.12562899254E+03  0.17399694170E+03  0.00000000000E+00 0. -1.
         -5    1    3    3    0  503 -0.26025760581E+02  0.26396894840E+01  0.13084140476E+02  0.29624194612E+02  0.47000000000E+01 0.  1.
         11    1    4    4    0    0  0.89670475982E+02  0.51109526607E+02  0.36553045312E+01  0.10327797066E+03  0.00000000000E+00 0. -1.
        -12    1    4    4    0    0  0.98657437134E+02 -0.62835206743E+01 -0.50261081971E+02  0.11090062621E+03  0.00000000000E+00 0.  1.
</event>
<event>
12    1  0.8406581E-002  0.3712524E+03  0.7818608E-02  0.1054587E+00
         21   -1    0    0  501  502  0.00000000000E+00  0.00000000000E+00  0.18916928031E+04  0.18916928031E+04  0.00000000000E+00 0. -1.
         21   -1    0    0  502  503 -0.00000000000E+00 -0.00000000000E+00 -0.19933489458E+03  0.19933489458E+03  0.00000000000E+00 0. -1.
         -6    2    1    2    0  503 -0.29757251501E+03 -0.13119902629E+03  0.92745419889E+01  0.36748543527E+03  0.17087112633E+03 0.  0.
        -24    2    3    3    0    0 -0.18568469987E+03 -0.14043424263E+02 -0.18284846409E+02  0.20308979010E+03  0.78962660163E+02 0.  0.
          6    2    1    2  501    0  0.29757251501E+03  0.13119902629E+03  0.16830833665E+04  0.17235422624E+04  0.17906905214E+03 0.  0.
         24    2    5    5    0    0  0.11344419142E+03  0.12712043221E+02  0.45161198112E+03  0.47274800763E+03  0.80660502217E+02 0.  0.
          5    1    5    5  501    0  0.18412832359E+03  0.11848698307E+03  0.12314713854E+04  0.12507942548E+04  0.47000000000E+01 0. -1.
        -11    1    6    6    0    0  0.11269851165E+01 -0.22141576248E+02  0.73094188603E+02  0.76382458075E+02  0.00000000000E+00 0.  1.
         12    1    6    6    0    0  0.11231720631E+03  0.34853619469E+02  0.37851779252E+03  0.39636554955E+03  0.00000000000E+00 0. -1.
         -5    1    3    3    0  503 -0.11188781514E+03 -0.11715560203E+03  0.27559388398E+02  0.16439564517E+03  0.47000000000E+01 0.  1.
         13    1    4    4    0    0 -0.14553531304E+03 -0.28535047584E+02 -0.42158927555E+02  0.15418220213E+03  0.00000000000E+00 0. -1.
        -14    1    4    4    0    0 -0.40149386838E+02  0.14491623321E+02  0.23874081146E+02  0.48907587964E+02  0.00000000000E+00 0.  1.
</event>
<event>
12    1  0.8406581E-002  0.1862666E+03  0.7818608E-02  0.1162139E+00
         21   -1    0    0  503  502  0.00000000000E+00  0.00000000000E+00  0.29605976897E+03  0.29605976897E+03  0.00000000000E+00 0.  1.
         21   -1    0    0  501  503 -0.00000000000E+00 -0.00000000000E+00 -0.14218310996E+03  0.14218310996E+03  0.00000000000E+00 0.  1.
          6    2    1    2  501    0  0.26895252791E+02 -0.66531279685E+02 -0.16051272718E+02  0.18695696024E+03  0.17188803282E+03 0.  0.
         24    2    3    3    0    0  0.54013159068E+02 -0.67317607212E+02 -0.62625760261E+02  0.13285269015E+03  0.79238689030E+02 0.  0.
         -6    2    1    2    0  502 -0.26895252791E+02  0.66531279685E+02  0.16992793172E+03  0.25128591869E+03  0.17064391332E+03 0.  0.
        -24    2    5    5    0    0 -0.79603157410E+02  0.67508025068E+02  0.12986936879E+03  0.18490929852E+03  0.80196007452E+02 0.  0.
          5    1    3    3  501    0 -0.27117906277E+02  0.78632752735E+00  0.46574487543E+02  0.54104270088E+02  0.47000000000E+01 0. -1.
        -11    1    4    4    0    0  0.48298238924E+02 -0.11323580304E+02 -0.13167416041E+01  0.49625368134E+02  0.00000000000E+00 0.  1.
         12    1    4    4    0    0  0.57149201445E+01 -0.55994026908E+02 -0.61309018657E+02  0.83227322018E+02  0.00000000000E+00 0. -1.
         -5    1    5    5    0  502  0.52707904619E+02 -0.97674538302E+00  0.40058562934E+02  0.66376620170E+02  0.47000000000E+01 0.  1.
         11    1    6    6    0    0  0.84738907048E+01  0.14080780721E+02 -0.30801108642E+01  0.16720116397E+02  0.00000000000E+00 0. -1.
        -12    1    6    6    0    0 -0.88077048115E+02  0.53427244346E+02  0.13294947965E+03  0.16818918212E+03  0.00000000000E+00 0.  1.
</event>
<event>
12    1  0.8406581E-002  0.2360514E+03  0.7818608E-02  0.1122602E+00
         21   -1    0    0  503  502  0.00000000000E+00  0.00000000000E+00  0.69630518653E+02  0.69630518653E+02  0.00000000000E+00 0.  1.
         21   -1    0    0  501  503 -0.00000000000E+00 -0.00000000000E+00 -0.80083704991E+03  0.80083704991E+03  0.00000000000E+00 0.  1.
          6    2    1    2  501    0  0.12830480509E+03  0.96540883050E+02 -0.33577101139E+03  0.40993578995E+03  0.17182233465E+03 0.  0.
         24    2    3    3    0    0  0.16007408950E+03  0.74733076265E+02 -0.25328265226E+03  0.31876952831E+03  0.79076946257E+02 0.  0.
         -6    2    1    2    0  502 -0.12830480509E+03 -0.96540883050E+02 -0.39543551988E+03  0.46053177862E+03  0.17302602011E+03 0.  0.
        -24    2    5    5    0    0 -0.89798879049E+02 -0.12838890096E+03 -0.24088744015E+03  0.29803808172E+03  0.79072060602E+02 0.  0.
          5    1    3    3  501    0 -0.31769284410E+02  0.21807806786E+02 -0.82488359126E+02  0.91166261632E+02  0.47000000000E+01 0. -1.
        -11    1    4    4    0    0  0.92797564056E+02  0.80717883581E+02 -0.18921606577E+03  0.22567561713E+03  0.00000000000E+00 0.  1.
         12    1    4    4    0    0  0.67276525439E+02 -0.59848073160E+01 -0.64066586495E+02  0.93093911181E+02  0.00000000000E+00 0. -1.
         -5    1    5    5    0  502 -0.38505926036E+02  0.31848017910E+02 -0.15454807973E+03  0.16249369690E+03  0.47000000000E+01 0.  1.
         11    1    6    6    0    0  0.67376891449E+01 -0.25423337345E+02 -0.78994467912E+02  0.83257843459E+02  0.00000000000E+00 0. -1.
        -12    1    6    6    0    0 -0.96536568194E+02 -0.10296556362E+03 -0.16189297224E+03  0.21478023826E+03  0.00000000000E+00 0.  1.
</event>
<event>
12    1  0.8406581E-002  0.2174039E+03  0.7818608E-02  0.1136023E+00
         21   -1    0    0  501  502  0.00000000000E+00  0.00000000000E+00  0.19510609430E+03  0.19510609430E+03  0.00000000000E+00 0.  1.
         21   -1    0    0  502  503 -0.00000000000E+00 -0.00000000000E+00 -0.25240083856E+03  0.25240083856E+03  0.00000000000E+00 0. -1.
         -6    2    1    2    0  503  0.11431718148E+03  0.64455598310E+02 -0.75979383749E+02  0.23029831859E+03  0.17332485873E+03 0.  0.
        -24    2    3    3    0    0  0.69845558854E+02  0.61416822144E+02 -0.11795628827E+03  0.16888895536E+03  0.77196924586E+02 0.  0.
          6    2    1    2  501    0 -0.11431718148E+03 -0.64455598310E+02  0.18684639489E+02  0.21720861428E+03  0.17206837080E+03 0.  0.
         24    2    5    5    0    0 -0.27830736700E+02 -0.85093257829E+02  0.40159061539E+02  0.12561680829E+03  0.78430987938E+02 0.  0.
          5    1    5    5  501    0 -0.86486444779E+02  0.20637659519E+02 -0.21474422050E+02  0.91591805984E+02  0.47000000000E+01 0. -1.
        -13    1    6    6    0    0 -0.54128623725E+02 -0.62812015039E+02  0.18651168598E+02  0.84988959458E+02  0.00000000000E+00 0.  1.
         14    1    6    6    0    0  0.26297887025E+02 -0.22281242789E+02  0.21507892941E+02  0.40627848835E+02  0.00000000000E+00 0. -1.
         -5    1    3    3    0  503  0.44471622625E+02  0.30387761653E+01  0.41976904517E+02  0.61409363230E+02  0.47000000000E+01 0.  1.
         13    1    4    4    0    0  0.81133022012E+02  0.28887416362E+02 -0.78612804656E+02  0.11660627402E+03  0.00000000000E+00 0. -1.
        -14    1    4    4    0    0 -0.11287463158E+02  0.32529405782E+02 -0.39343483610E+02  0.52282681336E+02  0.00000000000E+00 0.  1.
</event>
<event>
12    1  0.8406581E-002  0.1710634E+03  0.7818608E-02  0.1176763E+00
         21   -1    0    0  503  502  0.00000000000E+00  0.00000000000E+00  0.12223352982E+03  0.12223352982E+03  0.00000000000E+00 0. -1.
         21   -1    0    0  501  503 -0.00000000000E+00 -0.00000000000E+00 -0.32331750334E+03  0.32331750334E+03  0.00000000000E+00 0. -1.
          6    2    1    2  501    0  0.20908984427E+02  0.24695404887E+01 -0.21409319236E+03  0.27399370218E+03  0.16968609125E+03 0.  0.
         24    2    3    3    0    0 -0.24358823350E+02 -0.46906874087E+02 -0.83788737665E+02  0.12740398341E+03  0.80110020088E+02 0.  0.
         -6    2    1    2    0  502 -0.20908984427E+02 -0.24695404887E+01  0.13009218834E+02  0.17155733097E+03  0.16976275733E+03 0.  0.
        -24    2    5    5    0    0 -0.77048362639E+02  0.45491889426E+01  0.27438079005E+02  0.11298110410E+03  0.77812186697E+02 0.  0.
          5    1    3    3  501    0  0.45267807777E+02  0.49376414575E+02 -0.13030445469E+03  0.14658971877E+03  0.47000000000E+01 0. -1.
        -11    1    4    4    0    0  0.30200001118E+01  0.84369802273E+01 -0.60894681256E+02  0.61550509676E+02  0.00000000000E+00 0.  1.
         12    1    4    4    0    0 -0.27378823462E+02 -0.55343854314E+02 -0.22894056409E+02  0.65853473738E+02  0.00000000000E+00 0. -1.
         -5    1    5    5    0  502  0.56139378213E+02 -0.70187294313E+01 -0.14428860170E+02  0.58576226874E+02  0.47000000000E+01 0.  1.
         13    1    6    6    0    0 -0.87542359686E+00  0.16553641753E+02 -0.17193685167E+02  0.23883304448E+02  0.00000000000E+00 0. -1.
        -14    1    6    6    0    0 -0.76172939042E+02 -0.12004452810E+02  0.44631764171E+02  0.89097799651E+02  0.00000000000E+00 0.  1.
</event>
<event>
12    1  0.8406581E-002  0.2602415E+03  0.7818608E-02  0.1107303E+00
         21   -1    0    0  501  502  0.00000000000E+00  0.00000000000E+00  0.66020097990E+03  0.66020097990E+03  0.00000000000E+00 0.  1.
         21   -1    0    0  502  503 -0.00000000000E+00 -0.00000000000E+00 -0.39821267459E+03  0.39821267459E+03  0.00000000000E+00 0. -1.
         -6    2    1    2    0  503  0.90124519408E+02  0.17255328097E+03 -0.32572516231E+03  0.41565961840E+03  0.16964366546E+03 0.  0.
        -24    2    3    3    0    0  0.10862654460E+03  0.69742425352E+02 -0.17377060814E+03  0.23120183596E+03  0.81205496179E+02 0.  0.
          6    2    1    2  501    0 -0.90124519408E+02 -0.17255328097E+03  0.58771346763E+03  0.64275403610E+03  0.17270948762E+03 0.  0.
         24    2    5    5    0    0  0.14014920316E+02 -0.10383673290E+03  0.35361989009E+03  0.37744500887E+03  0.80244769056E+02 0.  0.
          5    1    5    5  501    0 -0.10413943972E+03 -0.68716548072E+02  0.23409357754E+03  0.26530902723E+03  0.47000000000E+01 0. -1.
        -11    1    6    6    0    0 -0.24485943090E+02 -0.68944233634E+02  0.26298606891E+03  0.27297351740E+03  0.00000000000E+00 0.  1.
         12    1    6    6    0    0  0.38500863407E+02 -0.34892499264E+02  0.90633821185E+02  0.10447149147E+03  0.00000000000E+00 0. -1.
         -5    1    3    3    0  503 -0.18502025196E+02  0.10281085562E+03 -0.15195455417E+03  0.18445778244E+03  0.47000000000E+01 0.  1.
         11    1    4    4    0    0  0.79173457642E+02  0.24089039913E+02 -0.15120802738E+03  0.17237339059E+03  0.00000000000E+00 0. -1.
        -12    1    4    4    0    0  0.29453086962E+02  0.45653385438E+02 -0.22562580755E+02  0.58828445364E+02  0.00000000000E+00 0.  1.
</event>
<event>
12    1  0.8406581E-002  0.1925652E+03  0.7818608E-02  0.1156419E+00
         21   -1    0    0  501  502  0.00000000000E+00  0.00000000000E+00  0.18341291802E+04  0.18341291802E+04  0.00000000000E+00 0.  1.
         21   -1    0    0  502  503 -0.00000000000E+00 -0.00000000000E+00 -0.24298541160E+02  0.24298541160E+02  0.00000000000E+00 0.  1.
         -6    2    1    2    0  503 -0.60582359915E+02  0.60291985360E+02  0.12934160124E+04  0.13076721041E+04  0.17255725091E+03 0.  0.
        -24    2    3    3    0    0 -0.32275474582E+02 -0.71657472014E+01  0.30745136501E+03  0.31898600560E+03  0.78311402292E+02 0.  0.
          6    2    1    2  501    0  0.60582359915E+02 -0.60291985360E+02  0.51641462664E+03  0.55075561727E+03  0.17129605226E+03 0.  0.
         24    2    5    5    0    0  0.89994901035E+02 -0.36618908678E+02  0.48386967958E+03  0.50068790598E+03  0.84371118838E+02 0.  0.
          5    1    5    5  501    0 -0.29412541120E+02 -0.23673076681E+02  0.32544947056E+02  0.50067711288E+02  0.47000000000E+01 0. -1.
        -13    1    6    6    0    0  0.73608071001E+02 -0.61916951986E+02  0.40472682874E+03  0.41599959490E+03  0.00000000000E+00 0.  1.
         14    1    6    6    0    0  0.16386830035E+02  0.25298043308E+02  0.79142850846E+02  0.84688311082E+02  0.00000000000E+00 0. -1.
         -5    1    3    3    0  503 -0.28306885333E+02  0.67457732561E+02  0.98596464743E+03  0.98868609852E+03  0.47000000000E+01 0.  1.
         13    1    4    4    0    0  0.22824210216E+02 -0.16648167057E+02  0.83004950978E+02  0.87680829862E+02  0.00000000000E+00 0. -1.
        -14    1    4    4    0    0 -0.55099684797E+02  0.94824198556E+01  0.22444641403E+03  0.23130517574E+03  0.00000000000E+00 0.  1.
</event>
<event>
12    1  0.8406581E-002  0.1974863E+03  0.7818608E-02  0.1152532E+00
         21   -1    0    0  501  502  0.00000000000E+00  0.00000000000E+00  0.13630582739E+03  0.13630582739E+03  0.00000000000E+00 0. -1.
         21   -1    0    0  502  503 -0.00000000000E+00 -0.00000000000E+00 -0.28177834538E+03  0.28177834538E+03  0.00000000000E+00 0. -1.
         -6    2    1    2    0  503  0.46949020144E+02 -0.85531593625E+02 -0.74112764558E+02  0.20810072073E+03  0.16820625463E+03 0.  0.
        -24    2    3    3    0    0  0.43055426955E+02 -0.80585360363E+02 -0.11391944821E+03  0.16752625395E+03  0.82095279933E+02 0.  0.
          6    2    1    2  501    0 -0.46949020144E+02  0.85531593625E+02 -0.71359753434E+02  0.20998345204E+03  0.17170023798E+03 0.  0.
         24    2    5    5    0    0  0.36733566756E+02  0.27596470550E+02 -0.53204803049E+02  0.10648975146E+03  0.79989974284E+02 0.  0.
          5    1    5    5  501    0 -0.83682586899E+02  0.57935123076E+02 -0.18154950385E+02  0.10349370058E+03  0.47000000000E+01 0. -1.
        -13    1    6    6    0    0  0.43215790512E+02 -0.50389607083E+01  0.26887233089E+00  0.43509400902E+02  0.00000000000E+00 0.  1.
         14    1    6    6    0    0 -0.64822237560E+01  0.32635431258E+02 -0.53473675380E+02  0.62980350562E+02  0.00000000000E+00 0. -1.
         -5    1    3    3    0  503  0.38935931885E+01 -0.49462332625E+01  0.39806683650E+02  0.40574466782E+02  0.47000000000E+01 0.  1.
         11    1    4    4    0    0  0.67418719847E+02 -0.51183579078E+02 -0.78489638155E+02  0.11543684789E+03  0.00000000000E+00 0. -1.
        -12    1    4    4    0    0 -0.24363292892E+02 -0.29401781285E+02 -0.35429810053E+02  0.52089406060E+02  0.00000000000E+00 0.  1.
</event>
<event>
12    1  0.8406581E-002  0.2210893E+03  0.7818608E-02  0.1133894E+00
         21   -1    0    0  503  502  0.00000000000E+00  0.00000000000E+00  0.12049642365E+04  0.12049642365E+04  0.00000000000E+00 0.  1.
         21   -1    0    0  501  503 -0.00000000000E+00 -0.00000000000E+00 -0.71713348810E+02  0.71713348810E+02  0.00000000000E+00 0. -1.
          6    2    1    2  501    0  0.86701100600E+02  0.10176813514E+03  0.13743302241E+03  0.25661205751E+03  0.17055227420E+03 0.  0.
         24    2    3    3    0    0 -0.20146497814E+01  0.88730990084E+02  0.98385306644E+02  0.15869747421E+03  0.87338263898E+02 0.  0.
         -6    2    1    2    0  502 -0.86701100600E+02 -0.10176813514E+03  0.99581786530E+03  0.10200655278E+04  0.17608698426E+03 0.  0.
        -24    2    5    5    0    0 -0.11548204081E+03 -0.55561532509E+02  0.55324093750E+03  0.57412851471E+03  0.84408712983E+02 0.  0.
          5    1    3    3  501    0  0.88715750381E+02  0.13037145057E+02  0.39047715767E+02  0.97914583304E+02  0.47000000000E+01 0. -1.
        -11    1    4    4    0    0  0.26133595661E+02 -0.45021273815E+01  0.27791409458E+02  0.38413492588E+02  0.00000000000E+00 0.  1.
         12    1    4    4    0    0 -0.28148245443E+02  0.93233117465E+02  0.70593897186E+02  0.12028398162E+03  0.00000000000E+00 0. -1.
         -5    1    5    5    0  502  0.28780940213E+02 -0.46206602632E+02  0.44257692779E+03  0.44593701311E+03  0.47000000000E+01 0.  1.
         13    1    6    6    0    0 -0.80803893966E+02  0.70447585921E+01  0.26498917681E+03  0.27712481255E+03  0.00000000000E+00 0. -1.
        -14    1    6    6    0    0 -0.34678146846E+02 -0.62606291101E+02  0.28825176069E+03  0.29700370216E+03  0.00000000000E+00 0.  1.
</event>
<event>
12    1  0.8406581E-002  0.2028686E+03  0.7818608E-02  0.1149597E+00
         21   -1    0    0  501  502  0.00000000000E+00  0.00000000000E+00  0.24334640830E+03  0.24334640830E+03  0.00000000000E+00 0.  1.
         21   -1    0    0  502  503 -0.00000000000E+00 -0.00000000000E+00 -0.16666188637E+03  0.16666188637E+03  0.00000000000E+00 0.  1.
         -6    2    1    2    0  503 -0.62667354477E+01  0.10910040074E+03  0.79018589686E+02  0.21771451223E+03  0.17091957731E+03 0.  0.
        -24    2    3    3    0    0  0.44159435162E+02  0.80337795710E+02  0.10060270026E+03  0.15560130945E+03  0.75409860568E+02 0.  0.
          6    2    1    2  501    0  0.62667354477E+01 -0.10910040074E+03 -0.23340677543E+01  0.19229378243E+03  0.15820645207E+03 0.  0.
         24    2    5    5    0    0 -0.49231286948E+02 -0.84042655413E+02 -0.24194439759E+02  0.12742555481E+03  0.78517600323E+02 0.  0.
          5    1    5    5  501    0  0.55498022395E+02 -0.25057745325E+02  0.21860372005E+02  0.64868227622E+02  0.47000000000E+01 0. -1.
        -11    1    6    6    0    0  0.10351149797E+02 -0.30733111702E+02  0.17931128358E+02  0.37056656908E+02  0.00000000000E+00 0.  1.
         12    1    6    6    0    0 -0.59582436745E+02 -0.53309543711E+02 -0.42125568117E+02  0.90368897904E+02  0.00000000000E+00 0. -1.
         -5    1    3    3    0  503 -0.50426170610E+02  0.28762605028E+02 -0.21584110574E+02  0.62113202781E+02  0.47000000000E+01 0.  1.
         11    1    4    4    0    0  0.42889715484E+02  0.23588776916E+02  0.12037519221E+02  0.50406943566E+02  0.00000000000E+00 0. -1.
        -12    1    4    4    0    0  0.12697196785E+01  0.56749018793E+02  0.88565181039E+02  0.10519436589E+03  0.00000000000E+00 0.  1.
</event>
<event>
12    1  0.8406581E-002  0.1718300E+03  0.7818608E-02  0.1176286E+00
         21   -1    0    0  503  502  0.00000000000E+00  0.00000000000E+00  0.96867286652E+02  0.96867286652E+02  0.00000000000E+00 0. -1.
         21   -1    0    0  501  503 -0.00000000000E+00 -0.00000000000E+00 -0.40020444713E+03  0.40020444713E+03  0.00000000000E+00 0. -1.
          6    2    1    2  501    0  0.17861313601E+01 -0.28411495889E+01 -0.27402583823E+03  0.32275968579E+03  0.17050628245E+03 0.  0.
         24    2    3    3    0    0  0.57543607026E+02 -0.36325910309E+02 -0.15885080633E+03  0.19040598064E+03  0.79937602682E+02 0.  0.
         -6    2    1    2    0  502 -0.17861313601E+01  0.28411495889E+01 -0.29311322243E+02  0.17431204799E+03  0.17179718876E+03 0.  0.
        -24    2    5    5    0    0  0.29035068948E+02  0.47306676006E+02  0.17480239604E+02  0.10262753301E+03  0.84533395360E+02 0.  0.
          5    1    3    3  501    0 -0.55757475666E+02  0.33484760720E+02 -0.11517503190E+03  0.13235370514E+03  0.47000000000E+01 0. -1.
        -13    1    4    4    0    0  0.38521847363E+02 -0.12385575870E+02 -0.14705632372E+02  0.43053348735E+02  0.00000000000E+00 0.  1.
         14    1    4    4    0    0  0.19021759664E+02 -0.23940334438E+02 -0.14414517396E+03  0.14735263191E+03  0.00000000000E+00 0. -1.
         -5    1    5    5    0  502 -0.30821200308E+02 -0.44465526417E+02 -0.46791561847E+02  0.71684514981E+02  0.47000000000E+01 0.  1.
         11    1    6    6    0    0  0.13220594194E+02 -0.20097579957E+02  0.22858354208E+02  0.33184351554E+02  0.00000000000E+00 0. -1.
        -12    1    6    6    0    0  0.15814474755E+02  0.67404255963E+02 -0.53781146041E+01  0.69443181454E+02  0.00000000000E+00 0.  1.
</event>
<event>
12    1  0.8406581E-002  0.2057044E+03  0.7818608E-02  0.1145528E+00
         21   -1    0    0  501  502  0.00000000000E+00  0.00000000000E+00  0.13581458016E+03  0.13581458016E+03  0.00000000000E+00 0.  1.
         21   -1    0    0  502  503 -0.00000000000E+00 -0.00000000000E+00 -0.75382424570E+03  0.75382424570E+03  0.00000000000E+00 0.  1.
         -6    2    1    2    0  503 -0.32022472600E+00 -0.11159803017E+03 -0.65195133118E+03  0.68363354658E+03  0.17280065078E+03 0.  0.
        -24    2    3    3    0    0 -0.64192512810E+02 -0.54854285867E+02 -0.42734709606E+03  0.44328239902E+03  0.82122307515E+02 0.  0.
          6    2    1    2  501    0  0.32022472600E+00  0.11159803017E+03  0.33941665631E+02  0.20600527927E+03  0.16979963351E+03 0.  0.
         24    2    5    5    0    0  0.55951274379E+02  0.71868882670E+02 -0.14487609404E+02  0.12209637911E+03  0.80012208847E+02 0.  0.
          5    1    5    5  501    0 -0.55631049653E+02  0.39729147500E+02  0.48429275035E+02  0.83908900165E+02  0.47000000000E+01 0. -1.
        -11    1    6    6    0    0  0.57938955966E+02  0.86704536039E+02 -0.50546527137E+01  0.10440377724E+03  0.00000000000E+00 0.  1.
         12    1    6    6    0    0 -0.19876815871E+01 -0.14835653369E+02 -0.94329566900E+01  0.17692601869E+02  0.00000000000E+00 0. -1.
         -5    1    3    3    0  503  0.63872288084E+02 -0.56743744304E+02 -0.22460423512E+03  0.24035114757E+03  0.47000000000E+01 0.  1.
         11    1    4    4    0    0 -0.60744211305E+01  0.20610839963E+02 -0.58044802622E+02  0.61894300445E+02  0.00000000000E+00 0. -1.
        -12    1    4    4    0    0 -0.58118091679E+02 -0.75465125830E+02 -0.36930229343E+03  0.38138809857E+03  0.00000000000E+00 0.  1.
</event>
<event>
12    1  0.8406581E-002  0.2026386E+03  0.7818608E-02  0.1147946E+00
         21   -1    0    0  503  502  0.00000000000E+00  0.00000000000E+00  0.29351846429E+03  0.29351846429E+03  0.00000000000E+00 0. -1.
         21   -1    0    0  501  503 -0.00000000000E+00 -0.00000000000E+00 -0.22040742027E+03  0.22040742027E+03  0.00000000000E+00 0. -1.
          6    2    1    2  501    0  0.23604182156E+02 -0.10355071901E+03 -0.11994749799E+03  0.23547779887E+03  0.17257601995E+03 0.  0.
         24    2    3    3    0    0 -0.24673266611E+02 -0.12406900729E+02 -0.77632038368E+01  0.83013660377E+02  0.77899288857E+02 0.  0.
         -6    2    1    2    0  502 -0.23604182156E+02  0.10355071901E+03  0.19305854202E+03  0.27844808570E+03  0.17024049741E+03 0.  0.
        -24    2    5    5    0    0  0.19425909522E+02  0.10924060308E+02  0.37580050470E+02  0.92364937545E+02  0.81377640910E+02 0.  0.
          5    1    3    3  501    0  0.48277448767E+02 -0.91143818280E+02 -0.11218429416E+03  0.15246413849E+03  0.47000000000E+01 0. -1.
        -13    1    4    4    0    0  0.89638104669E+01  0.24867797458E+02  0.12032824013E+02  0.29043865140E+02  0.00000000000E+00 0.  1.
         14    1    4    4    0    0 -0.33637077078E+02 -0.37274698188E+02 -0.19796027850E+02  0.53969795237E+02  0.00000000000E+00 0. -1.
         -5    1    5    5    0  502 -0.43030091678E+02  0.92626658701E+02  0.15547849155E+03  0.18608314815E+03  0.47000000000E+01 0.  1.
         11    1    6    6    0    0  0.13947738126E+02  0.45858595359E+02  0.14270212629E+02  0.50011889943E+02  0.00000000000E+00 0. -1.
        -12    1    6    6    0    0  0.54781713957E+01 -0.34934535051E+02  0.23309837841E+02  0.42353047602E+02  0.00000000000E+00 0.  1.
</event>
<event>
12    1  0.8406581E-002  0.1831443E+03  0.7818608E-02  0.1164997E+00
         21   -1    0    0  503  502  0.00000000000E+00  0.00000000000E+00  0.11222975260E+03  0.11222975260E+03  0.00000000000E+00 0. -1.
         21   -1    0    0  501  503 -0.00000000000E+00 -0.00000000000E+00 -0.40567223459E+03  0.40567223459E+03  0.00000000000E+00 0. -1.
          6    2    1    2  501    0  0.51558954518E+02  0.31488339738E+02 -0.28070439192E+03  0.33516679668E+03  0.17289298605E+03 0.  0.
         24    2    3    3    0    0  0.75952507792E+02 -0.18678643036E+02 -0.24364366204E+03  0.26802992677E+03  0.79750438533E+02 0.  0.
         -6    2    1    2    0  502 -0.51558954518E+02 -0.31488339738E+02 -0.12738090075E+02  0.18273519051E+03  0.17198851584E+03 0.  0.
        -24    2    5    5    0    0 -0.18369833475E+02 -0.70142695272E+02  0.32308209047E+02  0.11456675191E+03  0.82609150756E+02 0.  0.
          5    1    3    3  501    0 -0.24393553274E+02  0.50166982774E+02 -0.37060729874E+02  0.67136869906E+02  0.47000000000E+01 0. -1.
        -13    1    4    4    0    0  0.32550709384E+02  0.23508980279E+02 -0.44715354901E+02  0.60097286120E+02  0.00000000000E+00 0.  1.
         14    1    4    4    0    0  0.43401798408E+02 -0.42187623314E+02 -0.19892830714E+03  0.20793264065E+03  0.00000000000E+00 0. -1.
         -5    1    5    5    0  502 -0.33189121043E+02  0.38654355534E+02 -0.45046299121E+02  0.68168438605E+02  0.47000000000E+01 0.  1.
         11    1    6    6    0    0 -0.18575781086E+02 -0.53266422896E+02  0.59862081775E+02  0.82254728044E+02  0.00000000000E+00 0. -1.
        -12    1    6    6    0    0  0.20594761026E+00 -0.16876272376E+02 -0.27553872729E+02  0.32312023862E+02  0.00000000000E+00 0.  1.
</event>
<event>
12    1  0.8406581E-002  0.1866571E+03  0.7818608E-02  0.1161625E+00
         21   -1    0    0  501  502  0.00000000000E+00  0.00000000000E+00  0.27000006066E+03  0.27000006066E+03  0.00000000000E+00 0.  1.
         21   -1    0    0  502  503 -0.00000000000E+00 -0.00000000000E+00 -0.14886882848E+03  0.14886882848E+03  0.00000000000E+00 0.  1.
         -6    2    1    2    0  503  0.31782616500E+02 -0.61220426620E+02 -0.16451426836E+02  0.18738063903E+03  0.17344387879E+03 0.  0.
        -24    2    3    3    0    0  0.58290524117E+02 -0.13176085937E+02 -0.60454243943E+02  0.11688761986E+03  0.80228458936E+02 0.  0.
          6    2    1    2  501    0 -0.31782616500E+02  0.61220426620E+02  0.13758265902E+03  0.23148825012E+03  0.17291543174E+03 0.  0.
         24    2    5    5    0    0 -0.27853175619E+02  0.10726883076E+03  0.12200739345E+03  0.18249258779E+03  0.78328405433E+02 0.  0.
          5    1    5    5  501    0 -0.39294408809E+01 -0.46048404139E+02  0.15575265572E+02  0.48995662328E+02  0.47000000000E+01 0. -1.
        -11    1    6    6    0    0  0.11207930155E+02  0.65208058841E+02  0.26937156848E+02  0.71437518541E+02  0.00000000000E+00 0.  1.
         12    1    6    6    0    0 -0.39061105774E+02  0.42060771918E+02  0.95070236601E+02  0.11105506925E+03  0.00000000000E+00 0. -1.
         -5    1    3    3    0  503 -0.26507907617E+02 -0.48044340683E+02  0.44002817106E+02  0.70493019166E+02  0.47000000000E+01 0.  1.
         11    1    4    4    0    0  0.35341774686E+02  0.12951696589E+02  0.94525810215E+01  0.38809003730E+02  0.00000000000E+00 0. -1.
        -12    1    4    4    0    0  0.22948749431E+02 -0.26127782527E+02 -0.69906824964E+02  0.78078616130E+02  0.00000000000E+00 0.  1.
</event>
<event>
12    1  0.8406581E-002  0.2789825E+03  0.7818608E-02  0.1096414E+00
         21   -1    0    0  503  502  0.00000000000E+00  0.00000000000E+00  0.95827592646E+02  0.95827592646E+02  0.00000000000E+00 0.  1.
         21   -1    0    0  501  503 -0.00000000000E+00 -0.00000000000E+00 -0.80969515022E+03  0.80969515022E+03  0.00000000000E+00 0. -1.
          6    2    1    2  501    0  0.19423417709E+03  0.10070744393E+03 -0.33982652796E+03  0.43889874863E+03  0.17111732126E+03 0.  0.
         24    2    3    3    0    0  0.20423812044E+03  0.11971734369E+03 -0.27748403271E+03  0.37279177559E+03  0.77012124471E+02 0.  0.
         -6    2    1    2    0  502 -0.19423417709E+03 -0.10070744393E+03 -0.37404102961E+03  0.46662399423E+03  0.17309637589E+03 0.  0.
        -24    2    5    5    0    0 -0.16543506723E+03 -0.32165734422E+02 -0.33370878508E+03  0.38191192532E+03  0.78049788718E+02 0.  0.
          5    1    3    3  501    0 -0.10003943349E+02 -0.19009899764E+02 -0.62342495249E+02  0.66106973047E+02  0.47000000000E+01 0. -1.
        -11    1    4    4    0    0  0.16399183187E+03  0.12547198932E+03 -0.21376181676E+03  0.29720473638E+03  0.00000000000E+00 0.  1.
         12    1    4    4    0    0  0.40246288564E+02 -0.57546456305E+01 -0.63722215953E+02  0.75587039203E+02  0.00000000000E+00 0. -1.
         -5    1    5    5    0  502 -0.28799109856E+02 -0.68541709504E+02 -0.40332244531E+02  0.84712068911E+02  0.47000000000E+01 0.  1.
         11    1    6    6    0    0 -0.37795668887E+02 -0.99313857448E+01 -0.16291726339E+03  0.16753859173E+03  0.00000000000E+00 0. -1.
        -12    1    6    6    0    0 -0.12763939835E+03 -0.22234348677E+02 -0.17079152170E+03  0.21437333359E+03  0.00000000000E+00 0.  1.
</event>
<event>
12    1  0.8406581E-002  0.1894037E+03  0.7818608E-02  0.1159017E+00
         21   -1    0    0  501  502  0.00000000000E+00  0.00000000000E+00  0.85772067150E+02  0.85772067150E+02  0.00000000000E+00 0.  1.
         21   -1    0    0  502  503 -0.00000000000E+00 -0.00000000000E+00 -0.98617114625E+03  0.98617114625E+03  0.00000000000E+00 0.  1.
         -6    2    1    2    0  503  0.75029950793E+02  0.26537322840E+02 -0.85703168443E+03  0.87771127209E+03  0.17187217926E+03 0.  0.
        -24    2    3    3    0    0  0.36992497938E+02  0.31373698280E+02 -0.21341270210E+03  0.23293400607E+03  0.79752842707E+02 0.  0.
          6    2    1    2  501    0 -0.75029950793E+02 -0.26537322840E+02 -0.43367394669E+02  0.19423194132E+03  0.17178938584E+03 0.  0.
         24    2    5    5    0    0 -0.89640675842E+02 -0.31580718483E+02 -0.85158432384E+02  0.14942691973E+03  0.77740936374E+02 0.  0.
          5    1    5    5  501    0  0.14610725049E+02  0.50433956428E+01  0.41791037716E+02  0.44805021587E+02  0.47000000000E+01 0. -1.
        -13    1    6    6    0    0  0.56764783197E+01 -0.98624782982E+01  0.83748699390E+01  0.14129024410E+02  0.00000000000E+00 0.  1.
         14    1    6    6    0    0 -0.95317154162E+02 -0.21718240185E+02 -0.93533302323E+02  0.13529789532E+03  0.00000000000E+00 0. -1.
         -5    1    3    3    0  503  0.38037452855E+02 -0.48363754397E+01 -0.64361898234E+03  0.64477726601E+03  0.47000000000E+01 0.  1.
         11    1    4    4    0    0 -0.12820350680E+02  0.29389743083E+02 -0.14367842382E+03  0.14721279789E+03  0.00000000000E+00 0. -1.
        -12    1    4    4    0    0  0.49812848618E+02  0.19839551967E+01 -0.69734278279E+02  0.85721208186E+02  0.00000000000E+00 0.  1.
</event>
<event>
12    1  0.8406581E-002  0.1742269E+03  0.7818608E-02  0.1173665E+00
         21   -1    0    0  503  502  0.00000000000E+00  0.00000000000E+00  0.15052918404E+03  0.15052918404E+03  0.00000000000E+00 0.  1.
         21   -1    0    0  501  503 -0.00000000000E+00 -0.00000000000E+00 -0.33236624033E+03  0.33236624033E+03  0.00000000000E+00 0.  1.
          6    2    1    2  501    0 -0.20007545475E+02 -0.95703450878E+01 -0.24264686455E+03  0.29836128553E+03  0.17219193491E+03 0.  0.
         24    2    3    3    0    0 -0.87878896651E+01 -0.72630049347E+02 -0.16681489465E+03  0.19898832826E+03  0.80104897693E+02 0.  0.
         -6    2    1    2    0  502  0.20007545475E+02  0.95703450878E+01  0.60809808259E+02  0.18453413884E+03  0.17280949695E+03 0.  0.
        -24    2    5    5    0    0 -0.37910713729E+00 -0.61044649246E+02  0.36525693891E+02  0.10698479171E+03  0.79906360323E+02 0.  0.
          5    1    3    3  501    0 -0.11219655810E+02  0.63059704259E+02 -0.75831969894E+02  0.99372957266E+02  0.47000000000E+01 0. -1.
        -11    1    4    4    0    0  0.19210917789E+02 -0.16322185781E+02 -0.11433789063E+03  0.11708384322E+03  0.00000000000E+00 0.  1.
         12    1    4    4    0    0 -0.27998807455E+02 -0.56307863566E+02 -0.52477004025E+02  0.81904485040E+02  0.00000000000E+00 0. -1.
         -5    1    5    5    0  502  0.20386652612E+02  0.70614994334E+02  0.24284114368E+02  0.77549347129E+02  0.47000000000E+01 0.  1.
         13    1    6    6    0    0  0.61251053415E+01 -0.77681287681E+02  0.15594420250E+02  0.79467511060E+02  0.00000000000E+00 0. -1.
        -14    1    6    6    0    0 -0.65042124787E+01  0.16636638434E+02  0.20931273641E+02  0.27517280654E+02  0.00000000000E+00 0.  1.
</event>
<event>
12    1  0.8406581E-002  0.1930770E+03  0.7818608E-02  0.1157521E+00
         21   -1    0    0  501  502  0.00000000000E+00  0.00000000000E+00  0.66423167751E+02  0.66423167751E+02  0.00000000000E+00 0.  1.
         21   -1    0    0  502  503 -0.00000000000E+00 -0.00000000000E+00 -0.55542202816E+03  0.55542202816E+03  0.00000000000E+00 0.  1.
         -6    2    1    2    0  503  0.89576544999E+01 -0.65804259276E+02 -0.18480114475E+03  0.26154671894E+03  0.17275642673E+03 0.  0.
        -24    2    3    3    0    0 -0.62087296225E+02 -0.37518213510E+02 -0.11998071669E+03  0.16119103499E+03  0.79528162849E+02 0.  0.
          6    2    1    2  501    0 -0.89576544999E+01  0.65804259276E+02 -0.30419771566E+03  0.36029847696E+03  0.18129617254E+03 0.  0.
         24    2    5    5    0    0 -0.25415207084E+02  0.10651711630E+03 -0.27858298202E+03  0.30924367950E+03  0.77661744921E+02 0.  0.
          5    1    5    5  501    0  0.16457552584E+02 -0.40712857028E+02 -0.25614733640E+02  0.51054797462E+02  0.47000000000E+01 0. -1.
        -13    1    6    6    0    0 -0.43418333308E+02  0.93166259250E+02 -0.17235760168E+03  0.20067946180E+03  0.00000000000E+00 0.  1.
         14    1    6    6    0    0  0.18003126224E+02  0.13350857053E+02 -0.10622538033E+03  0.10856421770E+03  0.00000000000E+00 0. -1.
         -5    1    3    3    0  503  0.71044950725E+02 -0.28286045766E+02 -0.64820428061E+02  0.10035568396E+03  0.47000000000E+01 0.  1.
         11    1    4    4    0    0 -0.27297488647E+02 -0.14734278812E+02 -0.11523201240E+03  0.11933427228E+03  0.00000000000E+00 0. -1.
        -12    1    4    4    0    0 -0.34789807578E+02 -0.22783934698E+02 -0.47487042809E+01  0.41856762703E+02  0.00000000000E+00 0.  1.
</event>
<event>
12    1  0.8406581E-002  0.1841504E+03  0.7818608E-02  0.1164280E+00
         21   -1    0    0  503  502  0.00000000000E+00  0.00000000000E+00  0.77731194986E+03  0.77731194986E+03  0.00000000000E+00 0. -1.
         21   -1    0    0  501  503 -0.00000000000E+00 -0.00000000000E+00 -0.43404649119E+02  0.43404649119E+02  0.00000000000E+00 0. -1.
          6    2    1    2  501    0 -0.48234260340E+02  0.34615046121E+02  0.34007777538E+03  0.38673540872E+03  0.17431763468E+03 0.  0.
         24    2    3    3    0    0 -0.20905046097E+02 -0.47015911501E+02  0.14341840127E+03  0.17200884162E+03  0.79816582774E+02 0.  0.
         -6    2    1    2    0  502  0.48234260340E+02 -0.34615046121E+02  0.39382952536E+03  0.43398119026E+03  0.17237526843E+03 0.  0.
        -24    2    5    5    0    0  0.47413586206E+01  0.10688462555E+02  0.34284954344E+03  0.35295595373E+03  0.83038377406E+02 0.  0.
          5    1    3    3  501    0 -0.27329214243E+02  0.81630957622E+02  0.19665937411E+03  0.21472656710E+03  0.47000000000E+01 0. -1.
        -13    1    4    4    0    0 -0.76246031528E+01  0.20165881725E+02  0.14351180527E+02  0.25898913906E+02  0.00000000000E+00 0.  1.
         14    1    4    4    0    0 -0.13280442944E+02 -0.67181793226E+02  0.12906722075E+03  0.14610992772E+03  0.00000000000E+00 0. -1.
         -5    1    5    5    0  502  0.43492901719E+02 -0.45303508676E+02  0.50979981919E+02  0.81025236530E+02  0.47000000000E+01 0.  1.
         11    1    6    6    0    0  0.63384684738E+01  0.25065337567E+02  0.29312566513E+02  0.39085468981E+02  0.00000000000E+00 0. -1.
        -12    1    6    6    0    0 -0.15971098532E+01 -0.14376875012E+02  0.31353697692E+03  0.31387048474E+03  0.00000000000E+00 0.  1.
</event>
<event>
12    1  0.8406581E-002  0.2193071E+03  0.7818608E-02  0.1134832E+00
         21   -1    0    0  503  502  0.00000000000E+00  0.00000000000E+00  0.73847213866E+02  0.73847213866E+02  0.00000000000E+00 0. -1.
         21   -1    0    0  501  503 -0.00000000000E+00 -0.00000000000E+00 -0.64681344998E+03  0.64681344998E+03  0.00000000000E+00 0. -1.
          6    2    1    2  501    0  0.10498089468E+03  0.79556933986E+02 -0.30657146369E+03  0.37560739544E+03  0.17246611019E+03 0.  0.
         24    2    3    3    0    0  0.95930659789E+02  0.82754213471E+01 -0.25203071512E+03  0.28527609383E+03  0.92691932012E+02 0.  0.
         -6    2    1    2    0  502 -0.10498089468E+03 -0.79556933986E+02 -0.26639477242E+03  0.34505326840E+03  0.17534334682E+03 0.  0.
        -24    2    5    5    0    0  0.11519353170E+01  0.55568188169E+01 -0.12889059566E+03  0.15156420633E+03  0.79540667577E+02 0.  0.
          5    1    3    3  501    0  0.90502348901E+01  0.71281512639E+02 -0.54540748578E+02  0.90331301613E+02  0.47000000000E+01 0. -1.
        -13    1    4    4    0    0 -0.16525303093E+02  0.98977728189E+00 -0.63592321919E+02  0.65711861246E+02  0.00000000000E+00 0.  1.
         14    1    4    4    0    0  0.11245596288E+03  0.72856440652E+01 -0.18843839320E+03  0.21956423258E+03  0.00000000000E+00 0. -1.
         -5    1    5    5    0  502 -0.10613283000E+03 -0.85113752803E+02 -0.13750417675E+03  0.19348906208E+03  0.47000000000E+01 0.  1.
         11    1    6    6    0    0 -0.35897242859E+02 -0.77882756244E+01 -0.39808413769E+02  0.54166217230E+02  0.00000000000E+00 0. -1.
        -12    1    6    6    0    0  0.37049178176E+02  0.13345094441E+02 -0.89082181894E+02  0.97397989097E+02  0.00000000000E+00 0.  1.
</event>
<event>
12    1  0.8406581E-002  0.2594339E+03  0.7818608E-02  0.1107506E+00
         21   -1    0    0  503  502  0.00000000000E+00  0.00000000000E+00  0.24616112375E+03  0.24616112375E+03  0.00000000000E+00 0.  1.
         21   -1    0    0  501  503 -0.00000000000E+00 -0.00000000000E+00 -0.45925283161E+03  0.45925283161E+03  0.00000000000E+00 0. -1.
          6    2    1    2  501    0 -0.15146994231E+03 -0.12107608642E+03 -0.33101785896E+03  0.42056958840E+03  0.17234672498E+03 0.  0.
         24    2    3    3    0    0 -0.16636223063E+03 -0.77357548058E+02 -0.20557465294E+03  0.28681167729E+03  0.79620463930E+02 0.  0.
         -6    2    1    2    0  502  0.15146994231E+03  0.12107608642E+03  0.11792615110E+03  0.28484436696E+03  0.17212546048E+03 0.  0.
        -24    2    5    5    0    0  0.15080812937E+03  0.85448683222E+02  0.14589913457E+03  0.23929957956E+03  0.77027020956E+02 0.  0.
          5    1    3    3  501    0  0.14892288320E+02 -0.43718538363E+02 -0.12544320602E+03  0.13375791111E+03  0.47000000000E+01 0. -1.
        -13    1    4    4    0    0 -0.50576734849E+02 -0.57952966637E+02 -0.49340070609E+02  0.91383778745E+02  0.00000000000E+00 0.  1.
         14    1    4    4    0    0 -0.11578549578E+03 -0.19404581422E+02 -0.15623458233E+03  0.19542789855E+03  0.00000000000E+00 0. -1.
         -5    1    5    5    0  502  0.66181293965E+00  0.35627403200E+02 -0.27972983470E+02  0.45544787400E+02  0.47000000000E+01 0.  1.
         13    1    6    6    0    0  0.96977764060E+01  0.36016774979E+02  0.13752250647E+02  0.39753985272E+02  0.00000000000E+00 0. -1.
        -14    1    6    6    0    0  0.14111035297E+03  0.49431908242E+02  0.13214688393E+03  0.19954559429E+03  0.00000000000E+00 0.  1.
</event>
<event>
12    1  0.8406581E-002  0.1910096E+03  0.7818608E-02  0.1157594E+00
         21   -1    0    0  501  502  0.00000000000E+00  0.00000000000E+00  0.15278921969E+04  0.15278921969E+04  0.00000000000E+00 0.  1.
         21   -1    0    0  502  503 -0.00000000000E+00 -0.00000000000E+00 -0.78407406175E+02  0.78407406175E+02  0.00000000000E+00 0.  1.
         -6    2    1    2    0  503 -0.70833663898E+02  0.41973741629E+02  0.54729273713E+02  0.19852561287E+03  0.17215668049E+03 0.  0.
        -24    2    3    3    0    0 -0.14995529236E+01  0.66126216911E+00  0.80910771125E+02  0.11354619942E+03  0.79646095901E+02 0.  0.
          6    2    1    2  501    0  0.70833663898E+02 -0.41973741629E+02  0.13947555170E+04  0.14077739902E+04  0.17235269749E+03 0.  0.
         24    2    5    5    0    0  0.25075915935E+02  0.36400986905E+02  0.60940963246E+03  0.61718774067E+03  0.87102087742E+02 0.  0.
          5    1    5    5  501    0  0.45757747963E+02 -0.78374728533E+02  0.78534588451E+03  0.79058624949E+03  0.47000000000E+01 0. -1.
        -11    1    6    6    0    0  0.25526529175E+02  0.16208447789E+01  0.52849614388E+03  0.52911473701E+03  0.00000000000E+00 0.  1.
         12    1    6    6    0    0 -0.45061324015E+00  0.34780142126E+02  0.80913488584E+02  0.88073003658E+02  0.00000000000E+00 0. -1.
         -5    1    3    3    0  503 -0.69334110974E+02  0.41312479459E+02 -0.26181497412E+02  0.84979413450E+02  0.47000000000E+01 0.  1.
         11    1    4    4    0    0 -0.33787874004E+02  0.73200500308E+01  0.71246112410E+02  0.79190984940E+02  0.00000000000E+00 0. -1.
        -12    1    4    4    0    0  0.32288321081E+02 -0.66587878617E+01  0.96646587148E+01  0.34355214481E+02  0.00000000000E+00 0.  1.
</event>
<event>
12    1  0.8406581E-002  0.2582851E+03  0.7818608E-02  0.1108231E+00
         21   -1    0    0  501  502  0.00000000000E+00  0.00000000000E+00  0.20739805335E+03  0.20739805335E+03  0.00000000000E+00 0. -1.
         21   -1    0    0  502  503 -0.00000000000E+00 -0.00000000000E+00 -0.40296240150E+03  0.40296240150E+03  0.00000000000E+00 0. -1.
         -6    2    1    2    0  503  0.55905919030E+01 -0.19246627204E+03  0.39717059271E+02  0.26097735600E+03  0.17163104310E+03 0.  0.
        -24    2    3    3    0    0  0.46378205545E+02 -0.19467199977E+03  0.41557841807E+02  0.21981945102E+03  0.80903716774E+02 0.  0.
          6    2    1    2  501    0 -0.55905919030E+01  0.19246627204E+03 -0.23528140742E+03  0.34938309886E+03  0.17215309612E+03 0.  0.
         24    2    5    5    0    0  0.16940480489E+02  0.19900154773E+02 -0.77088194800E+02  0.11415151814E+03  0.80031139420E+02 0.  0.
          5    1    5    5  501    0 -0.22531072392E+02  0.17256611726E+03 -0.15819321262E+03  0.23523158072E+03  0.47000000000E+01 0. -1.
        -13    1    6    6    0    0 -0.92438381109E+01 -0.33305271761E+01 -0.78506288258E+02  0.79118760420E+02  0.00000000000E+00 0.  1.
         14    1    6    6    0    0  0.26184318600E+02  0.23230681950E+02  0.14180934583E+01  0.35032757720E+02  0.00000000000E+00 0. -1.
         -5    1    3    3    0  503 -0.40787613642E+02  0.22057277370E+01 -0.18407825358E+01  0.41157904973E+02  0.47000000000E+01 0.  1.
         11    1    4    4    0    0 -0.22966054177E+02 -0.58541930349E+02  0.78833758376E+01  0.63377794756E+02  0.00000000000E+00 0. -1.
        -12    1    4    4    0    0  0.69344259722E+02 -0.13613006942E+03  0.33674465969E+02  0.15644165627E+03  0.00000000000E+00 0.  1.
</event>
<event>
12    1  0.8406581E-002  0.1738514E+03  0.7818608E-02  0.1173987E+00
         21   -1    0    0  501  502  0.00000000000E+00  0.00000000000E+00  0.27263197009E+02  0.27263197009E+02  0.00000000000E+00 0. -1.
         21   -1    0    0  502  503 -0.00000000000E+00 -0.00000000000E+00 -0.11101195922E+04  0.11101195922E+04  0.00000000000E+00 0. -1.
         -6    2    1    2    0  503 -0.61971244871E+01  0.70586083956E+01 -0.57592789090E+03  0.60159557028E+03  0.17359742616E+03 0.  0.
        -24    2    3    3    0    0 -0.42738447020E+02 -0.29126528993E+02 -0.50554699896E+03  0.51430185705E+03  0.79080354473E+02 0.  0.
          6    2    1    2  501    0  0.61971244871E+01 -0.70586083956E+01 -0.50692850434E+03  0.53578721897E+03  0.17321433888E+03 0.  0.
         24    2    5    5    0    0 -0.17906995191E+02 -0.26749886254E+02 -0.11971189813E+03  0.14729327419E+03  0.79549689977E+02 0.  0.
          5    1    5    5  501    0  0.24104119678E+02  0.19691277858E+02 -0.38721660621E+03  0.38849394478E+03  0.47000000000E+01 0. -1.
        -11    1    6    6    0    0 -0.39755774002E+02 -0.36970032962E+02 -0.10710085040E+03  0.12007454793E+03  0.00000000000E+00 0.  1.
         12    1    6    6    0    0  0.21848778811E+02  0.10220146708E+02 -0.12611047729E+02  0.27218726258E+02  0.00000000000E+00 0. -1.
         -5    1    3    3    0  503  0.36541322533E+02  0.36185137388E+02 -0.70380891935E+02  0.87293713232E+02  0.47000000000E+01 0.  1.
         11    1    4    4    0    0  0.50714439881E+01 -0.32775767253E+02 -0.88551298288E+02  0.94558462824E+02  0.00000000000E+00 0. -1.
        -12    1    4    4    0    0 -0.47809891008E+02  0.36492382602E+01 -0.41699570067E+03  0.41974339423E+03  0.00000000000E+00 0.  1.
</event>
<event>
12    1  0.8406581E-002  0.2128754E+03  0.7818608E-02  0.1139493E+00
         21   -1    0    0  503  502  0.00000000000E+00  0.00000000000E+00  0.24460417018E+03  0.24460417018E+03  0.00000000000E+00 0.  1.
         21   -1    0    0  501  503 -0.00000000000E+00 -0.00000000000E+00 -0.20807562360E+03  0.20807562360E+03  0.00000000000E+00 0. -1.
          6    2    1    2  501    0  0.12489066790E+03  0.12762928249E+01 -0.58051719313E+02  0.21973911373E+03  0.17121906475E+03 0.  0.
         24    2    3    3    0    0  0.48867903737E+02 -0.34298064918E+02 -0.85834062250E+02  0.13120130159E+03  0.79258223692E+02 0.  0.
         -6    2    1    2    0  502 -0.12489066790E+03 -0.12762928249E+01  0.94580265894E+02  0.23294068005E+03  0.17238510920E+03 0.  0.
        -24    2    5    5    0    0 -0.13422375215E+03  0.15076797697E+02  0.12263265268E+03  0.19882973701E+03  0.79064349404E+02 0.  0.
          5    1    3    3  501    0  0.76022764164E+02  0.35574357743E+02  0.27782342937E+02  0.88537812143E+02  0.47000000000E+01 0. -1.
        -11    1    4    4    0    0  0.37697602834E+01 -0.49623320381E+02 -0.56365539003E+02  0.75191482265E+02  0.00000000000E+00 0.  1.
         12    1    4    4    0    0  0.45098143454E+02  0.15325255463E+02 -0.29468523247E+02  0.56009819321E+02  0.00000000000E+00 0. -1.
         -5    1    5    5    0  502  0.93330842485E+01 -0.16353090522E+02 -0.28052386782E+02  0.34110943044E+02  0.47000000000E+01 0.  1.
         11    1    6    6    0    0 -0.16248107433E+02  0.30993606656E+02  0.14071261215E+02  0.37717436828E+02  0.00000000000E+00 0. -1.
        -12    1    6    6    0    0 -0.11797564472E+03 -0.15916808958E+02  0.10856139146E+03  0.16111230018E+03  0.00000000000E+00 0.  1.
</event>
<event>
12    1  0.8406581E-002  0.1785117E+03  0.7818608E-02  0.1169268E+00
         21   -1    0    0  501  502  0.00000000000E+00  0.00000000000E+00  0.25300267295E+03  0.25300267295E+03  0.00000000000E+00 0. -1.
         21   -1    0    0  502  503 -0.00000000000E+00 -0.00000000000E+00 -0.13012722439E+03  0.13012722439E+03  0.00000000000E+00 0. -1.
         -6    2    1    2    0  503  0.48247023738E+02 -0.11543746548E+01  0.26937472034E+02  0.18053265752E+03  0.17186420555E+03 0.  0.
        -24    2    3    3    0    0 -0.38841364758E+02  0.49417682761E+01  0.24751290206E+02  0.93077413188E+02  0.80732309449E+02 0.  0.
          6    2    1    2  501    0 -0.48247023738E+02  0.11543746548E+01  0.95937976532E+02  0.20259723982E+03  0.17179184603E+03 0.  0.
         24    2    5    5    0    0  0.43068147601E+02  0.36132279173E+00  0.41214482157E+02  0.96033454772E+02  0.75291400598E+02 0.  0.
          5    1    5    5  501    0 -0.91315171339E+02  0.79305186311E+00  0.54723494376E+02  0.10656378505E+03  0.47000000000E+01 0. -1.
        -11    1    6    6    0    0  0.58939270868E+01  0.30408651268E+02 -0.27417393819E+01  0.31095684319E+02  0.00000000000E+00 0.  1.
         12    1    6    6    0    0  0.37174220514E+02 -0.30047328476E+02  0.43956221539E+02  0.64937770453E+02  0.00000000000E+00 0. -1.
         -5    1    3    3    0  503  0.87088388496E+02 -0.60961429309E+01  0.21861818286E+01  0.87455244328E+02  0.47000000000E+01 0.  1.
         13    1    4    4    0    0  0.14688968092E+02  0.26957074217E+02  0.15740828279E+02  0.34499613170E+02  0.00000000000E+00 0. -1.
        -14    1    4    4    0    0 -0.53530332850E+02 -0.22015305941E+02  0.90104619263E+01  0.58577800018E+02  0.00000000000E+00 0.  1.
</event>
<event>
12    1  0.8406581E-002  0.2405023E+03  0.7818608E-02  0.1121382E+00
         21   -1    0    0  501  502  0.00000000000E+00  0.00000000000E+00  0.15924702372E+04  0.15924702372E+04  0.00000000000E+00 0. -1.
         21   -1    0    0  502  503 -0.00000000000E+00 -0.00000000000E+00 -0.51740866835E+02  0.51740866835E+02  0.00000000000E+00 0.  1.
         -6    2    1    2    0  503  0.88180059997E+02  0.12549485346E+03  0.12553241925E+04  0.12781549969E+04  0.18524763618E+03 0.  0.
        -24    2    3    3    0    0  0.24810383636E+02  0.77156301458E+02  0.10534210724E+04  0.10610391491E+04  0.97670210877E+02 0.  0.
          6    2    1    2  501    0 -0.88180059997E+02 -0.12549485346E+03  0.28540517791E+03  0.36605610713E+03  0.17034164719E+03 0.  0.
         24    2    5    5    0    0 -0.10505457739E+03 -0.45057463328E+02  0.20033085653E+03  0.24767260648E+03  0.90236515297E+02 0.  0.
          5    1    5    5  501    0  0.16874517390E+02 -0.80437390132E+02  0.85074321381E+02  0.11838350065E+03  0.47000000000E+01 0. -1.
        -11    1    6    6    0    0 -0.11575312045E+03 -0.41164418734E+02  0.13993255521E+03  0.18621067174E+03  0.00000000000E+00 0.  1.
         12    1    6    6    0    0  0.10698543061E+02 -0.38930445940E+01  0.60398301320E+02  0.61461934742E+02  0.00000000000E+00 0. -1.
         -5    1    3    3    0  503  0.63369676361E+02  0.48338552002E+02  0.20190312010E+03  0.21711584787E+03  0.47000000000E+01 0.  1.
         13    1    4    4    0    0  0.15896762465E+02  0.78252005684E+02  0.41822315471E+03  0.42577774788E+03  0.00000000000E+00 0. -1.
        -14    1    4    4    0    0  0.89136211709E+01 -0.10957042262E+01  0.63519791768E+03  0.63526140119E+03  0.00000000000E+00 0.  1.
</event>
<event>
12    1  0.8406581E-002  0.2042542E+03  0.7818608E-02  0.1146351E+00
         21   -1    0    0  503  502  0.00000000000E+00  0.00000000000E+00  0.34652031688E+03  0.34652031688E+03  0.00000000000E+00 0.  1.
         21   -1    0    0  501  503 -0.00000000000E+00 -0.00000000000E+00 -0.22501757695E+03  0.22501757695E+03  0.00000000000E+00 0.  1.
          6    2    1    2  501    0  0.11004449736E+03  0.41756760357E+01  0.25595583992E+03  0.32700281862E+03  0.17114386851E+03 0.  0.
         24    2    3    3    0    0  0.89606440249E+02 -0.60402044390E+02  0.15465277855E+03  0.20505038365E+03  0.80314735999E+02 0.  0.
         -6    2    1    2    0  502 -0.11004449736E+03 -0.41756760357E+01 -0.13445309999E+03  0.24453507521E+03  0.17202482159E+03 0.  0.
        -24    2    5    5    0    0 -0.91047357273E+01  0.22438802847E+02 -0.28801194420E+02  0.95936350065E+02  0.88248956809E+02 0.  0.
          5    1    3    3  501    0  0.20438057110E+02  0.64577720426E+02  0.10130306137E+03  0.12195243497E+03  0.47000000000E+01 0. -1.
        -13    1    4    4    0    0  0.69824780321E+01 -0.50849368059E+02  0.54512577554E+02  0.74873455530E+02  0.00000000000E+00 0.  1.
         14    1    4    4    0    0  0.82623962217E+02 -0.95526763309E+01  0.10014020100E+03  0.13017692812E+03  0.00000000000E+00 0. -1.
         -5    1    5    5    0  502 -0.10093976163E+03 -0.26614478883E+02 -0.10565190557E+03  0.14859872515E+03  0.47000000000E+01 0.  1.
         13    1    6    6    0    0 -0.95011995291E+01 -0.17884459029E+01 -0.57539661158E+02  0.58346241845E+02  0.00000000000E+00 0. -1.
        -14    1    6    6    0    0  0.39646380181E+00  0.24227248750E+02  0.28738466738E+02  0.37590108220E+02  0.00000000000E+00 0.  1.
</event>
<event>
12    1  0.8406581E-002  0.2082788E+03  0.7818608E-02  0.1143131E+00
         21   -1    0    0  503  502  0.00000000000E+00  0.00000000000E+00  0.71246486855E+02  0.71246486855E+02  0.00000000000E+00 0.  1.
         21   -1    0    0  501  503 -0.00000000000E+00 -0.00000000000E+00 -0.92595611693E+03  0.92595611693E+03  0.00000000000E+00 0. -1.
          6    2    1    2  501    0  0.70003216632E+02  0.93091748722E+02 -0.71977527970E+03  0.74903466472E+03  0.17149329921E+03 0.  0.
         24    2    3    3    0    0  0.67564463289E+02  0.26233475258E+00 -0.24235789407E+03  0.26264727004E+03  0.75373829134E+02 0.  0.
         -6    2    1    2    0  502 -0.70003216632E+02 -0.93091748722E+02 -0.13493435037E+03  0.24816793906E+03  0.17266592903E+03 0.  0.
        -24    2    5    5    0    0 -0.11016139076E+03 -0.90396142778E+02 -0.12758515432E+03  0.20698486094E+03  0.79106045366E+02 0.  0.
          5    1    3    3  501    0  0.24387533426E+01  0.92829413969E+02 -0.47741738562E+03  0.48638739469E+03  0.47000000000E+01 0. -1.
        -11    1    4    4    0    0 -0.13195453402E+02  0.89457847213E+01 -0.18031088629E+02  0.24067970664E+02  0.00000000000E+00 0.  1.
         12    1    4    4    0    0  0.80759916691E+02 -0.86834499687E+01 -0.22432680545E+03  0.23857929937E+03  0.00000000000E+00 0. -1.
         -5    1    5    5    0  502  0.40158174125E+02 -0.26956059441E+01 -0.73491960508E+01  0.41183078115E+02  0.47000000000E+01 0.  1.
         11    1    6    6    0    0 -0.83215028774E+02 -0.41677251631E+02 -0.11833271894E+03  0.15054689199E+03  0.00000000000E+00 0. -1.
        -12    1    6    6    0    0 -0.26946361983E+02 -0.48718891147E+02 -0.92524353847E+01  0.56437968950E+02  0.00000000000E+00 0.  1.
</event>
<event>
12    1  0.8406581E-002  0.1834824E+03  0.7818608E-02  0.1164711E+00
         21   -1    0    0  503  502  0.00000000000E+00  0.00000000000E+00  0.35339394049E+03  0.35339394049E+03  0.00000000000E+00 0.  1.
         21   -1    0    0  501  503 -0.00000000000E+00 -0.00000000000E+00 -0.12068930035E+03  0.12068930035E+03  0.00000000000E+00 0.  1.
          6    2    1    2  501    0 -0.59969465670E+02  0.78453394134E+01  0.66998225186E+01  0.18360470380E+03  0.17322792348E+03 0.  0.
         24    2    3    3    0    0 -0.56064696520E+02 -0.45377538823E+02  0.45248371529E+02  0.11760468395E+03  0.81123827175E+02 0.  0.
         -6    2    1    2    0  502  0.59969465670E+02 -0.78453394134E+01  0.22600481762E+03  0.29047853704E+03  0.17216769944E+03 0.  0.
        -24    2    5    5    0    0  0.42592401070E+02 -0.70033431680E+02  0.17190082384E+03  0.20610642472E+03  0.78810982064E+02 0.  0.
          5    1    3    3  501    0 -0.39047691496E+01  0.53222878237E+02 -0.38548549010E+02  0.66000019854E+02  0.47000000000E+01 0. -1.
        -13    1    4    4    0    0 -0.18182209881E+02 -0.48518362432E+02 -0.77437068262E+01  0.52388827480E+02  0.00000000000E+00 0.  1.
         14    1    4    4    0    0 -0.37882486639E+02  0.31408236088E+01  0.52992078355E+02  0.65215856471E+02  0.00000000000E+00 0. -1.
         -5    1    5    5    0  502  0.17377064600E+02  0.62188092267E+02  0.54103993787E+02  0.84372112321E+02  0.47000000000E+01 0.  1.
         13    1    6    6    0    0 -0.13125227118E+02 -0.20077789087E+02  0.98150528498E+02  0.10103917778E+03  0.00000000000E+00 0. -1.
        -14    1    6    6    0    0  0.55717628188E+02 -0.49955642593E+02  0.73750295338E+02  0.10506724694E+03  0.00000000000E+00 0.  1.
</event>
<event>
12    1  0.8406581E-002  0.2994033E+03  0.7818608E-02  0.1085917E+00
         21   -1    0    0  501  502  0.00000000000E+00  0.00000000000E+00  0.10472532246E+03  0.10472532246E+03  0.00000000000E+00 0.  1.
         21   -1    0    0  502  503 -0.00000000000E+00 -0.00000000000E+00 -0.10632824823E+04  0.10632824823E+04  0.00000000000E+00 0. -1.
         -6    2    1    2    0  503  0.16862143358E+03  0.17804739433E+03 -0.21807465914E+03  0.37040372862E+03  0.17177980885E+03 0.  0.
        -24    2    3    3    0    0  0.12040065305E+02  0.56943987891E+02 -0.82700203114E+02  0.13054524266E+03  0.82553957250E+02 0.  0.
          6    2    1    2  501    0 -0.16862143358E+03 -0.17804739433E+03 -0.74048250069E+03  0.79760407612E+03  0.16650485254E+03 0.  0.
         24    2    5    5    0    0 -0.92530387416E+02 -0.11903455477E+03 -0.28429263079E+03  0.33133843301E+03  0.78941493809E+02 0.  0.
          5    1    5    5  501    0 -0.76091046168E+02 -0.59012839554E+02 -0.45618986990E+03  0.46626564311E+03  0.47000000000E+01 0. -1.
        -11    1    6    6    0    0  0.88079555861E+01  0.42338332820E+01 -0.25420233551E+02  0.27234054043E+02  0.00000000000E+00 0.  1.
         12    1    6    6    0    0 -0.10133834300E+03 -0.12326838806E+03 -0.25887239724E+03  0.30410437897E+03  0.00000000000E+00 0. -1.
         -5    1    3    3    0  503  0.15658136828E+03  0.12110340644E+03 -0.13537445602E+03  0.23985848596E+03  0.47000000000E+01 0.  1.
         11    1    4    4    0    0 -0.28865429965E+02 -0.90243423401E+00 -0.14962093325E+02  0.32525246675E+02  0.00000000000E+00 0. -1.
        -12    1    4    4    0    0  0.40905495270E+02  0.57846422125E+02 -0.67738109789E+02  0.98019995989E+02  0.00000000000E+00 0.  1.
</event>
<event>
12    1  0.8406581E-002  0.1849550E+03  0.7818608E-02  0.1163239E+00
         21   -1    0    0  503  502  0.00000000000E+00  0.00000000000E+00  0.32326336876E+02  0.32326336876E+02  0.00000000000E+00 0.  1.
         21   -1    0    0  501  503 -0.00000000000E+00 -0.00000000000E+00 -0.11948343109E+04  0.11948343109E+04  0.00000000000E+00 0.  1.
          6    2    1    2  501    0  0.36753608792E+00  0.67811295434E+02 -0.37020322424E+03  0.41355437762E+03  0.17140096015E+03 0.  0.
         24    2    3    3    0    0 -0.39260887555E+02 -0.15304006272E+02 -0.15330083306E+03  0.17786962496E+03  0.79754800267E+02 0.  0.
         -6    2    1    2    0  502 -0.36753608792E+00 -0.67811295434E+02 -0.79230474981E+03  0.81360627018E+03  0.17207509825E+03 0.  0.
        -24    2    5    5    0    0 -0.28436936211E+02  0.60945433530E+01 -0.59470686400E+03  0.60072842092E+03  0.79703066515E+02 0.  0.
          5    1    3    3  501    0  0.39628423643E+02  0.83115301706E+02 -0.21690239117E+03  0.23568475266E+03  0.47000000000E+01 0. -1.
        -11    1    4    4    0    0 -0.27068243314E+02 -0.37521480436E+02 -0.38160338083E+02  0.59973016372E+02  0.00000000000E+00 0.  1.
         12    1    4    4    0    0 -0.12192644241E+02  0.22217474165E+02 -0.11514049498E+03  0.11789660859E+03  0.00000000000E+00 0. -1.
         -5    1    5    5    0  502  0.28069400123E+02 -0.73905838787E+02 -0.19759788582E+03  0.21287784927E+03  0.47000000000E+01 0.  1.
         11    1    6    6    0    0 -0.21320858114E+02 -0.12763359045E+02 -0.51844860909E+02  0.57492364080E+02  0.00000000000E+00 0. -1.
        -12    1    6    6    0    0 -0.71160780964E+01  0.18857902398E+02 -0.54286200309E+03  0.54323605684E+03  0.00000000000E+00 0.  1.
</event>
<event>
12    1  0.8406581E-002  0.2170237E+03  0.7818608E-02  0.1136159E+00
         21   -1    0    0  501  502  0.00000000000E+00  0.00000000000E+00  0.29958189810E+02  0.29958189810E+02  0.00000000000E+00 0. -1.
         21   -1    0    0  502  503 -0.00000000000E+00 -0.00000000000E+00 -0.20382472631E+04  0.20382472631E+04  0.00000000000E+00 0. -1.
         -6    2    1    2    0  503  0.12684093156E+03  0.35763399212E+02 -0.14997358256E+04  0.15153569985E+04  0.17242866260E+03 0.  0.
        -24    2    3    3    0    0  0.13488929786E+03  0.17221874561E+02 -0.80851896135E+03  0.82382868545E+03  0.80616849737E+02 0.  0.
          6    2    1    2  501    0 -0.12684093156E+03 -0.35763399212E+02 -0.50855324769E+03  0.55284845440E+03  0.17218410253E+03 0.  0.
         24    2    5    5    0    0 -0.10160168789E+03  0.12265303953E+02 -0.19556558000E+03  0.23515812426E+03  0.81117856590E+02 0.  0.
          5    1    5    5  501    0 -0.25239243666E+02 -0.48028703165E+02 -0.31298766768E+03  0.31769033015E+03  0.47000000000E+01 0. -1.
        -11    1    6    6    0    0 -0.25611630446E+02 -0.32993767789E+02 -0.71236235064E+02  0.82578117641E+02  0.00000000000E+00 0.  1.
         12    1    6    6    0    0 -0.75990057445E+02  0.45259071742E+02 -0.12432934494E+03  0.15258000661E+03  0.00000000000E+00 0. -1.
         -5    1    3    3    0  503 -0.80483663005E+01  0.18541524651E+02 -0.69121686426E+03  0.69152831307E+03  0.47000000000E+01 0.  1.
         13    1    4    4    0    0  0.11781464770E+03 -0.43399049761E+01 -0.48421758299E+03  0.49836311427E+03  0.00000000000E+00 0. -1.
        -14    1    4    4    0    0  0.17074650156E+02  0.21561779537E+02 -0.32430137836E+03  0.32546557118E+03  0.00000000000E+00 0.  1.
</event>
<event>
12    1  0.8406581E-002  0.1752234E+03  0.7818608E-02  0.1172818E+00
         21   -1    0    0  501  502  0.00000000000E+00  0.00000000000E+00  0.20460958644E+02  0.20460958644E+02  0.00000000000E+00 0.  1.
         21   -1    0    0  502  503 -0.00000000000E+00 -0.00000000000E+00 -0.19846080371E+04  0.19846080371E+04  0.00000000000E+00 0.  1.
         -6    2    1    2    0  503 -0.14556154976E+02 -0.26226989612E+02 -0.48420958698E+03  0.51493899301E+03  0.17263691890E+03 0.  0.
        -24    2    3    3    0    0  0.45312918024E+02 -0.43247527179E+02 -0.22900948589E+03  0.25221635181E+03  0.85112480561E+02 0.  0.
          6    2    1    2  501    0  0.14556154976E+02  0.26226989612E+02 -0.14799374915E+04  0.14901300027E+04  0.17138468351E+03 0.  0.
         24    2    5    5    0    0  0.65957282470E+02  0.38067531445E+02 -0.72833132211E+03  0.73666056196E+03  0.80017302706E+02 0.  0.
          5    1    5    5  501    0 -0.51401127494E+02 -0.11840541833E+02 -0.75160616937E+03  0.75346944077E+03  0.47000000000E+01 0. -1.
        -13    1    6    6    0    0  0.34448613166E+02  0.57435730939E+02 -0.57705407095E+03  0.58092768133E+03  0.00000000000E+00 0.  1.
         14    1    6    6    0    0  0.31508669304E+02 -0.19368199494E+02 -0.15127725116E+03  0.15573288064E+03  0.00000000000E+00 0. -1.
         -5    1    3    3    0  503 -0.59869073000E+02  0.17020537566E+02 -0.25520010109E+03  0.26272264120E+03  0.47000000000E+01 0.  1.
         11    1    4    4    0    0 -0.12745022513E+02  0.13779690690E+02 -0.82635821942E+02  0.84740749008E+02  0.00000000000E+00 0. -1.
        -12    1    4    4    0    0  0.58057940537E+02 -0.57027217869E+02 -0.14637366394E+03  0.16747560280E+03  0.00000000000E+00 0.  1.
</event>
<event>
12    1  0.8406581E-002  0.1861960E+03  0.7818608E-02  0.1161979E+00
         21   -1    0    0  503  502  0.00000000000E+00  0.00000000000E+00  0.22054515822E+03  0.22054515822E+03  0.00000000000E+00 0. -1.
         21   -1    0    0  501  503 -0.00000000000E+00 -0.00000000000E+00 -0.22009125214E+03  0.22009125214E+03  0.00000000000E+00 0. -1.
          6    2    1    2  501    0 -0.63383955307E+02 -0.33603225924E+02 -0.11768997122E+03  0.22012126789E+03  0.17162674811E+03 0.  0.
         24    2    3    3    0    0 -0.37846560554E+02 -0.41541361274E+02  0.16847498613E+01  0.97697468908E+02  0.79899375509E+02 0.  0.
         -6    2    1    2    0  502  0.63383955307E+02  0.33603225924E+02  0.11814387729E+03  0.22051514247E+03  0.17182039965E+03 0.  0.
        -24    2    5    5    0    0  0.33339896932E+02 -0.22059724152E+02  0.31870767471E+01  0.89220948213E+02  0.79699686228E+02 0.  0.
          5    1    3    3  501    0 -0.25537394753E+02  0.79381353499E+01 -0.11937472108E+03  0.12242379898E+03  0.47000000000E+01 0. -1.
        -13    1    4    4    0    0  0.16019747457E+02  0.68556168456E+01  0.16257321436E+02  0.23831330034E+02  0.00000000000E+00 0.  1.
         14    1    4    4    0    0 -0.53866308011E+02 -0.48396978119E+02 -0.14572571574E+02  0.73866138874E+02  0.00000000000E+00 0. -1.
         -5    1    5    5    0  502  0.30044058376E+02  0.55662950076E+02  0.11495680054E+03  0.13129419426E+03  0.47000000000E+01 0.  1.
         11    1    6    6    0    0  0.33389503272E+02  0.42377527100E-01  0.36356343037E+02  0.49362378424E+02  0.00000000000E+00 0. -1.
        -12    1    6    6    0    0 -0.49606340762E-01 -0.22102101679E+02 -0.33169266290E+02  0.39858569789E+02  0.00000000000E+00 0.  1.
</event>
<event>
12    1  0.8406581E-002  0.1878851E+03  0.7818608E-02  0.1160791E+00
         21   -1    0    0  501  502  0.00000000000E+00  0.00000000000E+00  0.22262908566E+03  0.22262908566E+03  0.00000000000E+00 0. -1.
         21   -1    0    0  502  503 -0.00000000000E+00 -0.00000000000E+00 -0.31681720531E+03  0.31681720531E+03  0.00000000000E+00 0. -1.
         -6    2    1    2    0  503  0.50854117321E+02 -0.53411912196E+02 -0.23873186743E+03  0.30379881678E+03  0.17280579545E+03 0.  0.
        -24    2    3    3    0    0 -0.15614981793E+02  0.23977483868E+02 -0.10669737450E+03  0.13687830551E+03  0.80824460443E+02 0.  0.
          6    2    1    2  501    0 -0.50854117321E+02  0.53411912196E+02  0.14454374779E+03  0.23564747418E+03  0.17087382319E+03 0.  0.
         24    2    5    5    0    0  0.34039105214E+02  0.47492386084E+01  0.81516849207E+02  0.11915972815E+03  0.79829995339E+02 0.  0.
          5    1    5    5  501    0 -0.84893222535E+02  0.48662673588E+02  0.63026898578E+02  0.11648774604E+03  0.47000000000E+01 0. -1.
        -11    1    6    6    0    0 -0.24589498821E+02  0.80137439284E+01  0.13071532689E+02  0.28978069481E+02  0.00000000000E+00 0.  1.
         12    1    6    6    0    0  0.58628604035E+02 -0.32645053200E+01  0.68445316518E+02  0.90181658664E+02  0.00000000000E+00 0. -1.
         -5    1    3    3    0  503  0.66469099114E+02 -0.77389396064E+02 -0.13203449293E+03  0.16692051127E+03  0.47000000000E+01 0.  1.
         11    1    4    4    0    0  0.27077831522E+01 -0.67283406945E+01 -0.10028968365E+03  0.10055159524E+03  0.00000000000E+00 0. -1.
        -12    1    4    4    0    0 -0.18322764945E+02  0.30705824562E+02 -0.64076908481E+01  0.36326710273E+02  0.00000000000E+00 0.  1.
</event>
<event>
12    1  0.8406581E-002  0.2032694E+03  0.7818608E-02  0.1147104E+00
         21   -1    0    0  503  502  0.00000000000E+00  0.00000000000E+00  0.18440982819E+04  0.18440982819E+04  0.00000000000E+00 0. -1.
         21   -1    0    0  501  503 -0.00000000000E+00 -0.00000000000E+00 -0.28778138470E+02  0.28778138470E+02  0.00000000000E+00 0. -1.
          6    2    1    2  501    0 -0.29351015008E+02  0.10312881440E+03  0.46447815422E+03  0.50682645390E+03  0.17215128284E+03 0.  0.
         24    2    3    3    0    0 -0.47209476529E+02  0.71155837451E+01  0.31321078515E+03  0.32671156819E+03  0.79750151400E+02 0.  0.
         -6    2    1    2    0  502  0.29351015008E+02 -0.10312881440E+03  0.13508419892E+04  0.13660499665E+04  0.17268872758E+03 0.  0.
        -24    2    5    5    0    0  0.55027197067E+02 -0.40928908414E+01  0.49195140170E+03  0.50107452647E+03  0.77554853322E+02 0.  0.
          5    1    3    3  501    0  0.17858461521E+02  0.96013230659E+02  0.15126736907E+03  0.18011488571E+03  0.47000000000E+01 0. -1.
        -11    1    4    4    0    0 -0.28370755406E+01 -0.26832976908E+02  0.18359845249E+03  0.18557060490E+03  0.00000000000E+00 0.  1.
         12    1    4    4    0    0 -0.44372400988E+02  0.33948560653E+02  0.12961233266E+03  0.14114096328E+03  0.00000000000E+00 0. -1.
         -5    1    5    5    0  502 -0.25676182059E+02 -0.99035923562E+02  0.85889058755E+03  0.86497544003E+03  0.47000000000E+01 0.  1.
         13    1    6    6    0    0 -0.51428055021E+01 -0.26465401679E+02  0.22017419679E+03  0.22181871622E+03  0.00000000000E+00 0. -1.
        -14    1    6    6    0    0  0.60170002570E+02  0.22372510838E+02  0.27177720490E+03  0.27925581025E+03  0.00000000000E+00 0.  1.
</event>
<event>
12    1  0.8406581E-002  0.1761372E+03  0.7818608E-02  0.1171949E+00
         21   -1    0    0  503  502  0.00000000000E+00  0.00000000000E+00  0.11116911215E+03  0.11116911215E+03  0.00000000000E+00 0.  1.
         21   -1    0    0  501  503 -0.00000000000E+00 -0.00000000000E+00 -0.29423615375E+03  0.29423615375E+03  0.00000000000E+00 0.  1.
          6    2    1    2  501    0 -0.23845849812E+02 -0.16624368892E+02 -0.14048074520E+03  0.22419297877E+03  0.17228655712E+03 0.  0.
         24    2    3    3    0    0  0.50918900481E+02 -0.21852279445E+02 -0.56313340670E+02  0.11139519103E+03  0.78533048478E+02 0.  0.
         -6    2    1    2    0  502  0.23845849812E+02  0.16624368892E+02 -0.42586296401E+02  0.18121228713E+03  0.17372192197E+03 0.  0.
        -24    2    5    5    0    0  0.55987861887E+01 -0.13369628507E+02 -0.90416187857E+02  0.12169435935E+03  0.80151960037E+02 0.  0.
          5    1    3    3  501    0 -0.74764750293E+02  0.52279105528E+01 -0.84167404531E+02  0.11279778775E+03  0.47000000000E+01 0. -1.
        -13    1    4    4    0    0  0.17011642226E+02  0.16961533878E+02  0.11161441265E+02  0.26489004772E+02  0.00000000000E+00 0.  1.
         14    1    4    4    0    0  0.33907258255E+02 -0.38813813323E+02 -0.67474781935E+02  0.84906186254E+02  0.00000000000E+00 0. -1.
         -5    1    5    5    0  502  0.18247063623E+02  0.29993997400E+02  0.47829891455E+02  0.59517927783E+02  0.47000000000E+01 0.  1.
         11    1    6    6    0    0  0.31020431778E+02 -0.86372332054E+01 -0.51703697275E+01  0.32612907081E+02  0.00000000000E+00 0. -1.
        -12    1    6    6    0    0 -0.25421645590E+02 -0.47323953019E+01 -0.85245818129E+02  0.89081452269E+02  0.00000000000E+00 0.  1.
</event>
<event>
12    1  0.8406581E-002  0.2015060E+03  0.7818608E-02  0.1148901E+00
         21   -1    0    0  503  502  0.00000000000E+00  0.00000000000E+00  0.76934910664E+03  0.76934910664E+03  0.00000000000E+00 0.  1.
         21   -1    0    0  501  503 -0.00000000000E+00 -0.00000000000E+00 -0.54485965053E+02  0.54485965053E+02  0.00000000000E+00 0.  1.
          6    2    1    2  501    0 -0.10267201303E+03  0.16818618604E+02  0.27219618631E+03  0.33746207634E+03  0.17019248200E+03 0.  0.
         24    2    3    3    0    0 -0.87030258595E+02  0.62377004982E+02  0.13570787026E+03  0.19264708585E+03  0.85035974585E+02 0.  0.
         -6    2    1    2    0  502  0.10267201303E+03 -0.16818618604E+02  0.44266695527E+03  0.48637299535E+03  0.17256954867E+03 0.  0.
        -24    2    5    5    0    0  0.10770502165E+03 -0.61822825387E+02  0.27242545225E+03  0.31014879397E+03  0.80958099883E+02 0.  0.
          5    1    3    3  501    0 -0.15641754438E+02 -0.45558386378E+02  0.13648831605E+03  0.14481499049E+03  0.47000000000E+01 0. -1.
        -13    1    4    4    0    0 -0.37136206684E+02  0.76356960820E+02  0.83141974739E+02  0.11883632137E+03  0.00000000000E+00 0.  1.
         14    1    4    4    0    0 -0.49894051911E+02 -0.13979955838E+02  0.52565895517E+02  0.73810764478E+02  0.00000000000E+00 0. -1.
         -5    1    5    5    0  502 -0.50330086194E+01  0.45004206782E+02  0.17024150302E+03  0.17622420139E+03  0.47000000000E+01 0.  1.
         11    1    6    6    0    0 -0.93978151313E+01  0.45588425228E+01  0.42066712819E+02  0.43344091890E+02  0.00000000000E+00 0. -1.
        -12    1    6    6    0    0  0.11710283678E+03 -0.66381667909E+02  0.23035873943E+03  0.26680470208E+03  0.00000000000E+00 0.  1.
</event>
<event>
12    1  0.8406581E-002  0.1881202E+03  0.7818608E-02  0.1160444E+00
         21   -1    0    0  501  502  0.00000000000E+00  0.00000000000E+00  0.22166466297E+03  0.22166466297E+03  0.00000000000E+00 0.  1.
         21   -1    0    0  502  503 -0.00000000000E+00 -0.00000000000E+00 -0.24557847270E+03  0.24557847270E+03  0.00000000000E+00 0.  1.
         -6    2    1    2    0  503  0.26632183637E+02 -0.68915306347E+02 -0.15099193467E+03  0.24122145680E+03  0.17300472314E+03 0.  0.
        -24    2    3    3    0    0  0.46841630972E+02  0.16032947019E+02 -0.10866433582E+03  0.14407032126E+03  0.80604750519E+02 0.  0.
          6    2    1    2  501    0 -0.26632183637E+02  0.68915306347E+02  0.12707812494E+03  0.22602167888E+03  0.17169262311E+03 0.  0.
         24    2    5    5    0    0 -0.74236197240E+02  0.69318541380E+02  0.57682939732E+02  0.14173593608E+03  0.80284997849E+02 0.  0.
          5    1    5    5  501    0  0.47604013603E+02 -0.40323503329E+00  0.69395185206E+02  0.84285742800E+02  0.47000000000E+01 0. -1.
        -13    1    6    6    0    0 -0.35676747148E+02  0.52406157432E+02  0.73222667663E+02  0.96854502650E+02  0.00000000000E+00 0.  1.
         14    1    6    6    0    0 -0.38559450092E+02  0.16912383948E+02 -0.15539727931E+02  0.44881433426E+02  0.00000000000E+00 0. -1.
         -5    1    3    3    0  503 -0.20209447334E+02 -0.84948253366E+02 -0.42327598847E+02  0.97151135534E+02  0.47000000000E+01 0.  1.
         13    1    4    4    0    0 -0.71182157698E+01  0.26830915340E+02 -0.72539038835E+01  0.28691220526E+02  0.00000000000E+00 0. -1.
        -14    1    4    4    0    0  0.53959846741E+02 -0.10797968321E+02 -0.10141043194E+03  0.11537910074E+03  0.00000000000E+00 0.  1.
</event>
<event>
12    1  0.8406581E-002  0.2164892E+03  0.7818608E-02  0.1137840E+00
         21   -1    0    0  501  502  0.00000000000E+00  0.00000000000E+00  0.56179939564E+03  0.56179939564E+03  0.00000000000E+00 0. -1.
         21   -1    0    0  502  503 -0.00000000000E+00 -0.00000000000E+00 -0.12896531462E+03  0.12896531462E+03  0.00000000000E+00 0. -1.
         -6    2    1    2    0  503  0.56159441721E+02  0.11722817178E+03  0.75910838234E+01  0.21662227988E+03  0.17312209689E+03 0.  0.
        -24    2    3    3    0    0  0.16323030560E+01  0.48142555763E+02 -0.54789413943E+02  0.10864335743E+03  0.80505460335E+02 0.  0.
          6    2    1    2  501    0 -0.56159441721E+02 -0.11722817178E+03  0.42524299719E+03  0.47414243039E+03  0.16456947006E+03 0.  0.
         24    2    5    5    0    0 -0.84521839379E+02 -0.49664515980E+02  0.33276403528E+03  0.35605889392E+03  0.80221738253E+02 0.  0.
          5    1    5    5  501    0  0.28362397658E+02 -0.67563655804E+02  0.92478961918E+02  0.11808353646E+03  0.47000000000E+01 0. -1.
        -13    1    6    6    0    0 -0.34975409141E+02  0.16836751089E+02  0.64604987979E+02  0.75369489209E+02  0.00000000000E+00 0.  1.
         14    1    6    6    0    0 -0.49546430238E+02 -0.66501267069E+02  0.26815904730E+03  0.28068940471E+03  0.00000000000E+00 0. -1.
         -5    1    3    3    0  503  0.54527138665E+02  0.69085616021E+02  0.62380497767E+02  0.10797892245E+03  0.47000000000E+01 0.  1.
         13    1    4    4    0    0  0.55029887896E+01  0.61083754404E+02 -0.10352402866E+02  0.62198715283E+02  0.00000000000E+00 0. -1.
        -14    1    4    4    0    0 -0.38706857335E+01 -0.12941198641E+02 -0.44437011077E+02  0.46444642143E+02  0.00000000000E+00 0.  1.
</event>
<event>
12    1  0.8406581E-002  0.1987469E+03  0.7818608E-02  0.1150818E+00
         21   -1    0    0  501  502  0.00000000000E+00  0.00000000000E+00  0.10255235173E+03  0.10255235173E+03  0.00000000000E+00 0.  1.
         21   -1    0    0  502  503 -0.00000000000E+00 -0.00000000000E+00 -0.48187788736E+03  0.48187788736E+03  0.00000000000E+00 0. -1.
         -6    2    1    2    0  503 -0.93123165381E+02 -0.36022603921E+02 -0.58680741842E+02  0.20722878419E+03  0.17184524319E+03 0.  0.
        -24    2    3    3    0    0 -0.10482423684E+03 -0.80805029899E+01 -0.93116349650E+02  0.16112480212E+03  0.78975516003E+02 0.  0.
          6    2    1    2  501    0  0.93123165381E+02  0.36022603921E+02 -0.32064479379E+03  0.37720145491E+03  0.17175069688E+03 0.  0.
         24    2    5    5    0    0  0.14052255769E+02 -0.21218113827E+01 -0.56227849335E+02  0.98551826019E+02  0.79680131746E+02 0.  0.
          5    1    5    5  501    0  0.79070909611E+02  0.38144415304E+02 -0.26441694446E+03  0.27864962889E+03  0.47000000000E+01 0. -1.
        -13    1    6    6    0    0  0.36850561518E+02 -0.27453955964E+02 -0.39456646287E+02  0.60568230274E+02  0.00000000000E+00 0.  1.
         14    1    6    6    0    0 -0.22798305748E+02  0.25332144581E+02 -0.16771203048E+02  0.37983595746E+02  0.00000000000E+00 0. -1.
         -5    1    3    3    0  503  0.11701071455E+02 -0.27942100931E+02  0.34435607808E+02  0.46103982071E+02  0.47000000000E+01 0.  1.
         11    1    4    4    0    0 -0.39804188641E+02 -0.42206724468E+02 -0.43229963897E+02  0.72350610241E+02  0.00000000000E+00 0. -1.
        -12    1    4    4    0    0 -0.65020048195E+02  0.34126221478E+02 -0.49886385753E+02  0.88774191875E+02  0.00000000000E+00 0.  1.
</event>
<event>
12    1  0.8406581E-002  0.2237601E+03  0.7818608E-02  0.1134579E+00
         21   -1    0    0  503  502  0.00000000000E+00  0.00000000000E+00  0.12355114430E+03  0.12355114430E+03  0.00000000000E+00 0. -1.
         21   -1    0    0  501  503 -0.00000000000E+00 -0.00000000000E+00 -0.49693697235E+03  0.49693697235E+03  0.00000000000E+00 0. -1.
          6    2    1    2  501    0  0.71793611105E+02  0.88483227450E+02 -0.33560091435E+03  0.39356024323E+03  0.17110840774E+03 0.  0.
         24    2    3    3    0    0  0.84340521704E+02  0.63678182238E+02 -0.34156558134E+03  0.36474388527E+03  0.72130582935E+02 0.  0.
         -6    2    1    2    0  502 -0.71793611105E+02 -0.88483227450E+02 -0.37784913703E+02  0.22692787342E+03  0.19257454633E+03 0.  0.
        -24    2    5    5    0    0 -0.12335918478E+03 -0.60023972946E+02 -0.47050581928E+02  0.16712084906E+03  0.83037672960E+02 0.  0.
          5    1    3    3  501    0 -0.12546910600E+02  0.24805045212E+02  0.59646669837E+01  0.28816357955E+02  0.47000000000E+01 0. -1.
        -11    1    4    4    0    0  0.42066907499E+00  0.37516714636E+02 -0.71706459837E+02  0.80928964049E+02  0.00000000000E+00 0.  1.
         12    1    4    4    0    0  0.83919852629E+02  0.26161467602E+02 -0.26985912150E+03  0.28381492122E+03  0.00000000000E+00 0. -1.
         -5    1    5    5    0  502  0.51565573678E+02 -0.28459254504E+02  0.92656682251E+01  0.59807024364E+02  0.47000000000E+01 0.  1.
         11    1    6    6    0    0 -0.36891473186E+02  0.15981200470E+02 -0.31243776146E+02  0.50917120010E+02  0.00000000000E+00 0. -1.
        -12    1    6    6    0    0 -0.86467711597E+02 -0.76005173417E+02 -0.15806805782E+02  0.11620372904E+03  0.00000000000E+00 0.  1.
</event>
<event>
12    1  0.8406581E-002  0.1749717E+03  0.7818608E-02  0.1173433E+00
         21   -1    0    0  503  502  0.00000000000E+00  0.00000000000E+00  0.57130044443E+03  0.57130044443E+03  0.00000000000E+00 0. -1.
         21   -1    0    0  501  503 -0.00000000000E+00 -0.00000000000E+00 -0.21285001821E+03  0.21285001821E+03  0.00000000000E+00 0. -1.
          6    2    1    2  501    0 -0.52754191743E+01  0.11563918329E+02 -0.16044188105E+03  0.23739562900E+03  0.17450940725E+03 0.  0.
         24    2    3    3    0    0 -0.62326244789E+02  0.29982648913E+02 -0.43927207838E+02  0.10627810380E+03  0.67689849566E+02 0.  0.
         -6    2    1    2    0  502  0.52754191743E+01 -0.11563918329E+02  0.51889230728E+03  0.54675483364E+03  0.17184314737E+03 0.  0.
        -24    2    5    5    0    0  0.67981524571E+02 -0.76727188581E+00  0.30925526579E+03  0.32762381713E+03  0.84121755491E+02 0.  0.
          5    1    3    3  501    0  0.57050825615E+02 -0.18418730584E+02 -0.11651467322E+03  0.13111752520E+03  0.47000000000E+01 0. -1.
        -13    1    4    4    0    0  0.25835332382E+00 -0.14996150923E+02  0.39973271428E+01  0.15521917189E+02  0.00000000000E+00 0.  1.
         14    1    4    4    0    0 -0.62584598113E+02  0.44978799836E+02 -0.47924534981E+02  0.90756186614E+02  0.00000000000E+00 0. -1.
         -5    1    5    5    0  502 -0.62706105397E+02 -0.10796646443E+02  0.20963704149E+03  0.21913101650E+03  0.47000000000E+01 0.  1.
         11    1    6    6    0    0  0.32350937025E+02  0.19651631635E+02  0.26324313549E+03  0.26595059341E+03  0.00000000000E+00 0. -1.
        -12    1    6    6    0    0  0.35630587547E+02 -0.20418903521E+02  0.46012130294E+02  0.61673223721E+02  0.00000000000E+00 0.  1.
</event>
<event>
12    1  0.8406581E-002  0.2056164E+03  0.7818608E-02  0.1145211E+00
         21   -1    0    0  503  502  0.00000000000E+00  0.00000000000E+00  0.35640178502E+03  0.35640178502E+03  0.00000000000E+00 0. -1.
         21   -1    0    0  501  503 -0.00000000000E+00 -0.00000000000E+00 -0.15612216323E+03  0.15612216323E+03  0.00000000000E+00 0. -1.
          6    2    1    2  501    0  0.79564999883E+02 -0.78532024241E+02 -0.25930120796E+02  0.20724499350E+03  0.17256954577E+03 0.  0.
         24    2    3    3    0    0 -0.13290988715E+02 -0.31748743096E+02 -0.49861482058E+02  0.10044747450E+03  0.80118004660E+02 0.  0.
         -6    2    1    2    0  502 -0.79564999883E+02  0.78532024241E+02  0.22620974259E+03  0.30527895475E+03  0.17183283892E+03 0.  0.
        -24    2    5    5    0    0 -0.29977098690E+01  0.59721864140E+02  0.20078252830E+03  0.22230302300E+03  0.74359417996E+02 0.  0.
          5    1    3    3  501    0  0.92855988598E+02 -0.46783281145E+02  0.23931361262E+02  0.10679751900E+03  0.47000000000E+01 0. -1.
        -11    1    4    4    0    0  0.15328333168E+02 -0.14589531888E+02  0.16057161845E+02  0.26563973441E+02  0.00000000000E+00 0.  1.
         12    1    4    4    0    0 -0.28619321883E+02 -0.17159211208E+02 -0.65918643903E+02  0.73883501056E+02  0.00000000000E+00 0. -1.
         -5    1    5    5    0  502 -0.76567290014E+02  0.18810160102E+02  0.25427214296E+02  0.82975931751E+02  0.47000000000E+01 0.  1.
         13    1    6    6    0    0 -0.24777725602E+02  0.10499246031E+02  0.13326936622E+03  0.13595916235E+03  0.00000000000E+00 0. -1.
        -14    1    6    6    0    0  0.21780015733E+02  0.49222618109E+02  0.67513162073E+02  0.86343860650E+02  0.00000000000E+00 0.  1.
</event>
<event>
12    1  0.8406581E-002  0.2150782E+03  0.7818608E-02  0.1137881E+00
         21   -1    0    0  503  502  0.00000000000E+00  0.00000000000E+00  0.74597740956E+03  0.74597740956E+03  0.00000000000E+00 0.  1.
         21   -1    0    0  501  503 -0.00000000000E+00 -0.00000000000E+00 -0.94145468038E+02  0.94145468038E+02  0.00000000000E+00 0.  1.
          6    2    1    2  501    0  0.12197788920E+03  0.36150831834E+02  0.79648855139E+02  0.22935248473E+03  0.17341607201E+03 0.  0.
         24    2    3    3    0    0  0.15344498935E+03  0.48904059246E+02  0.75161577746E+02  0.19478300599E+03  0.79713141236E+02 0.  0.
         -6    2    1    2    0  502 -0.12197788920E+03 -0.36150831834E+02  0.57218308639E+03  0.61077039287E+03  0.17164352701E+03 0.  0.
        -24    2    5    5    0    0 -0.15173433807E+03 -0.52471100911E+02  0.49294264593E+03  0.52444001099E+03  0.79172894138E+02 0.  0.
          5    1    3    3  501    0 -0.31467100159E+02 -0.12753227412E+02  0.44872773930E+01  0.34569478738E+02  0.47000000000E+01 0. -1.
        -11    1    4    4    0    0  0.92445385124E+02  0.53825530600E+02  0.13353731875E+02  0.10780379924E+03  0.00000000000E+00 0.  1.
         12    1    4    4    0    0  0.60999604231E+02 -0.49214713543E+01  0.61807845871E+02  0.86979206756E+02  0.00000000000E+00 0. -1.
         -5    1    5    5    0  502  0.29756448875E+02  0.16320269077E+02  0.79240440454E+02  0.86330381881E+02  0.47000000000E+01 0.  1.
         11    1    6    6    0    0 -0.46423817226E+02 -0.55609923252E+02  0.17150257303E+03  0.18617402323E+03  0.00000000000E+00 0. -1.
        -12    1    6    6    0    0 -0.10531052085E+03  0.31388223410E+01  0.32144007290E+03  0.33826598776E+03  0.00000000000E+00 0.  1.
</event>
<event>
12    1  0.8406581E-002  0.1826465E+03  0.7818608E-02  0.1165480E+00
         21   -1    0    0  503  502  0.00000000000E+00  0.00000000000E+00  0.93730610736E+03  0.93730610736E+03  0.00000000000E+00 0. -1.
         21   -1    0    0  501  503 -0.00000000000E+00 -0.00000000000E+00 -0.12275238884E+03  0.12275238884E+03  0.00000000000E+00 0. -1.
          6    2    1    2  501    0  0.18155411388E+02 -0.56459922155E+02 -0.40088263928E+02  0.18611761781E+03  0.17180034046E+03 0.  0.
         24    2    3    3    0    0 -0.31757556834E+02 -0.65461623189E+02  0.19332748776E+02  0.10785343846E+03  0.77232392726E+02 0.  0.
         -6    2    1    2    0  502 -0.18155411388E+02  0.56459922155E+02  0.85464198245E+03  0.87394087839E+03  0.17274952673E+03 0.  0.
        -24    2    5    5    0    0 -0.24781750043E+02  0.10257155329E+03  0.68339583146E+03  0.69640912033E+03  0.82587782093E+02 0.  0.
          5    1    3    3  501    0  0.49912968222E+02  0.90017010338E+01 -0.59421012705E+02  0.78264179348E+02  0.47000000000E+01 0. -1.
        -13    1    4    4    0    0 -0.37744976874E+02 -0.65572226356E+02 -0.11425554258E+02  0.76517602149E+02  0.00000000000E+00 0.  1.
         14    1    4    4    0    0  0.59874200405E+01  0.11060316787E+00  0.30758303035E+02  0.31335836312E+02  0.00000000000E+00 0. -1.
         -5    1    5    5    0  502  0.66263386549E+01 -0.46111631131E+02  0.17124615099E+03  0.17753175806E+03  0.47000000000E+01 0.  1.
         11    1    6    6    0    0  0.20436651933E+02  0.24712754472E+02  0.33630008568E+03  0.33782558311E+03  0.00000000000E+00 0. -1.
        -12    1    6    6    0    0 -0.45218401977E+02  0.77858798813E+02  0.34709574578E+03  0.35858353722E+03  0.00000000000E+00 0.  1.
</event>
<event>
12    1  0.8406581E-002  0.2010923E+03  0.7818608E-02  0.1150196E+00
         21   -1    0    0  501  502  0.00000000000E+00  0.00000000000E+00  0.90914409681E+02  0.90914409681E+02  0.00000000000E+00 0.  1.
         21   -1    0    0  502  503 -0.00000000000E+00 -0.00000000000E+00 -0.51601879510E+03  0.51601879510E+03  0.00000000000E+00 0. -1.
         -6    2    1    2    0  503  0.79516556280E+02  0.49437395129E+02 -0.33308822735E+03  0.38578829811E+03  0.17063969351E+03 0.  0.
        -24    2    3    3    0    0  0.10181196880E+03  0.41228687695E+02 -0.15473786290E+03  0.20580104635E+03  0.79654144806E+02 0.  0.
          6    2    1    2  501    0 -0.79516556280E+02 -0.49437395129E+02 -0.92016158069E+02  0.22114490667E+03  0.17796392230E+03 0.  0.
         24    2    5    5    0    0 -0.90773405981E+02  0.26289368688E+02 -0.59232072023E+02  0.13772940618E+03  0.80808470050E+02 0.  0.
          5    1    5    5  501    0  0.11256849702E+02 -0.75726763817E+02 -0.32784086046E+02  0.83415500486E+02  0.47000000000E+01 0. -1.
        -11    1    6    6    0    0 -0.86281791031E+01 -0.10934221792E+02  0.15329992520E+02  0.20712589203E+02  0.00000000000E+00 0.  1.
         12    1    6    6    0    0 -0.82145226878E+02  0.37223590481E+02 -0.74562064542E+02  0.11701681698E+03  0.00000000000E+00 0. -1.
         -5    1    3    3    0  503 -0.22295412520E+02  0.82087074343E+01 -0.17835036445E+03  0.17998725176E+03  0.47000000000E+01 0.  1.
         13    1    4    4    0    0  0.67125117258E+02  0.52841595523E+02 -0.14441924623E+03  0.16779432132E+03  0.00000000000E+00 0. -1.
        -14    1    4    4    0    0  0.34686851541E+02 -0.11612907829E+02 -0.10318616674E+02  0.38006725039E+02  0.00000000000E+00 0.  1.
</event>
<event>
12    1  0.8406581E-002  0.1990906E+03  0.7818608E-02  0.1150543E+00
         21   -1    0    0  503  502  0.00000000000E+00  0.00000000000E+00  0.14244658058E+03  0.14244658058E+03  0.00000000000E+00 0.  1.
         21   -1    0    0  501  503 -0.00000000000E+00 -0.00000000000E+00 -0.31659452602E+03  0.31659452602E+03  0.00000000000E+00 0.  1.
          6    2    1    2  501    0 -0.85871579526E+02 -0.47549884566E+02 -0.70005323262E+01  0.19921364736E+03  0.17321128760E+03 0.  0.
         24    2    3    3    0    0 -0.78856623470E+02 -0.25377344225E+02 -0.68133260781E+02  0.13363825837E+03  0.79716160281E+02 0.  0.
         -6    2    1    2    0  502  0.85871579526E+02  0.47549884566E+02 -0.16714741311E+03  0.25982745923E+03  0.17302349889E+03 0.  0.
        -24    2    5    5    0    0  0.78194239896E+01 -0.12235930122E+02 -0.13376079159E+03  0.15588882773E+03  0.78730653916E+02 0.  0.
          5    1    3    3  501    0 -0.70149560564E+01 -0.22172540340E+02  0.61132728455E+02  0.65575388996E+02  0.47000000000E+01 0. -1.
        -11    1    4    4    0    0 -0.12224802310E+02 -0.41598432795E+02 -0.11921915679E+02  0.44966737440E+02  0.00000000000E+00 0.  1.
         12    1    4    4    0    0 -0.66631821160E+02  0.16221088570E+02 -0.56211345102E+02  0.88671520928E+02  0.00000000000E+00 0. -1.
         -5    1    5    5    0  502  0.78052155537E+02  0.59785814688E+02 -0.33386621524E+02  0.10393863150E+03  0.47000000000E+01 0.  1.
         11    1    6    6    0    0  0.27253088269E+02  0.25630126083E+02 -0.66168418836E+02  0.76012458416E+02  0.00000000000E+00 0. -1.
        -12    1    6    6    0    0 -0.19433664280E+02 -0.37866056205E+02 -0.67592372753E+02  0.79876369311E+02  0.00000000000E+00 0.  1.
</event>
<event>
12    1  0.8406581E-002  0.2077116E+03  0.7818608E-02  0.1143503E+00
         21   -1    0    0  501  502  0.00000000000E+00  0.00000000000E+00  0.89560142189E+02  0.89560142189E+02  0.00000000000E+00 0. -1.
         21   -1    0    0  502  503 -0.00000000000E+00 -0.00000000000E+00 -0.48640053746E+03  0.48640053746E+03  0.00000000000E+00 0.  1.
         -6    2    1    2    0  503 -0.92929652505E+02 -0.68790291734E+02 -0.23003261101E+03  0.30956068779E+03  0.17188598762E+03 0.  0.
        -24    2    3    3    0    0 -0.80758227325E+02 -0.11382251999E+03 -0.20740108738E+03  0.25749994409E+03  0.61753970100E+02 0.  0.
          6    2    1    2  501    0  0.92929652505E+02  0.68790291734E+02 -0.16680778426E+03  0.26639999186E+03  0.17255750990E+03 0.  0.
         24    2    5    5    0    0  0.12953250545E+03  0.29228776227E+02 -0.13581565770E+03  0.20405029851E+03  0.74549581596E+02 0.  0.
          5    1    5    5  501    0 -0.36602852946E+02  0.39561515507E+02 -0.30992126555E+02  0.62349693354E+02  0.47000000000E+01 0. -1.
        -13    1    6    6    0    0  0.15457599841E+02 -0.56589549815E+01 -0.61132885685E+02  0.63310274652E+02  0.00000000000E+00 0.  1.
         14    1    6    6    0    0  0.11407490561E+03  0.34887731209E+02 -0.74682772016E+02  0.14074002386E+03  0.00000000000E+00 0. -1.
         -5    1    3    3    0  503 -0.12171425180E+02  0.45032228251E+02 -0.22631523630E+02  0.52060743694E+02  0.47000000000E+01 0.  1.
         13    1    4    4    0    0 -0.56522991252E+02 -0.64220085180E+02 -0.73957261788E+02  0.11308733108E+03  0.00000000000E+00 0. -1.
        -14    1    4    4    0    0 -0.24235236073E+02 -0.49602434805E+02 -0.13344382560E+03  0.14441261301E+03  0.00000000000E+00 0.  1.
</event>
<event>
12    1  0.8406581E-002  0.1985446E+03  0.7818608E-02  0.1151037E+00
         21   -1    0    0  503  502  0.00000000000E+00  0.00000000000E+00  0.12038810005E+03  0.12038810005E+03  0.00000000000E+00 0.  1.
         21   -1    0    0  501  503 -0.00000000000E+00 -0.00000000000E+00 -0.38797829746E+03  0.38797829746E+03  0.00000000000E+00 0.  1.
          6    2    1    2  501    0 -0.27689685113E+02  0.94399852883E+02 -0.23469823743E+03  0.30741376210E+03  0.17245842279E+03 0.  0.
         24    2    3    3    0    0  0.39933133924E+02  0.80873957901E+02 -0.10095030484E+03  0.15686013391E+03  0.79239417661E+02 0.  0.
         -6    2    1    2    0  502  0.27689685113E+02 -0.94399852883E+02 -0.32891959994E+02  0.20095263541E+03  0.17211051613E+03 0.  0.
        -24    2    5    5    0    0  0.58215498382E+02 -0.10623376189E+03  0.12687528596E+02  0.14463703848E+03  0.78001558320E+02 0.  0.
          5    1    3    3  501    0 -0.67622819038E+02  0.13525894982E+02 -0.13374793259E+03  0.15055362819E+03  0.47000000000E+01 0. -1.
        -11    1    4    4    0    0 -0.20053863403E+02  0.33914500562E+02 -0.15389271091E+02  0.42298705069E+02  0.00000000000E+00 0.  1.
         12    1    4    4    0    0  0.59986997328E+02  0.46959457339E+02 -0.85561033745E+02  0.11456142884E+03  0.00000000000E+00 0. -1.
         -5    1    5    5    0  502 -0.30525813269E+02  0.11833909008E+02 -0.45579488589E+02  0.56315596936E+02  0.47000000000E+01 0.  1.
         13    1    6    6    0    0  0.48665739258E+02 -0.22624734423E+02  0.25666301236E+02  0.59489425988E+02  0.00000000000E+00 0. -1.
        -14    1    6    6    0    0  0.95497591243E+01 -0.83609027467E+02 -0.12978772640E+02  0.85147612489E+02  0.00000000000E+00 0.  1.
</event>
<event>
12    1  0.8406581E-002  0.3365474E+03  0.7818608E-02  0.1068301E+00
         21   -1    0    0  501  502  0.00000000000E+00  0.00000000000E+00  0.34366041151E+03  0.34366041151E+03  0.00000000000E+00 0. -1.
         21   -1    0    0  502  503 -0.00000000000E+00 -0.00000000000E+00 -0.32946739936E+03  0.32946739936E+03  0.00000000000E+00 0. -1.
         -6    2    1    2    0  503  0.20422756976E+03 -0.20197690397E+03  0.85660318366E+00  0.33631632075E+03  0.17494102963E+03 0.  0.
        -24    2    3    3    0    0  0.67786728350E+02 -0.10956815837E+03 -0.56546536423E+02  0.16175203487E+03  0.79787142665E+02 0.  0.
          6    2    1    2  501    0 -0.20422756976E+03  0.20197690397E+03  0.13336408973E+02  0.33681149012E+03  0.17538685836E+03 0.  0.
         24    2    5    5    0    0 -0.13558126923E+03  0.51625344757E+02 -0.23558398379E+02  0.16739713788E+03  0.80120826565E+02 0.  0.
          5    1    5    5  501    0 -0.68646300526E+02  0.15035155921E+03  0.36894807352E+02  0.16941435223E+03  0.47000000000E+01 0. -1.
        -13    1    6    6    0    0 -0.45202935567E+01 -0.17104484545E+02 -0.37958565186E+01  0.18094335359E+02  0.00000000000E+00 0.  1.
         14    1    6    6    0    0 -0.13106097568E+03  0.68729829302E+02 -0.19762541860E+02  0.14930280252E+03  0.00000000000E+00 0. -1.
         -5    1    3    3    0  503  0.13644084141E+03 -0.92408745597E+02  0.57403139606E+02  0.17456428588E+03  0.47000000000E+01 0.  1.
         13    1    4    4    0    0  0.45972593568E+02 -0.75422042401E+01 -0.10749962411E+02  0.47811357395E+02  0.00000000000E+00 0. -1.
        -14    1    4    4    0    0  0.21814134782E+02 -0.10202595413E+03 -0.45796574012E+02  0.11394067748E+03  0.00000000000E+00 0.  1.
</event>
<event>
12    1  0.8406581E-002  0.2588571E+03  0.7818608E-02  0.1107911E+00
         21   -1    0    0  501  502  0.00000000000E+00  0.00000000000E+00  0.36867990273E+03  0.36867990273E+03  0.00000000000E+00 0. -1.
         21   -1    0    0  502  503 -0.00000000000E+00 -0.00000000000E+00 -0.20481807502E+03  0.20481807502E+03  0.00000000000E+00 0.  1.
         -6    2    1    2    0  503  0.19311107734E+03  0.46063817139E+01 -0.14992436589E+02  0.25929092070E+03  0.17231918482E+03 0.  0.
        -24    2    3    3    0    0  0.19291765451E+03 -0.23860850115E+01 -0.56029415877E+02  0.21739753611E+03  0.83063099138E+02 0.  0.
          6    2    1    2  501    0 -0.19311107734E+03 -0.46063817139E+01  0.17885426430E+03  0.31420705705E+03  0.17153460263E+03 0.  0.
         24    2    5    5    0    0 -0.21664121366E+03  0.16031927647E+02  0.17164545503E+03  0.28174686512E+03  0.52236918131E+02 0.  0.
          5    1    5    5  501    0  0.23530136322E+02 -0.20638309360E+02  0.72088092681E+01  0.32460191923E+02  0.47000000000E+01 0. -1.
        -13    1    6    6    0    0 -0.27670207102E+02  0.20300597949E+02  0.23565628002E+02  0.41630439120E+02  0.00000000000E+00 0.  1.
         14    1    6    6    0    0 -0.18897100656E+03 -0.42686703020E+01  0.14807982703E+03  0.24011642601E+03  0.00000000000E+00 0. -1.
         -5    1    3    3    0  503  0.19342282678E+00  0.69924667254E+01  0.41036979288E+02  0.41893384590E+02  0.47000000000E+01 0.  1.
         13    1    4    4    0    0  0.67439577925E+02  0.26191540976E+02  0.95256576405E+01  0.72971444023E+02  0.00000000000E+00 0. -1.
        -14    1    4    4    0    0  0.12547807658E+03 -0.28577625987E+02 -0.65555073518E+02  0.14442609208E+03  0.00000000000E+00 0.  1.
</event>
<event>
12    1  0.8406581E-002  0.1807375E+03  0.7818608E-02  0.1167984E+00
         21   -1    0    0  503  502  0.00000000000E+00  0.00000000000E+00  0.22603069822E+03  0.22603069822E+03  0.00000000000E+00 0. -1.
         21   -1    0    0  501  503 -0.00000000000E+00 -0.00000000000E+00 -0.16915244247E+03  0.16915244247E+03  0.00000000000E+00 0. -1.
          6    2    1    2  501    0 -0.29914154925E+02 -0.35479606262E+02  0.10793557194E+03  0.20737231474E+03  0.17087869998E+03 0.  0.
         24    2    3    3    0    0  0.39546406387E+02 -0.54296215262E+02  0.55663619387E+02  0.11830334497E+03  0.79907732159E+02 0.  0.
         -6    2    1    2    0  502  0.29914154925E+02  0.35479606262E+02 -0.51057316183E+02  0.18781082595E+03  0.17467798282E+03 0.  0.
        -24    2    5    5    0    0 -0.16539584208E+02 -0.13787263732E+02 -0.79794923392E+02  0.11410116290E+03  0.78665107188E+02 0.  0.
          5    1    3    3  501    0 -0.69460561312E+02  0.18816609000E+02  0.52271952549E+02  0.89068969767E+02  0.47000000000E+01 0. -1.
        -11    1    4    4    0    0  0.27191421898E+02 -0.20103562734E+01  0.58459118817E+02  0.64504910898E+02  0.00000000000E+00 0.  1.
         12    1    4    4    0    0  0.12354984489E+02 -0.52285858988E+02 -0.27954994295E+01  0.53798434075E+02  0.00000000000E+00 0. -1.
         -5    1    5    5    0  502  0.46453739134E+02  0.49266869994E+02  0.28737607209E+02  0.73709663047E+02  0.47000000000E+01 0.  1.
         13    1    6    6    0    0  0.26635068994E+02 -0.21122575628E+02 -0.52349382419E+02  0.62418330169E+02  0.00000000000E+00 0. -1.
        -14    1    6    6    0    0 -0.43174653202E+02  0.73353118961E+01 -0.27445540972E+02  0.51682832730E+02  0.00000000000E+00 0.  1.
</event>
<event>
12    1  0.8406581E-002  0.1757390E+03  0.7818608E-02  0.1171998E+00
         21   -1    0    0  501  502  0.00000000000E+00  0.00000000000E+00  0.19422252512E+03  0.19422252512E+03  0.00000000000E+00 0. -1.
         21   -1    0    0  502  503 -0.00000000000E+00 -0.00000000000E+00 -0.16695917874E+03  0.16695917874E+03  0.00000000000E+00 0. -1.
         -6    2    1    2    0  503 -0.11273045815E+02 -0.33234184868E+02 -0.25820305678E+02  0.17760048865E+03  0.17217332191E+03 0.  0.
        -24    2    3    3    0    0 -0.16797183211E+02 -0.15276282354E+02  0.51096973494E+02  0.98282393667E+02  0.80827087281E+02 0.  0.
          6    2    1    2  501    0  0.11273045815E+02  0.33234184868E+02  0.53083652054E+02  0.18358121521E+03  0.17219929110E+03 0.  0.
         24    2    5    5    0    0 -0.24405804696E+02 -0.26525520460E+02 -0.11021571106E+02  0.88840662165E+02  0.80448379012E+02 0.  0.
          5    1    5    5  501    0  0.35678850511E+02  0.59759705328E+02  0.64105223160E+02  0.94740553044E+02  0.47000000000E+01 0. -1.
        -13    1    6    6    0    0 -0.49014647358E+02 -0.46107795425E+01  0.93342457841E+01  0.50108113993E+02  0.00000000000E+00 0.  1.
         14    1    6    6    0    0  0.24608842662E+02 -0.21914740918E+02 -0.20355816890E+02  0.38732548172E+02  0.00000000000E+00 0. -1.
         -5    1    3    3    0  503  0.55241373959E+01 -0.17957902514E+02 -0.76917279173E+02  0.79318094985E+02  0.47000000000E+01 0.  1.
         13    1    4    4    0    0 -0.43615622896E+02  0.34440559444E+01  0.84860888305E+01  0.44566778945E+02  0.00000000000E+00 0. -1.
        -14    1    4    4    0    0  0.26818439684E+02 -0.18720338299E+02  0.42610884664E+02  0.53715614722E+02  0.00000000000E+00 0.  1.
</event>
<event>
12    1  0.8406581E-002  0.2115058E+03  0.7818608E-02  0.1140520E+00
         21   -1    0    0  503  502  0.00000000000E+00  0.00000000000E+00  0.13689427912E+04  0.13689427912E+04  0.00000000000E+00 0. -1.
         21   -1    0    0  501  503 -0.00000000000E+00 -0.00000000000E+00 -0.51870989867E+02  0.51870989867E+02  0.00000000000E+00 0.  1.
          6    2    1    2  501    0  0.12242284611E+03  0.10606435869E+02  0.22586533269E+03  0.30943475123E+03  0.17214780575E+03 0.  0.
         24    2    3    3    0    0  0.42731208790E+02  0.42557839422E+02  0.56299743017E+02  0.11931313634E+03  0.86190704474E+02 0.  0.
         -6    2    1    2    0  502 -0.12242284611E+03 -0.10606435869E+02  0.10912064687E+04  0.11113790299E+04  0.17126570301E+03 0.  0.
        -24    2    5    5    0    0 -0.70187480571E+02 -0.48323131135E+02  0.93608926215E+03  0.94334772245E+03  0.79877476818E+02 0.  0.
          5    1    3    3  501    0  0.79691637319E+02 -0.31951403553E+02  0.16956558967E+03  0.19012161489E+03  0.47000000000E+01 0. -1.
        -11    1    4    4    0    0  0.64918779969E+02  0.10008268908E+02  0.37898684780E+02  0.75834845205E+02  0.00000000000E+00 0.  1.
         12    1    4    4    0    0 -0.22187571179E+02  0.32549570514E+02  0.18401058237E+02  0.43478291132E+02  0.00000000000E+00 0. -1.
         -5    1    5    5    0  502 -0.52235365539E+02  0.37716695266E+02  0.15511720654E+03  0.16803130744E+03  0.47000000000E+01 0.  1.
         13    1    6    6    0    0 -0.30693384713E+02 -0.12906525385E+02  0.96474022518E+02  0.10205831315E+03  0.00000000000E+00 0. -1.
        -14    1    6    6    0    0 -0.39494095859E+02 -0.35416605750E+02  0.83961523963E+03  0.84128940930E+03  0.00000000000E+00 0.  1.
</event>
<event>
12    1  0.8406581E-002  0.2302780E+03  0.7818608E-02  0.1127324E+00
         21   -1    0    0  503  502  0.00000000000E+00  0.00000000000E+00  0.86888552256E+03  0.86888552256E+03  0.00000000000E+00 0.  1.
         21   -1    0    0  501  503 -0.00000000000E+00 -0.00000000000E+00 -0.25950226915E+03  0.25950226915E+03  0.00000000000E+00 0.  1.
          6    2    1    2  501    0 -0.14707095348E+03 -0.42332346207E+02 -0.18956907554E+03  0.29826898069E+03  0.17206410882E+03 0.  0.
         24    2    3    3    0    0 -0.68567181727E+02  0.40076495760E+02 -0.69922361358E+02  0.13306763194E+03  0.80686269765E+02 0.  0.
         -6    2    1    2    0  502  0.14707095348E+03  0.42332346207E+02  0.79895232896E+03  0.83011881102E+03  0.16537993704E+03 0.  0.
        -24    2    5    5    0    0  0.16885325384E+03  0.26544114328E+02  0.75600099503E+03  0.77922044209E+03  0.80193400832E+02 0.  0.
          5    1    3    3  501    0 -0.78503771754E+02 -0.82408841967E+02 -0.11964671419E+03  0.16520134875E+03  0.47000000000E+01 0. -1.
        -13    1    4    4    0    0 -0.32000967364E+02  0.77575910629E+01 -0.77009721225E+02  0.83754040466E+02  0.00000000000E+00 0.  1.
         14    1    4    4    0    0 -0.36566214363E+02  0.32318904697E+02  0.70873598672E+01  0.49313591469E+02  0.00000000000E+00 0. -1.
         -5    1    5    5    0  502 -0.21782300354E+02  0.15788231880E+02  0.42951333924E+02  0.50898368937E+02  0.47000000000E+01 0.  1.
         13    1    6    6    0    0  0.31777343487E+02 -0.16702190846E+02  0.27103752641E+03  0.27340465150E+03  0.00000000000E+00 0. -1.
        -14    1    6    6    0    0  0.13707591035E+03  0.43246305173E+02  0.48496346862E+03  0.50581579058E+03  0.00000000000E+00 0.  1.
</event>
<event>
12    1  0.8406581E-002  0.1699015E+03  0.7818608E-02  0.1178147E+00
         21   -1    0    0  503  502  0.00000000000E+00  0.00000000000E+00  0.13467708107E+03  0.13467708107E+03  0.00000000000E+00 0.  1.
         21   -1    0    0  501  503 -0.00000000000E+00 -0.00000000000E+00 -0.38700737886E+03  0.38700737886E+03  0.00000000000E+00 0.  1.
          6    2    1    2  501    0  0.70626130838E+01 -0.66376155967E+01 -0.30102810467E+03  0.34566520552E+03  0.16962480969E+03 0.  0.
         24    2    3    3    0    0  0.32322040735E+02 -0.56533635539E+02 -0.25096104488E+03  0.27045581803E+03  0.76968416840E+02 0.  0.
         -6    2    1    2    0  502 -0.70626130838E+01  0.66376155967E+01  0.48697806883E+02  0.17601925441E+03  0.16887084734E+03 0.  0.
        -24    2    5    5    0    0 -0.14440033469E+02 -0.33232067822E+02 -0.28882533776E+02  0.88356165001E+02  0.75231152045E+02 0.  0.
          5    1    3    3  501    0 -0.25259427651E+02  0.49896019942E+02 -0.50067059786E+02  0.75209387492E+02  0.47000000000E+01 0. -1.
        -11    1    4    4    0    0  0.32758153350E+02 -0.56634138660E+01 -0.18057809233E+03  0.18361268555E+03  0.00000000000E+00 0.  1.
         12    1    4    4    0    0 -0.43611261480E+00 -0.50870221673E+02 -0.70382952557E+02  0.86843132474E+02  0.00000000000E+00 0. -1.
         -5    1    5    5    0  502  0.73774203848E+01  0.39869683419E+02  0.77580340659E+02  0.87663089406E+02  0.47000000000E+01 0.  1.
         11    1    6    6    0    0 -0.19436434740E+01 -0.28419799060E+02  0.21840512133E+02  0.35895274045E+02  0.00000000000E+00 0. -1.
        -12    1    6    6    0    0 -0.12496389995E+02 -0.48122687623E+01 -0.50723045909E+02  0.52460890956E+02  0.00000000000E+00 0.  1.
</event>
<event>
12    1  0.8406581E-002  0.1793936E+03  0.7818608E-02  0.1168628E+00
         21   -1    0    0  503  502  0.00000000000E+00  0.00000000000E+00  0.57257340187E+03  0.57257340187E+03  0.00000000000E+00 0. -1.
         21   -1    0    0  501  503 -0.00000000000E+00 -0.00000000000E+00 -0.58090454733E+02  0.58090454733E+02  0.00000000000E+00 0. -1.
          6    2    1    2  501    0  0.51138643971E+02 -0.13522499951E+02  0.19536942429E+03  0.26458255447E+03  0.17040157649E+03 0.  0.
         24    2    3    3    0    0  0.86518503796E+02  0.25855803321E+02  0.10860880970E+03  0.16283836794E+03  0.81033859975E+02 0.  0.
         -6    2    1    2    0  502 -0.51138643971E+02  0.13522499951E+02  0.31911352285E+03  0.36608130214E+03  0.17141779487E+03 0.  0.
        -24    2    5    5    0    0 -0.15309983377E+02 -0.42403903293E+02  0.91772054304E+02  0.12918957830E+03  0.78964236119E+02 0.  0.
          5    1    3    3  501    0 -0.35379859825E+02 -0.39378303271E+02  0.86760614584E+02  0.10174418653E+03  0.47000000000E+01 0. -1.
        -13    1    4    4    0    0  0.23220795251E+02  0.46584680629E+02  0.31065766408E+02  0.60616991380E+02  0.00000000000E+00 0.  1.
         14    1    4    4    0    0  0.63297708545E+02 -0.20728877309E+02  0.77543043294E+02  0.10222137656E+03  0.00000000000E+00 0. -1.
         -5    1    5    5    0  502 -0.35828660594E+02  0.55926403244E+02  0.22734146855E+03  0.23689172384E+03  0.47000000000E+01 0.  1.
         13    1    6    6    0    0 -0.47222574814E+02 -0.26814253605E+02  0.65080384061E+02  0.84761029713E+02  0.00000000000E+00 0. -1.
        -14    1    6    6    0    0  0.31912591437E+02 -0.15589649688E+02  0.26691670243E+02  0.44428548592E+02  0.00000000000E+00 0.  1.
</event>
<event>
12    1  0.8406581E-002  0.2185343E+03  0.7818608E-02  0.1135542E+00
         21   -1    0    0  501  502  0.00000000000E+00  0.00000000000E+00  0.35236493143E+03  0.35236493143E+03  0.00000000000E+00 0.  1.
         21   -1    0    0  502  503 -0.00000000000E+00 -0.00000000000E+00 -0.60980204596E+03  0.60980204596E+03  0.00000000000E+00 0.  1.
         -6    2    1    2    0  503  0.60786613028E+02 -0.11451415709E+03 -0.55399359047E+03  0.59553852828E+03  0.17592252808E+03 0.  0.
        -24    2    3    3    0    0  0.30564195774E+02 -0.43496892268E+02 -0.48086442741E+03  0.48911103701E+03  0.71922592263E+02 0.  0.
          6    2    1    2  501    0 -0.60786613028E+02  0.11451415709E+03  0.29655647594E+03  0.36662844911E+03  0.17222709363E+03 0.  0.
         24    2    5    5    0    0  0.11905050280E+02 -0.14547986977E+01  0.11659394297E+03  0.14048362849E+03  0.77444532898E+02 0.  0.
          5    1    5    5  501    0 -0.72691663308E+02  0.11596895579E+03  0.17996253297E+03  0.22614482062E+03  0.47000000000E+01 0. -1.
        -13    1    6    6    0    0  0.38250783518E+02  0.17262592032E+02  0.87309969888E+02  0.96871824414E+02  0.00000000000E+00 0.  1.
         14    1    6    6    0    0 -0.26345733238E+02 -0.18717390730E+02  0.29283973082E+02  0.43611804079E+02  0.00000000000E+00 0. -1.
         -5    1    3    3    0  503  0.30222417255E+02 -0.71017264822E+02 -0.73129163060E+02  0.10642749127E+03  0.47000000000E+01 0.  1.
         11    1    4    4    0    0  0.25580900387E+01 -0.20498780874E+02 -0.27983164167E+02  0.34782198303E+02  0.00000000000E+00 0. -1.
        -12    1    4    4    0    0  0.28006105735E+02 -0.22998111394E+02 -0.45288126324E+03  0.45432883871E+03  0.00000000000E+00 0.  1.
</event>
<event>
12    1  0.8406581E-002  0.2296288E+03  0.7818608E-02  0.1127003E+00
         21   -1    0    0  501  502  0.00000000000E+00  0.00000000000E+00  0.21385018484E+03  0.21385018484E+03  0.00000000000E+00 0. -1.
         21   -1    0    0  502  503 -0.00000000000E+00 -0.00000000000E+00 -0.35434379906E+03  0.35434379906E+03  0.00000000000E+00 0.  1.
         -6    2    1    2    0  503  0.13394724001E+03  0.71399683549E+02 -0.22743214614E+03  0.32319462726E+03  0.17230672671E+03 0.  0.
        -24    2    3    3    0    0  0.51763738225E+02 -0.18366270143E+02 -0.61066583033E+02  0.11701110464E+03  0.83340665776E+02 0.  0.
          6    2    1    2  501    0 -0.13394724001E+03 -0.71399683549E+02  0.86938531925E+02  0.24499935664E+03  0.17154182727E+03 0.  0.
         24    2    5    5    0    0 -0.64843601497E+02  0.34700366734E+02 -0.10603199997E+01  0.90731986579E+02  0.53125897671E+02 0.  0.
          5    1    5    5  501    0 -0.69103638517E+02 -0.10610005028E+03  0.87998851925E+02  0.15426737006E+03  0.47000000000E+01 0. -1.
        -13    1    6    6    0    0 -0.60195628990E+02  0.22829450125E+02  0.18856961296E+02  0.67084145160E+02  0.00000000000E+00 0.  1.
         14    1    6    6    0    0 -0.46479725069E+01  0.11870916609E+02 -0.19917281295E+02  0.23647841419E+02  0.00000000000E+00 0. -1.
         -5    1    3    3    0  503  0.82183501789E+02  0.89765953692E+02 -0.16636556311E+03  0.20618352262E+03  0.47000000000E+01 0.  1.
         13    1    4    4    0    0 -0.20740427781E+02 -0.67401288529E+00 -0.29290535195E+02  0.35896449545E+02  0.00000000000E+00 0. -1.
        -14    1    4    4    0    0  0.72504166006E+02 -0.17692257258E+02 -0.31776047838E+02  0.81114655096E+02  0.00000000000E+00 0.  1.
</event>
<event>
12    1  0.8406581E-002  0.2116408E+03  0.7818608E-02  0.1140495E+00
         21   -1    0    0  503  502  0.00000000000E+00  0.00000000000E+00  0.20320847536E+03  0.20320847536E+03  0.00000000000E+00 0.  1.
         21   -1    0    0  501  503 -0.00000000000E+00 -0.00000000000E+00 -0.21975209594E+03  0.21975209594E+03  0.00000000000E+00 0.  1.
          6    2    1    2  501    0  0.78688090426E+02  0.91775459342E+02 -0.18353594833E+02  0.21131205929E+03  0.17234088733E+03 0.  0.
         24    2    3    3    0    0 -0.81515915738E+01  0.97703268096E+01 -0.41620753158E+02  0.89535941815E+02  0.78246342100E+02 0.  0.
         -6    2    1    2    0  502 -0.78688090426E+02 -0.91775459342E+02  0.18099742619E+01  0.21164851201E+03  0.17371605026E+03 0.  0.
        -24    2    5    5    0    0 -0.14379925974E+02 -0.32660253993E+02 -0.52474934870E+02  0.10869663549E+03  0.88248882803E+02 0.  0.
          5    1    3    3  501    0  0.86839681999E+02  0.82005132532E+02  0.23267158325E+02  0.12177611748E+03  0.47000000000E+01 0. -1.
        -11    1    4    4    0    0  0.30632034281E+02  0.21374102172E+02 -0.28490619740E+02  0.46977539111E+02  0.00000000000E+00 0.  1.
         12    1    4    4    0    0 -0.38783625854E+02 -0.11603775362E+02 -0.13130133418E+02  0.42558402703E+02  0.00000000000E+00 0. -1.
         -5    1    5    5    0  502 -0.64308164452E+02 -0.59115205349E+02  0.54284909132E+02  0.10295187652E+03  0.47000000000E+01 0.  1.
         11    1    6    6    0    0  0.55415109057E+01  0.22203528815E+02  0.83836027218E+01  0.24371906563E+02  0.00000000000E+00 0. -1.
        -12    1    6    6    0    0 -0.19921436879E+02 -0.54863782807E+02 -0.60858537591E+02  0.84324728929E+02  0.00000000000E+00 0.  1.
</event>
<event>
12    1  0.8406581E-002  0.1913578E+03  0.7818608E-02  0.1158030E+00
         21   -1    0    0  503  502  0.00000000000E+00  0.00000000000E+00  0.46994292347E+02  0.46994292347E+02  0.00000000000E+00 0.  1.
         21   -1    0    0  501  503 -0.00000000000E+00 -0.00000000000E+00 -0.17078944808E+04  0.17078944808E+04  0.00000000000E+00 0.  1.
          6    2    1    2  501    0  0.59112360329E+02  0.50214426285E+02 -0.14858091747E+04  0.14980810081E+04  0.17493439746E+03 0.  0.
         24    2    3    3    0    0 -0.15794144638E+02 -0.12903809363E+02 -0.94265870575E+03  0.94614856831E+03  0.78585714252E+02 0.  0.
         -6    2    1    2    0  502 -0.59112360329E+02 -0.50214426285E+02 -0.17509101381E+03  0.25680776512E+03  0.17110699973E+03 0.  0.
        -24    2    5    5    0    0 -0.61416363279E+02 -0.23954985711E+02 -0.19688696788E+03  0.22228211867E+03  0.79366561864E+02 0.  0.
          5    1    3    3  501    0  0.74906504967E+02  0.63118235648E+02 -0.54315046892E+03  0.55193243974E+03  0.47000000000E+01 0. -1.
        -13    1    4    4    0    0 -0.17261573096E+02  0.11438187512E+02 -0.66475020575E+02  0.69625587249E+02  0.00000000000E+00 0.  1.
         14    1    4    4    0    0  0.14674284585E+01 -0.24341996875E+02 -0.87618368518E+03  0.87652298106E+03  0.00000000000E+00 0. -1.
         -5    1    5    5    0  502  0.23040029498E+01 -0.26259440574E+02  0.21795954068E+02  0.34525646447E+02  0.47000000000E+01 0.  1.
         13    1    6    6    0    0  0.11683911228E+02 -0.26009619302E+02 -0.39303299565E+02  0.48556806264E+02  0.00000000000E+00 0. -1.
        -14    1    6    6    0    0 -0.73100274507E+02  0.20546335915E+01 -0.15758366832E+03  0.17372531241E+03  0.00000000000E+00 0.  1.
</event>
<event>
12    1  0.8406581E-002  0.2567871E+03  0.7818608E-02  0.1112068E+00
         21   -1    0    0  503  502  0.00000000000E+00  0.00000000000E+00  0.91626546030E+03  0.91626546030E+03  0.00000000000E+00 0.  1.
         21   -1    0    0  501  503 -0.00000000000E+00 -0.00000000000E+00 -0.68328635339E+02  0.68328635339E+02  0.00000000000E+00 0.  1.
          6    2    1    2  501    0 -0.16701781283E+03 -0.69091537669E+02  0.36628590781E+03  0.44733097636E+03  0.18240352457E+03 0.  0.
         24    2    3    3    0    0 -0.17773469505E+03 -0.94067240244E+01  0.29586243025E+03  0.35427892245E+03  0.79378013219E+02 0.  0.
         -6    2    1    2    0  502  0.16701781283E+03  0.69091537669E+02  0.48165091715E+03  0.53726311927E+03  0.15490468994E+03 0.  0.
        -24    2    5    5    0    0  0.30275683081E+02  0.43825844867E+01  0.19534534431E+03  0.21341341693E+03  0.80309768710E+02 0.  0.
          5    1    3    3  501    0  0.10716882224E+02 -0.59684813645E+02  0.70423477565E+02  0.93052053909E+02  0.47000000000E+01 0. -1.
        -11    1    4    4    0    0 -0.73313172809E+02 -0.62909351819E+01  0.19761565938E+03  0.21087044839E+03  0.00000000000E+00 0.  1.
         12    1    4    4    0    0 -0.10442152224E+03 -0.31157888424E+01  0.98246770867E+02  0.14340847406E+03  0.00000000000E+00 0. -1.
         -5    1    5    5    0  502  0.13674212974E+03  0.64708953182E+02  0.28630557284E+03  0.32384970234E+03  0.47000000000E+01 0.  1.
         11    1    6    6    0    0  0.29616287969E+02 -0.18453623402E+02  0.28621158681E+02  0.45131269138E+02  0.00000000000E+00 0. -1.
        -12    1    6    6    0    0  0.65939511240E+00  0.22836207889E+02  0.16672418563E+03  0.16828214779E+03  0.00000000000E+00 0.  1.
</event>
<event>
12    1  0.8406581E-002  0.1837994E+03  0.7818608E-02  0.1164445E+00
         21   -1    0    0  503  502  0.00000000000E+00  0.00000000000E+00  0.64716940568E+02  0.64716940568E+02  0.00000000000E+00 0.  1.
         21   -1    0    0  501  503 -0.00000000000E+00 -0.00000000000E+00 -0.64267783384E+03  0.64267783384E+03  0.00000000000E+00 0.  1.
          6    2    1    2  501    0  0.36239771289E+02  0.52352460023E+02 -0.44500883536E+03  0.48147177146E+03  0.17241839249E+03 0.  0.
         24    2    3    3    0    0 -0.23760448524E+01  0.29419387949E+02 -0.42201740394E+03  0.43079827770E+03  0.81346916730E+02 0.  0.
         -6    2    1    2    0  502 -0.36239771289E+02 -0.52352460023E+02 -0.13295205791E+03  0.22592300295E+03  0.17120412514E+03 0.  0.
        -24    2    5    5    0    0 -0.88294086529E+02 -0.43783197950E+02 -0.10962452953E+03  0.16804945486E+03  0.80686229719E+02 0.  0.
          5    1    3    3  501    0  0.38615816142E+02  0.22933072073E+02 -0.22991431419E+02  0.50673493758E+02  0.47000000000E+01 0. -1.
        -11    1    4    4    0    0  0.16253589407E+02  0.49105434027E+02 -0.18051182042E+03  0.18777656971E+03  0.00000000000E+00 0.  1.
         12    1    4    4    0    0 -0.18629634259E+02 -0.19686046077E+02 -0.24150558352E+03  0.24302170799E+03  0.00000000000E+00 0. -1.
         -5    1    5    5    0  502  0.52054315240E+02 -0.85692620729E+01 -0.23327528376E+02  0.57873548083E+02  0.47000000000E+01 0.  1.
         11    1    6    6    0    0 -0.94956889593E+02 -0.17984717887E+02 -0.66346449795E+02  0.11722675616E+03  0.00000000000E+00 0. -1.
        -12    1    6    6    0    0  0.66628030634E+01 -0.25798480062E+02 -0.43278079736E+02  0.50822698707E+02  0.00000000000E+00 0.  1.
</event>
<event>
12    1  0.8406581E-002  0.1866746E+03  0.7818608E-02  0.1163289E+00
         21   -1    0    0  501  502  0.00000000000E+00  0.00000000000E+00  0.34138750335E+03  0.34138750335E+03  0.00000000000E+00 0.  1.
         21   -1    0    0  502  503 -0.00000000000E+00 -0.00000000000E+00 -0.12693838279E+03  0.12693838279E+03  0.00000000000E+00 0.  1.
         -6    2    1    2    0  503 -0.55638988339E+02  0.25569086519E+02 -0.29166363919E+01  0.18669736253E+03  0.17634603256E+03 0.  0.
        -24    2    3    3    0    0  0.28974251571E+02  0.42186879558E+02  0.25165723577E+02  0.95888440311E+02  0.77084624156E+02 0.  0.
          6    2    1    2  501    0  0.55638988339E+02 -0.25569086519E+02  0.21736575696E+03  0.28162852360E+03  0.16827738351E+03 0.  0.
         24    2    5    5    0    0 -0.16229052624E+02  0.31441381409E+02  0.11965910846E+03  0.14752450455E+03  0.78697106631E+02 0.  0.
          5    1    5    5  501    0  0.71868040963E+02 -0.57010467928E+02  0.97706648501E+02  0.13410401905E+03  0.47000000000E+01 0. -1.
        -13    1    6    6    0    0  0.17632901753E+02 -0.74076815624E+01  0.80659324980E+02  0.82895836304E+02  0.00000000000E+00 0.  1.
         14    1    6    6    0    0 -0.33861954377E+02  0.38849062971E+02  0.38999783476E+02  0.64628668245E+02  0.00000000000E+00 0. -1.
         -5    1    3    3    0  503 -0.84613239910E+02 -0.16617793039E+02 -0.28082359969E+02  0.90808922221E+02  0.47000000000E+01 0.  1.
         13    1    4    4    0    0  0.22946095409E+02 -0.18330413172E+02 -0.16653198827E+01  0.29415992792E+02  0.00000000000E+00 0. -1.
        -14    1    4    4    0    0  0.60281561620E+01  0.60517292730E+02  0.26831043459E+02  0.66472447520E+02  0.00000000000E+00 0.  1.
</event>
<event>
12    1  0.8406581E-002  0.1826328E+03  0.7818608E-02  0.1165501E+00
         21   -1    0    0  503  502  0.00000000000E+00  0.00000000000E+00  0.60121090265E+02  0.60121090265E+02  0.00000000000E+00 0. -1.
         21   -1    0    0  501  503 -0.00000000000E+00 -0.00000000000E+00 -0.60241732647E+03  0.60241732647E+03  0.00000000000E+00 0.  1.
          6    2    1    2  501    0  0.40769280374E+02  0.43201090794E+02 -0.36764889300E+03  0.41051243148E+03  0.17270286449E+03 0.  0.
         24    2    3    3    0    0  0.43822541350E+02  0.53404404177E+02 -0.10770807870E+03  0.15031107301E+03  0.78866614841E+02 0.  0.
         -6    2    1    2    0  502 -0.40769280374E+02 -0.43201090794E+02 -0.17464734320E+03  0.25202598526E+03  0.17171760041E+03 0.  0.
        -24    2    5    5    0    0 -0.48034314168E+02 -0.25396871647E+02 -0.19795611380E+03  0.22144560394E+03  0.83061640280E+02 0.  0.
          5    1    3    3  501    0 -0.30532609759E+01 -0.10203313383E+02 -0.25994081430E+03  0.26020135847E+03  0.47000000000E+01 0. -1.
        -11    1    4    4    0    0 -0.16585953930E+02  0.37862860418E+02 -0.53956745511E+02  0.67970732326E+02  0.00000000000E+00 0.  1.
         12    1    4    4    0    0  0.60408495280E+02  0.15541543759E+02 -0.53751333189E+02  0.82340340685E+02  0.00000000000E+00 0. -1.
         -5    1    5    5    0  502  0.72650337934E+01 -0.17804219147E+02  0.23308770593E+02  0.30580381325E+02  0.47000000000E+01 0.  1.
         13    1    6    6    0    0 -0.31728332579E+02 -0.53723445811E+02 -0.97030387433E+02  0.11535940275E+03  0.00000000000E+00 0. -1.
        -14    1    6    6    0    0 -0.16305981588E+02  0.28326574164E+02 -0.10092572636E+03  0.10608620118E+03  0.00000000000E+00 0.  1.
</event>
<event>
12    1  0.8406581E-002  0.2080948E+03  0.7818608E-02  0.1143093E+00
         21   -1    0    0  501  502  0.00000000000E+00  0.00000000000E+00  0.13253115554E+03  0.13253115554E+03  0.00000000000E+00 0. -1.
         21   -1    0    0  502  503 -0.00000000000E+00 -0.00000000000E+00 -0.60962614879E+03  0.60962614879E+03  0.00000000000E+00 0. -1.
         -6    2    1    2    0  503  0.10522126833E+03  0.50949568879E+02 -0.49134301405E+03  0.53357526848E+03  0.17209658859E+03 0.  0.
        -24    2    3    3    0    0  0.44888811577E+02  0.95934485422E+02 -0.31866049608E+03  0.34514758987E+03  0.79774157060E+02 0.  0.
          6    2    1    2  501    0 -0.10522126833E+03 -0.50949568879E+02  0.14248020799E+02  0.20858203585E+03  0.17215134534E+03 0.  0.
         24    2    5    5    0    0 -0.78412544482E+02  0.32828890785E+01 -0.46944613756E+02  0.12240491769E+03  0.81362538191E+02 0.  0.
          5    1    5    5  501    0 -0.26808723847E+02 -0.54232457957E+02  0.61192634555E+02  0.86177118159E+02  0.47000000000E+01 0. -1.
        -13    1    6    6    0    0 -0.75504673431E+01  0.25032835540E+02  0.10953200159E+02  0.28348280477E+02  0.00000000000E+00 0.  1.
         14    1    6    6    0    0 -0.70862077139E+02 -0.21749946461E+02 -0.57897813915E+02  0.94056637212E+02  0.00000000000E+00 0. -1.
         -5    1    3    3    0  503  0.60332456752E+02 -0.44984916543E+02 -0.17268251798E+03  0.18842767862E+03  0.47000000000E+01 0.  1.
         13    1    4    4    0    0 -0.14894737520E+02  0.51556942896E+01 -0.96981789578E+02  0.98254271659E+02  0.00000000000E+00 0. -1.
        -14    1    4    4    0    0  0.59783549097E+02  0.90778791132E+02 -0.22167870650E+03  0.24689331821E+03  0.00000000000E+00 0.  1.
</event>
<event>
12    1  0.8406581E-002  0.1963834E+03  0.7818608E-02  0.1153598E+00
         21   -1    0    0  503  502  0.00000000000E+00  0.00000000000E+00  0.31655002868E+03  0.31655002868E+03  0.00000000000E+00 0. -1.
         21   -1    0    0  501  503 -0.00000000000E+00 -0.00000000000E+00 -0.59694725244E+03  0.59694725244E+03  0.00000000000E+00 0. -1.
          6    2    1    2  501    0  0.57358163969E+02 -0.65970438701E+02 -0.54886797575E+03  0.58294294857E+03  0.17585325907E+03 0.  0.
         24    2    3    3    0    0 -0.13468528954E+02 -0.26481516613E+02 -0.12828854055E+03  0.15459151958E+03  0.80980962556E+02 0.  0.
         -6    2    1    2    0  502 -0.57358163969E+02  0.65970438701E+02  0.26847075200E+03  0.33055433255E+03  0.17189404973E+03 0.  0.
        -24    2    5    5    0    0 -0.32854635460E+01  0.80187417867E+02  0.96655388422E+02  0.14980979297E+03  0.81608171794E+02 0.  0.
          5    1    3    3  501    0  0.70826692923E+02 -0.39488922088E+02 -0.42057943521E+03  0.42835142899E+03  0.47000000000E+01 0. -1.
        -11    1    4    4    0    0  0.13025760018E+01 -0.40258598474E+02 -0.12821427998E+03  0.13439253345E+03  0.00000000000E+00 0.  1.
         12    1    4    4    0    0 -0.14771104956E+02  0.13777081861E+02 -0.74260566269E-01  0.20198986135E+02  0.00000000000E+00 0. -1.
         -5    1    5    5    0  502 -0.54072700423E+02 -0.14216979166E+02  0.17181536358E+03  0.18074453958E+03  0.47000000000E+01 0.  1.
         13    1    6    6    0    0  0.23404832892E+02  0.82606777107E+02  0.84206907269E+02  0.12026000606E+03  0.00000000000E+00 0. -1.
        -14    1    6    6    0    0 -0.26690296438E+02 -0.24193592404E+01  0.12448481153E+02  0.29549786905E+02  0.00000000000E+00 0.  1.
</event>
<event>
12    1  0.8406581E-002  0.1940270E+03  0.7818608E-02  0.1154932E+00
         21   -1    0    0  501  502  0.00000000000E+00  0.00000000000E+00  0.82679776665E+03  0.82679776665E+03  0.00000000000E+00 0. -1.
         21   -1    0    0  502  503 -0.00000000000E+00 -0.00000000000E+00 -0.47315683226E+02  0.47315683226E+02  0.00000000000E+00 0. -1.
         -6    2    1    2    0  503 -0.89708177183E+02 -0.92799577322E+01  0.47616422289E+03  0.51417785072E+03  0.17179295778E+03 0.  0.
        -24    2    3    3    0    0 -0.92561901035E+02  0.16609225310E+02  0.18783226995E+03  0.22463372865E+03  0.79597603761E+02 0.  0.
          6    2    1    2  501    0  0.89708177183E+02  0.92799577322E+01  0.30331786053E+03  0.35993559915E+03  0.17151745203E+03 0.  0.
         24    2    5    5    0    0  0.56769472320E+02  0.57794345235E+02  0.10992122227E+03  0.15778972667E+03  0.79069358209E+02 0.  0.
          5    1    5    5  501    0  0.32938704863E+02 -0.48514387503E+02  0.19339663826E+03  0.20214587248E+03  0.47000000000E+01 0. -1.
        -13    1    6    6    0    0  0.18272887656E+02  0.69705765451E+02  0.79500672105E+02  0.10729934308E+03  0.00000000000E+00 0.  1.
         14    1    6    6    0    0  0.38496584664E+02 -0.11911420216E+02  0.30420550168E+02  0.50490383588E+02  0.00000000000E+00 0. -1.
         -5    1    3    3    0  503  0.28537238520E+01 -0.25889183042E+02  0.28833195295E+03  0.28954412207E+03  0.47000000000E+01 0.  1.
         13    1    4    4    0    0 -0.48421047006E+02  0.14935056113E+02  0.16931849266E+03  0.17673824048E+03  0.00000000000E+00 0. -1.
        -14    1    4    4    0    0 -0.44140854029E+02  0.16741691967E+01  0.18513777292E+02  0.47895488165E+02  0.00000000000E+00 0.  1.
</event>
<event>
12    1  0.8406581E-002  0.2737522E+03  0.7818608E-02  0.1099277E+00
         21   -1    0    0  501  502  0.00000000000E+00  0.00000000000E+00  0.16891233708E+03  0.16891233708E+03  0.00000000000E+00 0.  1.
         21   -1    0    0  502  503 -0.00000000000E+00 -0.00000000000E+00 -0.44401536805E+03  0.44401536805E+03  0.00000000000E+00 0.  1.
         -6    2    1    2    0  503 -0.42378858974E+02 -0.20740576463E+03 -0.15730431800E+03  0.31572919883E+03  0.17357177086E+03 0.  0.
        -24    2    3    3    0    0 -0.38389930416E+02 -0.70614723960E+02 -0.13748523192E+03  0.17737246234E+03  0.78093376183E+02 0.  0.
          6    2    1    2  501    0  0.42378858974E+02  0.20740576463E+03 -0.11779871297E+03  0.29719850631E+03  0.17215486192E+03 0.  0.
         24    2    5    5    0    0 -0.22330463442E+02  0.88859147538E+02 -0.56810301228E+01  0.12160505074E+03  0.79755354449E+02 0.  0.
          5    1    5    5  501    0  0.64709322416E+02  0.11854661709E+03 -0.11211768285E+03  0.17559345557E+03  0.47000000000E+01 0. -1.
        -11    1    6    6    0    0  0.22646336030E+01  0.89810757846E+02  0.12906374835E+02  0.90761640034E+02  0.00000000000E+00 0.  1.
         12    1    6    6    0    0 -0.24595097045E+02 -0.95161030832E+00 -0.18587404958E+02  0.30843410705E+02  0.00000000000E+00 0. -1.
         -5    1    3    3    0  503 -0.39889285573E+01 -0.13679104067E+03 -0.19819086085E+02  0.13835673649E+03  0.47000000000E+01 0.  1.
         11    1    4    4    0    0 -0.19752598880E+02 -0.20415831766E+02  0.14818591009E+01  0.28445865352E+02  0.00000000000E+00 0. -1.
        -12    1    4    4    0    0 -0.18637331536E+02 -0.50198892194E+02 -0.13896709102E+03  0.14892659699E+03  0.00000000000E+00 0.  1.
</event>
<event>
12    1  0.8406581E-002  0.2432508E+03  0.7818608E-02  0.1117755E+00
         21   -1    0    0  501  502  0.00000000000E+00  0.00000000000E+00  0.49930212459E+02  0.49930212459E+02  0.00000000000E+00 0. -1.
         21   -1    0    0  502  503 -0.00000000000E+00 -0.00000000000E+00 -0.18952027047E+04  0.18952027047E+04  0.00000000000E+00 0. -1.
         -6    2    1    2    0  503  0.15956815964E+03  0.59264182438E+02 -0.15201159574E+04  0.15394555765E+04  0.17377199727E+03 0.  0.
        -24    2    3    3    0    0  0.15078104623E+02  0.55282688113E+02 -0.65278340045E+03  0.66014841587E+03  0.79913942679E+02 0.  0.
          6    2    1    2  501    0 -0.15956815964E+03 -0.59264182438E+02 -0.32515653480E+03  0.40567734067E+03  0.17283833983E+03 0.  0.
         24    2    5    5    0    0 -0.16716839036E+03 -0.87594627069E+02 -0.30420086885E+03  0.36932342017E+03  0.90793891059E+02 0.  0.
          5    1    5    5  501    0  0.76002307112E+01  0.28330444631E+02 -0.20955665951E+02  0.36353920495E+02  0.47000000000E+01 0. -1.
        -11    1    6    6    0    0 -0.49246620543E+02 -0.32677604419E+02 -0.18005893254E+03  0.18951061884E+03  0.00000000000E+00 0.  1.
         12    1    6    6    0    0 -0.11792176981E+03 -0.54917022650E+02 -0.12414193631E+03  0.17981280133E+03  0.00000000000E+00 0. -1.
         -5    1    3    3    0  503  0.14449005502E+03  0.39814943247E+01 -0.86733255700E+03  0.87930716063E+03  0.47000000000E+01 0.  1.
         13    1    4    4    0    0  0.39970573954E+02  0.31067757466E+02 -0.53395307906E+03  0.53634759529E+03  0.00000000000E+00 0. -1.
        -14    1    4    4    0    0 -0.24892469330E+02  0.24214930647E+02 -0.11883032139E+03  0.12380082058E+03  0.00000000000E+00 0.  1.
</event>
<event>
12    1  0.8406581E-002  0.2021877E+03  0.7818608E-02  0.1148011E+00
         21   -1    0    0  501  502  0.00000000000E+00  0.00000000000E+00  0.77519107982E+03  0.77519107982E+03  0.00000000000E+00 0.  1.
         21   -1    0    0  502  503 -0.00000000000E+00 -0.00000000000E+00 -0.52684588790E+02  0.52684588790E+02  0.00000000000E+00 0.  1.
         -6    2    1    2    0  503 -0.82222977832E+02 -0.65899001376E+02  0.34458736510E+03  0.39927008213E+03  0.17196758368E+03 0.  0.
        -24    2    3    3    0    0 -0.73469256822E+02 -0.64408519345E+02  0.35972155680E+03  0.38110464994E+03  0.79340826300E+02 0.  0.
          6    2    1    2  501    0  0.82222977832E+02  0.65899001376E+02  0.37791912593E+03  0.42860558647E+03  0.17255893644E+03 0.  0.
         24    2    5    5    0    0  0.46395742214E+02  0.72659734745E+02  0.12034221183E+03  0.16841862484E+03  0.80315523377E+02 0.  0.
          5    1    5    5  501    0  0.35827235618E+02 -0.67607333692E+01  0.25757691410E+03  0.26018696163E+03  0.47000000000E+01 0. -1.
        -11    1    6    6    0    0  0.58794257772E+02  0.33425130934E+02  0.10418809168E+03  0.12421418024E+03  0.00000000000E+00 0.  1.
         12    1    6    6    0    0 -0.12398515558E+02  0.39234603811E+02  0.16154120147E+02  0.44204444595E+02  0.00000000000E+00 0. -1.
         -5    1    3    3    0  503 -0.87537210095E+01 -0.14904820305E+01 -0.15134191703E+02  0.18165432192E+02  0.47000000000E+01 0.  1.
         13    1    4    4    0    0 -0.16606188974E+02 -0.62014788688E+02  0.24164072286E+03  0.25002367583E+03  0.00000000000E+00 0. -1.
        -14    1    4    4    0    0 -0.56863067848E+02 -0.23937306572E+01  0.11808083394E+03  0.13108097412E+03  0.00000000000E+00 0.  1.
</event>
<event>
12    1  0.8406581E-002  0.1855485E+03  0.7818608E-02  0.1162836E+00
         21   -1    0    0  503  502  0.00000000000E+00  0.00000000000E+00  0.72557086371E+02  0.72557086371E+02  0.00000000000E+00 0.  1.
         21   -1    0    0  501  503 -0.00000000000E+00 -0.00000000000E+00 -0.79647323362E+03  0.79647323362E+03  0.00000000000E+00 0.  1.
          6    2    1    2  501    0  0.58823130439E+02 -0.36677251451E+02 -0.63887802207E+03  0.66492316372E+03  0.17074046128E+03 0.  0.
         24    2    3    3    0    0  0.15021972964E+02 -0.81594281310E+02 -0.34732361344E+03  0.36665793920E+03  0.83192941464E+02 0.  0.
         -6    2    1    2    0  502 -0.58823130439E+02  0.36677251451E+02 -0.85038125179E+02  0.20410715627E+03  0.17211294855E+03 0.  0.
        -24    2    5    5    0    0 -0.21571992526E+02 -0.41977192418E+02 -0.67086479979E+02  0.11512108780E+03  0.80776441590E+02 0.  0.
          5    1    3    3  501    0  0.43801157475E+02  0.44917029860E+02 -0.29155440863E+03  0.29826522452E+03  0.47000000000E+01 0. -1.
        -13    1    4    4    0    0  0.28979186307E+02 -0.40256582965E+02 -0.29208482753E+03  0.29626665723E+03  0.00000000000E+00 0.  1.
         14    1    4    4    0    0 -0.13957213342E+02 -0.41337698345E+02 -0.55238785911E+02  0.70391281972E+02  0.00000000000E+00 0. -1.
         -5    1    5    5    0  502 -0.37251137913E+02  0.78654443868E+02 -0.17951645200E+02  0.88986068468E+02  0.47000000000E+01 0.  1.
         13    1    6    6    0    0 -0.24939957523E+02 -0.11822706138E+02  0.12237866978E+02  0.30191774540E+02  0.00000000000E+00 0. -1.
        -14    1    6    6    0    0  0.33679649971E+01 -0.30154486280E+02 -0.79324346958E+02  0.84929313263E+02  0.00000000000E+00 0.  1.
</event>
<event>
12    1  0.8406581E-002  0.1847614E+03  0.7818608E-02  0.1164403E+00
         21   -1    0    0  503  502  0.00000000000E+00  0.00000000000E+00  0.19872161654E+02  0.19872161654E+02  0.00000000000E+00 0. -1.
         21   -1    0    0  501  503 -0.00000000000E+00 -0.00000000000E+00 -0.18441557951E+04  0.18441557951E+04  0.00000000000E+00 0. -1.
          6    2    1    2  501    0  0.36995809768E+02  0.36166202119E+02 -0.11845745481E+04  0.11981717411E+04  0.17240062985E+03 0.  0.
         24    2    3    3    0    0  0.50866133815E+02 -0.29887801659E+02 -0.90390050555E+03  0.90945817121E+03  0.81224362111E+02 0.  0.
         -6    2    1    2    0  502 -0.36995809768E+02 -0.36166202119E+02 -0.63970908539E+03  0.66585621565E+03  0.17736995762E+03 0.  0.
        -24    2    5    5    0    0 -0.86658611013E+02 -0.39510987222E+02 -0.53906303204E+03  0.55347605961E+03  0.81706566929E+02 0.  0.
          5    1    3    3  501    0 -0.13870324047E+02  0.66054003778E+02 -0.28067404254E+03  0.28871356993E+03  0.47000000000E+01 0. -1.
        -13    1    4    4    0    0  0.21976779289E+02  0.27792820270E+02 -0.28060743872E+03  0.28283556062E+03  0.00000000000E+00 0.  1.
         14    1    4    4    0    0  0.28889354526E+02 -0.57680621928E+02 -0.62329306683E+03  0.62662261059E+03  0.00000000000E+00 0. -1.
         -5    1    5    5    0  502  0.49662801245E+02  0.33447851029E+01 -0.10064605335E+03  0.11238015603E+03  0.47000000000E+01 0.  1.
         13    1    6    6    0    0  0.22208511580E+01 -0.56084746378E+01  0.52553028626E-01  0.60324066051E+01  0.00000000000E+00 0. -1.
        -14    1    6    6    0    0 -0.88879462171E+02 -0.33902512584E+02 -0.53911558507E+03  0.54744365301E+03  0.00000000000E+00 0.  1.
</event>
<event>
12    1  0.8406581E-002  0.1934303E+03  0.7818608E-02  0.1160479E+00
         21   -1    0    0  501  502  0.00000000000E+00  0.00000000000E+00  0.63740319686E+02  0.63740319686E+02  0.00000000000E+00 0.  1.
         21   -1    0    0  502  503 -0.00000000000E+00 -0.00000000000E+00 -0.60012776689E+03  0.60012776689E+03  0.00000000000E+00 0.  1.
         -6    2    1    2    0  503 -0.36545752348E+01  0.76288056876E+01 -0.40070818740E+03  0.44495203527E+03  0.19324520083E+03 0.  0.
        -24    2    3    3    0    0 -0.67463283676E+02 -0.34207800837E+02 -0.14336849702E+03  0.17649783217E+03  0.69824712952E+02 0.  0.
          6    2    1    2  501    0  0.36545752348E+01 -0.76288056876E+01 -0.13567925980E+03  0.21891605130E+03  0.17159202016E+03 0.  0.
         24    2    5    5    0    0  0.66132327726E+02 -0.21032957676E+02 -0.80178282988E+02  0.13414819611E+03  0.82166364028E+02 0.  0.
          5    1    5    5  501    0 -0.62477752491E+02  0.13404151988E+02 -0.55500976809E+02  0.84767855191E+02  0.47000000000E+01 0. -1.
        -11    1    6    6    0    0 -0.24964732428E+01 -0.36872883463E+02 -0.31110602782E+02  0.48308503588E+02  0.00000000000E+00 0.  1.
         12    1    6    6    0    0  0.68628800969E+02  0.15839925787E+02 -0.49067680206E+02  0.85839692522E+02  0.00000000000E+00 0. -1.
         -5    1    3    3    0  503  0.63808708441E+02  0.41836606525E+02 -0.25733969038E+03  0.26845420310E+03  0.47000000000E+01 0.  1.
         11    1    4    4    0    0 -0.47037624800E+02  0.12635064512E+02 -0.48461809232E+02  0.68707568405E+02  0.00000000000E+00 0. -1.
        -12    1    4    4    0    0 -0.20425658876E+02 -0.46842865350E+02 -0.94906687790E+02  0.10779026376E+03  0.00000000000E+00 0.  1.
</event>
<event>
12    1  0.8406581E-002  0.1891205E+03  0.7818608E-02  0.1161369E+00
         21   -1    0    0  501  502  0.00000000000E+00  0.00000000000E+00  0.25604496610E+03  0.25604496610E+03  0.00000000000E+00 0. -1.
         21   -1    0    0  502  503 -0.00000000000E+00 -0.00000000000E+00 -0.78591367255E+03  0.78591367255E+03  0.00000000000E+00 0. -1.
         -6    2    1    2    0  503  0.34274753770E+02  0.84669217078E+02 -0.74084176122E+03  0.76459993619E+03  0.16559864791E+03 0.  0.
        -24    2    3    3    0    0  0.39457714261E+02 -0.13538301329E+02 -0.37317047532E+03  0.38397434033E+03  0.80248947418E+02 0.  0.
          6    2    1    2  501    0 -0.34274753770E+02 -0.84669217078E+02  0.21097305478E+03  0.27735870246E+03  0.15515986892E+03 0.  0.
         24    2    5    5    0    0  0.11868960138E+02 -0.90884764746E+01  0.53469149650E+02  0.96606770760E+02  0.79059759505E+02 0.  0.
          5    1    5    5  501    0 -0.46143713908E+02 -0.75580740603E+02  0.15750390513E+03  0.18075193170E+03  0.47000000000E+01 0. -1.
        -11    1    6    6    0    0  0.63082184578E+01  0.17331138936E+02  0.64765422760E+02  0.67340344387E+02  0.00000000000E+00 0.  1.
         12    1    6    6    0    0  0.55607416798E+01 -0.26419615411E+02 -0.11296273109E+02  0.29266426373E+02  0.00000000000E+00 0. -1.
         -5    1    3    3    0  503 -0.51829604912E+01  0.98207518407E+02 -0.36767128590E+03  0.38062559586E+03  0.47000000000E+01 0.  1.
         13    1    4    4    0    0 -0.14464558735E+02  0.20187224943E+02 -0.72031163455E+02  0.76192099453E+02  0.00000000000E+00 0. -1.
        -14    1    4    4    0    0  0.53922272997E+02 -0.33725526272E+02 -0.30113931187E+03  0.30778224088E+03  0.00000000000E+00 0.  1.
</event>
<event>
12    1  0.8406581E-002  0.1784454E+03  0.7818608E-02  0.1169985E+00
         21   -1    0    0  503  502  0.00000000000E+00  0.00000000000E+00  0.67916582724E+03  0.67916582724E+03  0.00000000000E+00 0. -1.
         21   -1    0    0  501  503 -0.00000000000E+00 -0.00000000000E+00 -0.63555208280E+02  0.63555208280E+02  0.00000000000E+00 0. -1.
          6    2    1    2  501    0 -0.84074172922E+01 -0.40730352360E+02  0.11190559614E+03  0.20834148806E+03  0.17074444919E+03 0.  0.
         24    2    3    3    0    0 -0.27777873986E+02 -0.50749795222E+02  0.14083566306E+03  0.17180872742E+03  0.79601525311E+02 0.  0.
         -6    2    1    2    0  502  0.84074172922E+01  0.40730352360E+02  0.50370502281E+03  0.53437954746E+03  0.17353127807E+03 0.  0.
        -24    2    5    5    0    0 -0.94601360064E+00  0.19546867045E+02  0.50430770792E+03  0.51074313596E+03  0.78417547189E+02 0.  0.
          5    1    3    3  501    0  0.19370456694E+02  0.10019442863E+02 -0.28930066914E+02  0.36532760632E+02  0.47000000000E+01 0. -1.
        -11    1    4    4    0    0 -0.43904039367E+02 -0.55590312750E+02  0.72234064714E+02  0.10117117994E+03  0.00000000000E+00 0.  1.
         12    1    4    4    0    0  0.16126165382E+02  0.48405175279E+01  0.68601598343E+02  0.70637547488E+02  0.00000000000E+00 0. -1.
         -5    1    5    5    0  502  0.93534308929E+01  0.21183485315E+02 -0.60268510497E+00  0.23636411506E+02  0.47000000000E+01 0.  1.
         13    1    6    6    0    0 -0.25154457073E+02  0.11972509671E+02  0.44936463262E+03  0.45022734341E+03  0.00000000000E+00 0. -1.
        -14    1    6    6    0    0  0.24208443472E+02  0.75743573735E+01  0.54943075295E+02  0.60515792549E+02  0.00000000000E+00 0.  1.
</event>
<event>
12    1  0.8406581E-002  0.1856744E+03  0.7818608E-02  0.1162891E+00
         21   -1    0    0  503  502  0.00000000000E+00  0.00000000000E+00  0.50449234568E+02  0.50449234568E+02  0.00000000000E+00 0. -1.
         21   -1    0    0  501  503 -0.00000000000E+00 -0.00000000000E+00 -0.24863702938E+04  0.24863702938E+04  0.00000000000E+00 0.  1.
          6    2    1    2  501    0 -0.56985353416E+01 -0.72250053917E+02 -0.23020883184E+04  0.23095639408E+04  0.17094568561E+03 0.  0.
         24    2    3    3    0    0 -0.62316508694E+02 -0.57443539089E+02 -0.11094275549E+04  0.11154589980E+04  0.78969418798E+02 0.  0.
         -6    2    1    2    0  502  0.56985353416E+01  0.72250053917E+02 -0.13383274090E+03  0.22725558762E+03  0.16876420228E+03 0.  0.
        -24    2    5    5    0    0  0.67916521570E+02  0.41829589194E+02 -0.70500487082E+02  0.13328991911E+03  0.80209197872E+02 0.  0.
          5    1    3    3  501    0  0.56617973353E+02 -0.14806514828E+02 -0.11926607634E+04  0.11941049428E+04  0.47000000000E+01 0. -1.
        -13    1    4    4    0    0 -0.23604347522E+01 -0.46182904393E+02 -0.69836740605E+03  0.69989675392E+03  0.00000000000E+00 0.  1.
         14    1    4    4    0    0 -0.59956073942E+02 -0.11260634696E+02 -0.41106014887E+03  0.41556224405E+03  0.00000000000E+00 0. -1.
         -5    1    5    5    0  502 -0.62217986229E+02  0.30420464723E+02 -0.63332253823E+02  0.93965668510E+02  0.47000000000E+01 0.  1.
         13    1    6    6    0    0  0.10778735075E+02 -0.23360020937E+02 -0.10108941715E+02  0.27641678867E+02  0.00000000000E+00 0. -1.
        -14    1    6    6    0    0  0.57137786495E+02  0.65189610131E+02 -0.60391545368E+02  0.10564824024E+03  0.00000000000E+00 0.  1.
</event>
<event>
12    1  0.8406581E-002  0.2646955E+03  0.7818608E-02  0.1104940E+00
         21   -1    0    0  501  502  0.00000000000E+00  0.00000000000E+00  0.80357795153E+03  0.80357795153E+03  0.00000000000E+00 0. -1.
         21   -1    0    0  502  503 -0.00000000000E+00 -0.00000000000E+00 -0.22393829782E+03  0.22393829782E+03  0.00000000000E+00 0. -1.
         -6    2    1    2    0  503  0.19733151055E+03 -0.33900611706E+02 -0.11271272760E+03  0.28769401344E+03  0.17313205907E+03 0.  0.
        -24    2    3    3    0    0  0.11094831765E+03  0.38192638573E+02 -0.10334385038E+03  0.17469242668E+03  0.77905620456E+02 0.  0.
          6    2    1    2  501    0 -0.19733151055E+03  0.33900611706E+02  0.69235238131E+03  0.73982223591E+03  0.16702138879E+03 0.  0.
         24    2    5    5    0    0 -0.75236153875E+02  0.31789287748E+02  0.18430456155E+03  0.21728380577E+03  0.81074306513E+02 0.  0.
          5    1    5    5  501    0 -0.12209535667E+03  0.21113239578E+01  0.50804781976E+03  0.52253843014E+03  0.47000000000E+01 0. -1.
        -11    1    6    6    0    0 -0.41372751602E+02 -0.84932002012E+01  0.14655445188E+03  0.15251900338E+03  0.00000000000E+00 0.  1.
         12    1    6    6    0    0 -0.33863402273E+02  0.40282487949E+02  0.37750109664E+02  0.64764802389E+02  0.00000000000E+00 0. -1.
         -5    1    3    3    0  503  0.86383192892E+02 -0.72093250279E+02 -0.93688772279E+01  0.11300158676E+03  0.47000000000E+01 0.  1.
         11    1    4    4    0    0  0.10014865226E+03 -0.54907091675E+00 -0.80082067682E+02  0.12823100870E+03  0.00000000000E+00 0. -1.
        -12    1    4    4    0    0  0.10799665394E+02  0.38741709490E+02 -0.23261782694E+02  0.46461417982E+02  0.00000000000E+00 0.  1.
</event>
<event>
12    1  0.8406581E-002  0.1787388E+03  0.7818608E-02  0.1169127E+00
         21   -1    0    0  501  502  0.00000000000E+00  0.00000000000E+00  0.12879816120E+02  0.12879816120E+02  0.00000000000E+00 0.  1.
         21   -1    0    0  502  503 -0.00000000000E+00 -0.00000000000E+00 -0.27019932262E+04  0.27019932262E+04  0.00000000000E+00 0.  1.
         -6    2    1    2    0  503 -0.26270111732E+02 -0.39211871419E+02 -0.17395061648E+04  0.17486649928E+04  0.17239451843E+03 0.  0.
        -24    2    3    3    0    0 -0.57769394099E+02 -0.29316323941E+01 -0.15445682229E+04  0.15478383219E+04  0.82259214000E+02 0.  0.
          6    2    1    2  501    0  0.26270111732E+02  0.39211871419E+02 -0.94960724532E+03  0.96620804957E+03  0.17197786214E+03 0.  0.
         24    2    5    5    0    0  0.57494923266E+02 -0.30093592885E+02 -0.52108759055E+03  0.53097314661E+03  0.78669656518E+02 0.  0.
          5    1    5    5  501    0 -0.31224811534E+02  0.69305464304E+02 -0.42851965477E+03  0.43523490297E+03  0.47000000000E+01 0. -1.
        -11    1    6    6    0    0  0.37333152676E+01 -0.45791053957E+02 -0.22822661182E+03  0.23280494970E+03  0.00000000000E+00 0.  1.
         12    1    6    6    0    0  0.53761607999E+02  0.15697461072E+02 -0.29286097874E+03  0.29816819690E+03  0.00000000000E+00 0. -1.
         -5    1    3    3    0  503  0.31499282367E+02 -0.36280239025E+02 -0.19493794187E+03  0.20082667083E+03  0.47000000000E+01 0.  1.
         13    1    4    4    0    0  0.12888183747E+02 -0.22489081947E+02 -0.52359692909E+03  0.52423812170E+03  0.00000000000E+00 0. -1.
        -14    1    4    4    0    0 -0.70657577846E+02  0.19557449553E+02 -0.10209712938E+04  0.10236002002E+04  0.00000000000E+00 0.  1.
</event>
<event>
12    1  0.8406581E-002  0.2125586E+03  0.7818608E-02  0.1140043E+00
         21   -1    0    0  503  502  0.00000000000E+00  0.00000000000E+00  0.95141536188E+02  0.95141536188E+02  0.00000000000E+00 0.  1.
         21   -1    0    0  501  503 -0.00000000000E+00 -0.00000000000E+00 -0.48296693130E+03  0.48296693130E+03  0.00000000000E+00 0.  1.
          6    2    1    2  501    0  0.81370246571E+02 -0.89969401020E+02 -0.14648188242E+03  0.25814354292E+03  0.17454379602E+03 0.  0.
         24    2    3    3    0    0  0.55445896854E+02 -0.54260326307E+01 -0.13941321897E+03  0.16930825123E+03  0.78265886587E+02 0.  0.
         -6    2    1    2    0  502 -0.81370246571E+02  0.89969401020E+02 -0.24134351269E+03  0.31996492457E+03  0.17150875105E+03 0.  0.
        -24    2    5    5    0    0 -0.31206455543E+02 -0.13237272573E+02 -0.14927399940E+03  0.17276808805E+03  0.80106286251E+02 0.  0.
          5    1    3    3  501    0  0.25924349718E+02 -0.84543368389E+02 -0.70686634504E+01  0.88835291691E+02  0.47000000000E+01 0. -1.
        -13    1    4    4    0    0  0.45934388229E+02 -0.37079965404E+02 -0.11100272584E+03  0.12572389193E+03  0.00000000000E+00 0.  1.
         14    1    4    4    0    0  0.95115086247E+01  0.31653932774E+02 -0.28410493131E+02  0.43584359308E+02  0.00000000000E+00 0. -1.
         -5    1    5    5    0  502 -0.50163791029E+02  0.10320667359E+03 -0.92069513288E+02  0.14719683652E+03  0.47000000000E+01 0.  1.
         13    1    6    6    0    0  0.22209965752E+02 -0.21070843087E+02 -0.35796505178E+02  0.47102577319E+02  0.00000000000E+00 0. -1.
        -14    1    6    6    0    0 -0.53416421295E+02  0.78335705142E+01 -0.11347749423E+03  0.12566551073E+03  0.00000000000E+00 0.  1.
</event>
<event>
12    1  0.8406581E-002  0.1855324E+03  0.7818608E-02  0.1163666E+00
         21   -1    0    0  503  502  0.00000000000E+00  0.00000000000E+00  0.12104999053E+03  0.12104999053E+03  0.00000000000E+00 0. -1.
         21   -1    0    0  501  503 -0.00000000000E+00 -0.00000000000E+00 -0.37596987078E+03  0.37596987078E+03  0.00000000000E+00 0. -1.
          6    2    1    2  501    0  0.48043038945E+02 -0.28464913712E+02 -0.25604721378E+03  0.31620001137E+03  0.17692904397E+03 0.  0.
         24    2    3    3    0    0 -0.25867324632E+02  0.10636181046E+01 -0.20345900997E+03  0.22068935638E+03  0.81473759678E+02 0.  0.
         -6    2    1    2    0  502 -0.48043038945E+02  0.28464913712E+02  0.11273335278E+01  0.18081984994E+03  0.17197721462E+03 0.  0.
        -24    2    5    5    0    0 -0.58751240221E+02 -0.38729814066E+02 -0.28817473529E+02  0.10633106900E+03  0.74324576887E+02 0.  0.
          5    1    3    3  501    0  0.73910363576E+02 -0.29528531816E+02 -0.52588203813E+02  0.95510654984E+02  0.47000000000E+01 0. -1.
        -13    1    4    4    0    0 -0.33137570230E+02 -0.27495615190E+02 -0.57782992056E+02  0.72062345135E+02  0.00000000000E+00 0.  1.
         14    1    4    4    0    0  0.72702455981E+01  0.28559233295E+02 -0.14567601791E+03  0.14862701125E+03  0.00000000000E+00 0. -1.
         -5    1    5    5    0  502  0.10708201276E+02  0.67194727778E+02  0.29944807056E+02  0.74488780936E+02  0.47000000000E+01 0.  1.
         11    1    6    6    0    0 -0.54529893473E+01 -0.55275464279E+01  0.23404965278E+02  0.24659303762E+02  0.00000000000E+00 0. -1.
        -12    1    6    6    0    0 -0.53298250874E+02 -0.33202267638E+02 -0.52222438807E+02  0.81671765240E+02  0.00000000000E+00 0.  1.
</event>
<event>
12    1  0.8406581E-002  0.1763221E+03  0.7818608E-02  0.1171661E+00
         21   -1    0    0  503  502  0.00000000000E+00  0.00000000000E+00  0.12655262148E+03  0.12655262148E+03  0.00000000000E+00 0.  1.
         21   -1    0    0  501  503 -0.00000000000E+00 -0.00000000000E+00 -0.32708863478E+03  0.32708863478E+03  0.00000000000E+00 0.  1.
          6    2    1    2  501    0  0.24926088491E+02  0.15282822171E+02  0.13653549397E+02  0.17684994434E+03  0.17388101927E+03 0.  0.
         24    2    3    3    0    0 -0.52866624205E+02  0.12442709615E+02  0.19320026306E+02  0.98658056348E+02  0.80065271426E+02 0.  0.
         -6    2    1    2    0  502 -0.24926088491E+02 -0.15282822171E+02 -0.21418956269E+03  0.27679131192E+03  0.17286233554E+03 0.  0.
        -24    2    5    5    0    0 -0.76003002307E+02 -0.26393179433E+02 -0.92604373229E+02  0.14436269167E+03  0.76104931022E+02 0.  0.
          5    1    3    3  501    0  0.77792712696E+02  0.28401125560E+01 -0.56664769089E+01  0.78191887997E+02  0.47000000000E+01 0. -1.
        -11    1    4    4    0    0 -0.52915974151E+01 -0.18446342634E+02  0.34905287845E+02  0.39832746319E+02  0.00000000000E+00 0.  1.
         12    1    4    4    0    0 -0.47575026790E+02  0.30889052249E+02 -0.15585261538E+02  0.58825310030E+02  0.00000000000E+00 0. -1.
         -5    1    5    5    0  502  0.51076913815E+02  0.11110357262E+02 -0.12158518946E+03  0.13242862025E+03  0.47000000000E+01 0.  1.
         11    1    6    6    0    0 -0.66075418075E+01  0.19489989983E+02 -0.97729605203E+00  0.20602777139E+02  0.00000000000E+00 0. -1.
        -12    1    6    6    0    0 -0.69395460499E+02 -0.45883169416E+02 -0.91627077177E+02  0.12375991453E+03  0.00000000000E+00 0.  1.
</event>
<event>
12    1  0.8406581E-002  0.1849620E+03  0.7818608E-02  0.1165171E+00
         21   -1    0    0  501  502  0.00000000000E+00  0.00000000000E+00  0.19450758222E+03  0.19450758222E+03  0.00000000000E+00 0. -1.
         21   -1    0    0  502  503 -0.00000000000E+00 -0.00000000000E+00 -0.18539550892E+03  0.18539550892E+03  0.00000000000E+00 0. -1.
         -6    2    1    2    0  503  0.42044158311E+02 -0.98069647251E+01 -0.54204500262E+02  0.18440395420E+03  0.17088827540E+03 0.  0.
        -24    2    3    3    0    0  0.85316658063E+02  0.15397400749E+02 -0.62325875534E+02  0.13345480298E+03  0.80060337142E+02 0.  0.
          6    2    1    2  501    0 -0.42044158311E+02  0.98069647251E+01  0.63316573563E+02  0.19549913695E+03  0.17985281831E+03 0.  0.
         24    2    5    5    0    0  0.16997353790E+02 -0.53201378309E+02  0.24066221391E+02  0.10053266082E+03  0.80052084230E+02 0.  0.
          5    1    5    5  501    0 -0.59041512101E+02  0.63008343034E+02  0.39250352172E+02  0.94966476131E+02  0.47000000000E+01 0. -1.
        -13    1    6    6    0    0 -0.13517596527E+02  0.14964380198E+02 -0.43420867743E+01  0.20627937564E+02  0.00000000000E+00 0.  1.
         14    1    6    6    0    0  0.30514950317E+02 -0.68165758507E+02  0.28408308165E+02  0.79904723256E+02  0.00000000000E+00 0. -1.
         -5    1    3    3    0  503 -0.43272499752E+02 -0.25204365474E+02  0.81213752722E+01  0.50949151220E+02  0.47000000000E+01 0.  1.
         13    1    4    4    0    0  0.50499259373E+02  0.44852275433E+02 -0.18095298138E+02  0.69923827294E+02  0.00000000000E+00 0. -1.
        -14    1    4    4    0    0  0.34817398690E+02 -0.29454874684E+02 -0.44230577396E+02  0.63530975681E+02  0.00000000000E+00 0.  1.
</event>
<event>
12    1  0.8406581E-002  0.1915808E+03  0.7818608E-02  0.1158042E+00
         21   -1    0    0  501  502  0.00000000000E+00  0.00000000000E+00  0.14574003469E+04  0.14574003469E+04  0.00000000000E+00 0.  1.
         21   -1    0    0  502  503 -0.00000000000E+00 -0.00000000000E+00 -0.25414541470E+02  0.25414541470E+02  0.00000000000E+00 0.  1.
         -6    2    1    2    0  503 -0.42315914271E+02  0.73338078505E+02  0.57569556924E+03  0.60535481829E+03  0.16691302294E+03 0.  0.
        -24    2    3    3    0    0 -0.39515314110E+02 -0.16207427146E+02  0.21393591285E+03  0.23263725775E+03  0.80792191106E+02 0.  0.
          6    2    1    2  501    0  0.42315914271E+02 -0.73338078505E+02  0.85629023614E+03  0.87746007003E+03  0.17185486791E+03 0.  0.
         24    2    5    5    0    0  0.81142266904E+02 -0.28771637796E+02  0.71293186456E+03  0.72232346572E+03  0.77893972778E+02 0.  0.
          5    1    5    5  501    0 -0.38826352634E+02 -0.44566440709E+02  0.14335837158E+03  0.15513660431E+03  0.47000000000E+01 0. -1.
        -13    1    6    6    0    0  0.20682375639E+02 -0.48263846178E+02  0.31040028382E+03  0.31481025350E+03  0.00000000000E+00 0.  1.
         14    1    6    6    0    0  0.60459891266E+02  0.19492208382E+02  0.40253158074E+03  0.40751321222E+03  0.00000000000E+00 0. -1.
         -5    1    3    3    0  503 -0.28006001606E+01  0.89545505650E+02  0.36175965639E+03  0.37271756054E+03  0.47000000000E+01 0.  1.
         11    1    4    4    0    0 -0.40070359667E+02 -0.31013215656E+02  0.62413336457E+02  0.80392025953E+02  0.00000000000E+00 0. -1.
        -12    1    4    4    0    0  0.55504555678E+00  0.14805788510E+02  0.15152257639E+03  0.15224523179E+03  0.00000000000E+00 0.  1.
</event>
<event>
12    1  0.8406581E-002  0.1820938E+03  0.7818608E-02  0.1166962E+00
         21   -1    0    0  503  502  0.00000000000E+00  0.00000000000E+00  0.10172267199E+04  0.10172267199E+04  0.00000000000E+00 0.  1.
         21   -1    0    0  501  503 -0.00000000000E+00 -0.00000000000E+00 -0.46943840093E+02  0.46943840093E+02  0.00000000000E+00 0.  1.
          6    2    1    2  501    0 -0.63046687904E+01  0.46249086353E+02  0.18672870765E+03  0.26081745606E+03  0.17600968238E+03 0.  0.
         24    2    3    3    0    0 -0.58954153562E+02  0.67871195704E+02  0.10432317220E+03  0.16055656572E+03  0.82540869334E+02 0.  0.
         -6    2    1    2    0  502  0.63046687904E+01 -0.46249086353E+02  0.78355417213E+03  0.80335310390E+03  0.17099807614E+03 0.  0.
        -24    2    5    5    0    0 -0.12070892720E+02 -0.65978114199E+02  0.76112478676E+03  0.76796859982E+03  0.77239959187E+02 0.  0.
          5    1    3    3  501    0  0.52649484771E+02 -0.21622109351E+02  0.82405535447E+02  0.10026089034E+03  0.47000000000E+01 0. -1.
        -13    1    4    4    0    0 -0.30531073475E+02  0.37321963628E+02  0.22681494434E-01  0.48219041167E+02  0.00000000000E+00 0.  1.
         14    1    4    4    0    0 -0.28423080087E+02  0.30549232076E+02  0.10430049070E+03  0.11233752456E+03  0.00000000000E+00 0. -1.
         -5    1    5    5    0  502  0.18375561511E+02  0.19729027846E+02  0.22429385379E+02  0.35384504081E+02  0.47000000000E+01 0.  1.
         13    1    6    6    0    0 -0.27496211714E+02  0.64443561477E+01  0.20550385020E+03  0.20743530035E+03  0.00000000000E+00 0. -1.
        -14    1    6    6    0    0  0.15425318994E+02 -0.72422470347E+02  0.55562093656E+03  0.56053329947E+03  0.00000000000E+00 0.  1.
</event>
<event>
12    1  0.8406581E-002  0.2128485E+03  0.7818608E-02  0.1139610E+00
         21   -1    0    0  503  502  0.00000000000E+00  0.00000000000E+00  0.99501870143E+02  0.99501870143E+02  0.00000000000E+00 0. -1.
         21   -1    0    0  501  503 -0.00000000000E+00 -0.00000000000E+00 -0.12496937996E+04  0.12496937996E+04  0.00000000000E+00 0.  1.
          6    2    1    2  501    0  0.11667509998E+03  0.38091145353E+02 -0.11132724012E+04  0.11331689993E+04  0.17214101014E+03 0.  0.
         24    2    3    3    0    0  0.82317374433E+02  0.94038749810E+02 -0.81332538181E+03  0.82608449595E+03  0.72787232115E+02 0.  0.
         -6    2    1    2    0  502 -0.11667509998E+03 -0.38091145353E+02 -0.36919528319E+02  0.21602667051E+03  0.17389783349E+03 0.  0.
        -24    2    5    5    0    0 -0.57921570933E+02 -0.79941367880E+02  0.14588094224E+02  0.12726551076E+03  0.78982067953E+02 0.  0.
          5    1    3    3  501    0  0.34357725545E+02 -0.55947604457E+02 -0.29994701935E+03  0.30708450330E+03  0.47000000000E+01 0. -1.
        -13    1    4    4    0    0  0.31619700253E+02  0.17584705608E+02 -0.44645868298E+03  0.44792229563E+03  0.00000000000E+00 0.  1.
         14    1    4    4    0    0  0.50697674179E+02  0.76454044202E+02 -0.36686669883E+03  0.37816220032E+03  0.00000000000E+00 0. -1.
         -5    1    5    5    0  502 -0.58753529045E+02  0.41850222527E+02 -0.51507622543E+02  0.88761159753E+02  0.47000000000E+01 0.  1.
         11    1    6    6    0    0 -0.53708752719E+02 -0.40094538025E+02  0.41652922334E+02  0.78912407371E+02  0.00000000000E+00 0. -1.
        -12    1    6    6    0    0 -0.42128182143E+01 -0.39846829855E+02 -0.27064828110E+02  0.48353103390E+02  0.00000000000E+00 0.  1.
</event>
<event>
12    1  0.8406581E-002  0.1789873E+03  0.7818608E-02  0.1168958E+00
         21   -1    0    0  501  502  0.00000000000E+00  0.00000000000E+00  0.29473217676E+03  0.29473217676E+03  0.00000000000E+00 0. -1.
         21   -1    0    0  502  503 -0.00000000000E+00 -0.00000000000E+00 -0.89990421201E+03  0.89990421201E+03  0.00000000000E+00 0. -1.
         -6    2    1    2    0  503 -0.29936426408E+02 -0.39021758886E+02 -0.86289171024E+03  0.88125964314E+03  0.17209755294E+03 0.  0.
        -24    2    3    3    0    0 -0.59212494289E+02 -0.72485040827E+02 -0.47795237058E+03  0.49373252846E+03  0.81074906700E+02 0.  0.
          6    2    1    2  501    0  0.29936426408E+02  0.39021758886E+02  0.25771967500E+03  0.31337674563E+03  0.17136705205E+03 0.  0.
         24    2    5    5    0    0  0.29948196939E+02 -0.39793585282E+02  0.17294387686E+03  0.19752820415E+03  0.81408740067E+02 0.  0.
          5    1    5    5  501    0 -0.11770531785E-01  0.78815344169E+02  0.84775798133E+02  0.11584854148E+03  0.47000000000E+01 0. -1.
        -11    1    6    6    0    0 -0.22021862440E+01 -0.45764587373E+01 -0.85115791992E+01  0.99116385776E+01  0.00000000000E+00 0.  1.
         12    1    6    6    0    0  0.32150383183E+02 -0.35217126545E+02  0.18145545606E+03  0.18761656557E+03  0.00000000000E+00 0. -1.
         -5    1    3    3    0  503  0.29276067881E+02  0.33463281940E+02 -0.38493933967E+03  0.38752711468E+03  0.47000000000E+01 0.  1.
         11    1    4    4    0    0  0.18973717180E+01 -0.40303437019E+02 -0.30244890834E+03  0.30512834875E+03  0.00000000000E+00 0. -1.
        -12    1    4    4    0    0 -0.61109866007E+02 -0.32181603807E+02 -0.17550346223E+03  0.18860417971E+03  0.00000000000E+00 0.  1.
</event>
<event>
12    1  0.8406581E-002  0.1763895E+03  0.7818608E-02  0.1171925E+00
         21   -1    0    0  501  502  0.00000000000E+00  0.00000000000E+00  0.38461572781E+03  0.38461572781E+03  0.00000000000E+00 0. -1.
         21   -1    0    0  502  503 -0.00000000000E+00 -0.00000000000E+00 -0.39693858079E+03  0.39693858079E+03  0.00000000000E+00 0. -1.
         -6    2    1    2    0  503 -0.18199381817E+01  0.28935156620E+02 -0.35542865025E+03  0.39576312495E+03  0.17163440853E+03 0.  0.
        -24    2    3    3    0    0 -0.28224237426E+02  0.30755702170E+01 -0.34899796067E+03  0.35795639280E+03  0.74344709880E+02 0.  0.
          6    2    1    2  501    0  0.18199381817E+01 -0.28935156620E+02  0.34310579727E+03  0.38579118364E+03  0.17399049914E+03 0.  0.
         24    2    5    5    0    0 -0.24435399797E+02 -0.17662879481E+02  0.67287433359E+02  0.10845696852E+03  0.79537722235E+02 0.  0.
          5    1    5    5  501    0  0.26255337978E+02 -0.11272277139E+02  0.27581836391E+03  0.27733421512E+03  0.47000000000E+01 0. -1.
        -11    1    6    6    0    0  0.76499707686E+01 -0.14619349000E+00 -0.15870670317E+02  0.17618785475E+02  0.00000000000E+00 0.  1.
         12    1    6    6    0    0 -0.32085370565E+02 -0.17516685991E+02  0.83158103676E+02  0.90838183048E+02  0.00000000000E+00 0. -1.
         -5    1    3    3    0  503  0.26404299244E+02  0.25859586403E+02 -0.64306895844E+01  0.37806732153E+02  0.47000000000E+01 0.  1.
         13    1    4    4    0    0 -0.16250252744E+02  0.38713186937E+02 -0.18348952993E+03  0.18823174320E+03  0.00000000000E+00 0. -1.
        -14    1    4    4    0    0 -0.11973984683E+02 -0.35637616720E+02 -0.16550843074E+03  0.16972464960E+03  0.00000000000E+00 0.  1.
</event>
<event>
12    1  0.8406581E-002  0.1763277E+03  0.7818608E-02  0.1171817E+00
         21   -1    0    0  503  502  0.00000000000E+00  0.00000000000E+00  0.50481114579E+02  0.50481114579E+02  0.00000000000E+00 0.  1.
         21   -1    0    0  501  503 -0.00000000000E+00 -0.00000000000E+00 -0.73213648009E+03  0.73213648009E+03  0.00000000000E+00 0.  1.
          6    2    1    2  501    0 -0.11389247356E+02  0.35455498834E+02 -0.50188510103E+03  0.53195876521E+03  0.17235041602E+03 0.  0.
         24    2    3    3    0    0 -0.59087271631E+02 -0.13657213781E+02 -0.21120806710E+03  0.23329107678E+03  0.78345732123E+02 0.  0.
         -6    2    1    2    0  502  0.11389247356E+02 -0.35455498834E+02 -0.17977026448E+03  0.25065882945E+03  0.17066251328E+03 0.  0.
        -24    2    5    5    0    0 -0.52829139076E+02 -0.44207678234E+02 -0.83024341178E+02  0.13411499445E+03  0.79677812212E+02 0.  0.
          5    1    3    3  501    0  0.47698024275E+02  0.49112712615E+02 -0.29067703393E+03  0.29866768843E+03  0.47000000000E+01 0. -1.
        -13    1    4    4    0    0 -0.69477820927E+02 -0.27074943845E+02 -0.19863648671E+03  0.21217133180E+03  0.00000000000E+00 0.  1.
         14    1    4    4    0    0  0.10390549295E+02  0.13417730064E+02 -0.12571580390E+02  0.21119744985E+02  0.00000000000E+00 0. -1.
         -5    1    5    5    0  502  0.64218386432E+02  0.87521794005E+01 -0.96745923304E+02  0.11654383500E+03  0.47000000000E+01 0.  1.
         13    1    6    6    0    0 -0.63598601279E+02 -0.32251311741E+02 -0.27703017342E+02  0.76500891260E+02  0.00000000000E+00 0. -1.
        -14    1    6    6    0    0  0.10769462203E+02 -0.11956366494E+02 -0.55321323836E+02  0.57614103194E+02  0.00000000000E+00 0.  1.
</event>
<event>
12    1  0.8406581E-002  0.1801689E+03  0.7818608E-02  0.1168470E+00
         21   -1    0    0  501  502  0.00000000000E+00  0.00000000000E+00  0.60886746654E+03  0.60886746654E+03  0.00000000000E+00 0. -1.
         21   -1    0    0  502  503 -0.00000000000E+00 -0.00000000000E+00 -0.71327713584E+02  0.71327713584E+02  0.00000000000E+00 0.  1.
         -6    2    1    2    0  503  0.25707334170E+02 -0.38305818289E+02  0.95051132104E+02  0.20370452676E+03  0.17416260724E+03 0.  0.
        -24    2    3    3    0    0 -0.45082957227E+02 -0.54759132958E+02  0.72784178063E+02  0.12754755622E+03  0.77070142375E+02 0.  0.
          6    2    1    2  501    0 -0.25707334170E+02  0.38305818289E+02  0.44248862086E+03  0.47649065337E+03  0.17064278601E+03 0.  0.
         24    2    5    5    0    0 -0.31413175758E+02 -0.38117571727E+02  0.18616091345E+03  0.20891061908E+03  0.80919862709E+02 0.  0.
          5    1    5    5  501    0  0.57058415883E+01  0.76423390015E+02  0.25632770740E+03  0.26758003429E+03  0.47000000000E+01 0. -1.
        -11    1    6    6    0    0 -0.52506124432E+02 -0.90438757430E+01  0.14390345582E+03  0.15344995728E+03  0.00000000000E+00 0.  1.
         12    1    6    6    0    0  0.21092948674E+02 -0.29073695984E+02  0.42257457632E+02  0.55460661801E+02  0.00000000000E+00 0. -1.
         -5    1    3    3    0  503  0.70790291397E+02  0.16453314669E+02  0.22266954041E+02  0.76156970540E+02  0.47000000000E+01 0.  1.
         11    1    4    4    0    0  0.31929495007E+01  0.11612231718E+02  0.35344081799E+02  0.37339563069E+02  0.00000000000E+00 0. -1.
        -12    1    4    4    0    0 -0.48275906728E+02 -0.66371364676E+02  0.37440096263E+02  0.90207993147E+02  0.00000000000E+00 0.  1.
</event>
<event>
12    1  0.8406581E-002  0.2108645E+03  0.7818608E-02  0.1142279E+00
         21   -1    0    0  501  502  0.00000000000E+00  0.00000000000E+00  0.10191428052E+03  0.10191428052E+03  0.00000000000E+00 0.  1.
         21   -1    0    0  502  503 -0.00000000000E+00 -0.00000000000E+00 -0.42745247950E+03  0.42745247950E+03  0.00000000000E+00 0. -1.
         -6    2    1    2    0  503 -0.81800761875E+02 -0.70113982146E+02 -0.13557312167E+03  0.25068686661E+03  0.18126361641E+03 0.  0.
        -24    2    3    3    0    0 -0.12422975208E+03 -0.77930379091E+02 -0.10054832716E+03  0.19491822397E+03  0.79855949402E+02 0.  0.
          6    2    1    2  501    0  0.81800761875E+02  0.70113982146E+02 -0.18996507731E+03  0.27867989341E+03  0.17311388522E+03 0.  0.
         24    2    5    5    0    0  0.50614000984E+02 -0.29761772408E+02 -0.81607907372E+02  0.12797771465E+03  0.79189044129E+02 0.  0.
          5    1    5    5  501    0  0.31186760891E+02  0.99875754554E+02 -0.10835716994E+03  0.15070217875E+03  0.47000000000E+01 0. -1.
        -11    1    6    6    0    0  0.39044406014E+02 -0.28049643791E+01  0.21773766060E+01  0.39205540872E+02  0.00000000000E+00 0.  1.
         12    1    6    6    0    0  0.11569594970E+02 -0.26956808029E+02 -0.83785283978E+02  0.88772173783E+02  0.00000000000E+00 0. -1.
         -5    1    3    3    0  503  0.42428990204E+02  0.78163969452E+01 -0.35024794507E+02  0.55768642634E+02  0.47000000000E+01 0.  1.
         11    1    4    4    0    0 -0.60590600153E+02 -0.36976331808E+02 -0.95610601675E+02  0.11907920513E+03  0.00000000000E+00 0. -1.
        -12    1    4    4    0    0 -0.63639151926E+02 -0.40954047283E+02 -0.49377254883E+01  0.75839018848E+02  0.00000000000E+00 0.  1.
</event>
<event>
12    1  0.8406581E-002  0.2806607E+03  0.7818608E-02  0.1095451E+00
         21   -1    0    0  501  502  0.00000000000E+00  0.00000000000E+00  0.24046034202E+03  0.24046034202E+03  0.00000000000E+00 0. -1.
         21   -1    0    0  502  503 -0.00000000000E+00 -0.00000000000E+00 -0.40478837768E+03  0.40478837768E+03  0.00000000000E+00 0.  1.
         -6    2    1    2    0  503 -0.16499884060E+03 -0.14823248550E+03 -0.22412516440E+03  0.35916920018E+03  0.17196783968E+03 0.  0.
        -24    2    3    3    0    0 -0.87983549531E+02 -0.16340838321E+03 -0.16986651128E+03  0.26362991838E+03  0.78757206142E+02 0.  0.
          6    2    1    2  501    0  0.16499884060E+03  0.14823248550E+03  0.59797128744E+02  0.28607951952E+03  0.17049430409E+03 0.  0.
         24    2    5    5    0    0  0.21712567121E+02  0.95565891467E+02  0.13719923495E+02  0.12654919282E+03  0.78880838737E+02 0.  0.
          5    1    5    5  501    0  0.14328627348E+03  0.52666594035E+02  0.46077205248E+02  0.15953032670E+03  0.47000000000E+01 0. -1.
        -13    1    6    6    0    0  0.33621755595E+02  0.14606796653E+02 -0.15304226453E+02  0.39724051972E+02  0.00000000000E+00 0.  1.
         14    1    6    6    0    0 -0.11909188474E+02  0.80959094814E+02  0.29024149948E+02  0.86825140848E+02  0.00000000000E+00 0. -1.
         -5    1    3    3    0  503 -0.77015291066E+02  0.15175897703E+02 -0.54258653123E+02  0.95539281805E+02  0.47000000000E+01 0.  1.
         11    1    4    4    0    0 -0.76465504462E+01 -0.85345501549E+02 -0.48461484663E+02  0.98442063490E+02  0.00000000000E+00 0. -1.
        -12    1    4    4    0    0 -0.80336999084E+02 -0.78062881656E+02 -0.12140502662E+03  0.16518785489E+03  0.00000000000E+00 0.  1.
</event>
<event>
12    1  0.8406581E-002  0.2051261E+03  0.7818608E-02  0.1145650E+00
         21   -1    0    0  503  502  0.00000000000E+00  0.00000000000E+00  0.38574943459E+03  0.38574943459E+03  0.00000000000E+00 0. -1.
         21   -1    0    0  501  503 -0.00000000000E+00 -0.00000000000E+00 -0.11183217458E+03  0.11183217458E+03  0.00000000000E+00 0.  1.
          6    2    1    2  501    0  0.13785513608E+01 -0.11184474049E+03  0.94718123593E+02  0.22520495836E+03  0.17098129709E+03 0.  0.
         24    2    3    3    0    0  0.30316994853E+02 -0.11739308231E+03  0.22883680354E+02  0.14742003152E+03  0.80676805311E+02 0.  0.
         -6    2    1    2    0  502 -0.13785513608E+01  0.11184474049E+03  0.17919913641E+03  0.27237665081E+03  0.17194639582E+03 0.  0.
        -24    2    5    5    0    0 -0.23488808989E+02  0.14614721386E+02  0.22405838644E+02  0.86503661024E+02  0.78838743878E+02 0.  0.
          5    1    3    3  501    0 -0.28938443493E+02  0.55483418149E+01  0.71834443239E+02  0.77784926844E+02  0.47000000000E+01 0. -1.
        -11    1    4    4    0    0  0.16276808679E+01 -0.44948585564E+02 -0.29265269602E+02  0.53660792895E+02  0.00000000000E+00 0.  1.
         12    1    4    4    0    0  0.28689313986E+02 -0.72444496743E+02  0.52148949956E+02  0.93759238621E+02  0.00000000000E+00 0. -1.
         -5    1    5    5    0  502  0.22110257629E+02  0.97230019106E+02  0.15679329776E+03  0.18587298978E+03  0.47000000000E+01 0.  1.
         13    1    6    6    0    0  0.26208897158E+02  0.15969920706E+02  0.20192940305E+02  0.36738256569E+02  0.00000000000E+00 0. -1.
        -14    1    6    6    0    0 -0.49697706147E+02 -0.13551993200E+01  0.22128983389E+01  0.49765404455E+02  0.00000000000E+00 0.  1.
</event>
<event>
12    1  0.8406581E-002  0.1746143E+03  0.7818608E-02  0.1173911E+00
         21   -1    0    0  501  502  0.00000000000E+00  0.00000000000E+00  0.67160597925E+03  0.67160597925E+03  0.00000000000E+00 0. -1.
         21   -1    0    0  502  503 -0.00000000000E+00 -0.00000000000E+00 -0.45024001550E+02  0.45024001550E+02  0.00000000000E+00 0. -1.
         -6    2    1    2    0  503 -0.39506330930E+01 -0.61065612809E+01  0.27542445966E+03  0.32445430809E+03  0.17134487874E+03 0.  0.
        -24    2    3    3    0    0 -0.48053265351E+02  0.40175538806E+02  0.20796179556E+03  0.23139316686E+03  0.79821670159E+02 0.  0.
          6    2    1    2  501    0  0.39506330930E+01  0.61065612809E+01  0.35115751804E+03  0.39217567271E+03  0.17446277022E+03 0.  0.
         24    2    5    5    0    0 -0.48517578799E+02 -0.41914360703E+02  0.18336926137E+03  0.20987396870E+03  0.79448270191E+02 0.  0.
          5    1    5    5  501    0  0.52468211892E+02  0.48020921984E+02  0.16778825668E+03  0.18230170401E+03  0.47000000000E+01 0. -1.
        -11    1    6    6    0    0 -0.48200488082E+02 -0.56801256317E+02  0.17971267794E+03  0.19454129737E+03  0.00000000000E+00 0.  1.
         12    1    6    6    0    0 -0.31709071649E+00  0.14886895614E+02  0.36565834249E+01  0.15332671323E+02  0.00000000000E+00 0. -1.
         -5    1    3    3    0  503  0.44102632258E+02 -0.46282100087E+02  0.67462664095E+02  0.93061141231E+02  0.47000000000E+01 0.  1.
         11    1    4    4    0    0 -0.42794042735E+02  0.40805883964E+02  0.63253080749E+02  0.86587542314E+02  0.00000000000E+00 0. -1.
        -12    1    4    4    0    0 -0.52592226155E+01 -0.63034515767E+00  0.14470871481E+03  0.14480562454E+03  0.00000000000E+00 0.  1.
</event>
<event>
12    1  0.8406581E-002  0.1811076E+03  0.7818608E-02  0.1166898E+00
         21   -1    0    0  503  502  0.00000000000E+00  0.00000000000E+00  0.56364000762E+03  0.56364000762E+03  0.00000000000E+00 0.  1.
         21   -1    0    0  501  503 -0.00000000000E+00 -0.00000000000E+00 -0.63983705886E+02  0.63983705886E+02  0.00000000000E+00 0. -1.
          6    2    1    2  501    0 -0.42086743860E+02 -0.31988277719E+02  0.15324716135E+03  0.23672826225E+03  0.17251386543E+03 0.  0.
         24    2    3    3    0    0 -0.67812154481E+01 -0.64919110722E+02  0.15754443200E+03  0.18803045292E+03  0.79213176615E+02 0.  0.
         -6    2    1    2    0  502  0.42086743860E+02  0.31988277719E+02  0.34640914039E+03  0.39089545126E+03  0.17322071860E+03 0.  0.
        -24    2    5    5    0    0  0.24682144976E+02  0.84310159845E+02  0.18518148360E+03  0.22043446827E+03  0.81128056780E+02 0.  0.
          5    1    3    3  501    0 -0.35305528412E+02  0.32930833003E+02 -0.42972706501E+01  0.48697809332E+02  0.47000000000E+01 0. -1.
        -11    1    4    4    0    0 -0.31661917405E+02 -0.70317640509E+02  0.11551478447E+03  0.13889101127E+03  0.00000000000E+00 0.  1.
         12    1    4    4    0    0  0.24880701957E+02  0.53985297868E+01  0.42029647527E+02  0.49139441643E+02  0.00000000000E+00 0. -1.
         -5    1    5    5    0  502  0.17404598884E+02 -0.52321882126E+02  0.16122765679E+03  0.17046098300E+03  0.47000000000E+01 0.  1.
         11    1    6    6    0    0 -0.27308194272E+02  0.25747101626E+02  0.87698557167E+02  0.95392282946E+02  0.00000000000E+00 0. -1.
        -12    1    6    6    0    0  0.51990339249E+02  0.58563058219E+02  0.97482926435E+02  0.12504218532E+03  0.00000000000E+00 0.  1.
</event>
<event>
12    1  0.8406581E-002  0.2481795E+03  0.7818608E-02  0.1114833E+00
         21   -1    0    0  501  502  0.00000000000E+00  0.00000000000E+00  0.20750422509E+03  0.20750422509E+03  0.00000000000E+00 0.  1.
         21   -1    0    0  502  503 -0.00000000000E+00 -0.00000000000E+00 -0.39895364628E+03  0.39895364628E+03  0.00000000000E+00 0.  1.
         -6    2    1    2    0  503  0.17557345002E+03 -0.32433725207E+02 -0.25087619365E+03  0.35126263928E+03  0.16902246695E+03 0.  0.
        -24    2    3    3    0    0  0.26085997501E+02 -0.43337603281E+02 -0.75315109433E+02  0.12037483686E+03  0.79114527841E+02 0.  0.
          6    2    1    2  501    0 -0.17557345002E+03  0.32433725207E+02  0.59426772451E+02  0.25519523209E+03  0.17238063207E+03 0.  0.
         24    2    5    5    0    0 -0.74774806201E+02  0.11102660020E+02 -0.34449169605E+02  0.11573138934E+03  0.80575855499E+02 0.  0.
          5    1    5    5  501    0 -0.10079864382E+03  0.21331065187E+02  0.93875942056E+02  0.13946384275E+03  0.47000000000E+01 0. -1.
        -11    1    6    6    0    0 -0.82737571858E+02 -0.13964862944E+02 -0.22696932779E+02  0.86923379775E+02  0.00000000000E+00 0.  1.
         12    1    6    6    0    0  0.79627656570E+01  0.25067522964E+02 -0.11752236825E+02  0.28808009561E+02  0.00000000000E+00 0. -1.
         -5    1    3    3    0  503  0.14948745252E+03  0.10903878074E+02 -0.17556108422E+03  0.23088780243E+03  0.47000000000E+01 0.  1.
         13    1    4    4    0    0  0.46512345847E+00 -0.47761896768E+01 -0.73900595186E+02  0.74056237391E+02  0.00000000000E+00 0. -1.
        -14    1    4    4    0    0  0.25620874042E+02 -0.38561413604E+02 -0.14145142464E+01  0.46318599465E+02  0.00000000000E+00 0.  1.
</event>
<event>
12    1  0.8406581E-002  0.1789614E+03  0.7818608E-02  0.1169160E+00
         21   -1    0    0  501  502  0.00000000000E+00  0.00000000000E+00  0.10777816012E+03  0.10777816012E+03  0.00000000000E+00 0.  1.
         21   -1    0    0  502  503 -0.00000000000E+00 -0.00000000000E+00 -0.31683948752E+03  0.31683948752E+03  0.00000000000E+00 0.  1.
         -6    2    1    2    0  503 -0.89859372753E+01 -0.41467222296E+02 -0.16091049906E+03  0.24066445899E+03  0.17385889543E+03 0.  0.
        -24    2    3    3    0    0 -0.32016590219E+02 -0.34320583666E+02 -0.17482109047E+02  0.95147180012E+02  0.80897448755E+02 0.  0.
          6    2    1    2  501    0  0.89859372753E+01  0.41467222296E+02 -0.48150828342E+02  0.18395318866E+03  0.17239488320E+03 0.  0.
         24    2    5    5    0    0  0.49794737193E+02 -0.10521928838E+02  0.11603945781E+02  0.94729015827E+02  0.79048770030E+02 0.  0.
          5    1    5    5  501    0 -0.40808799918E+02  0.51989151134E+02 -0.59754774123E+02  0.89224172829E+02  0.47000000000E+01 0. -1.
        -13    1    6    6    0    0 -0.42518292117E+01  0.21042532958E+02  0.22612014793E+02  0.31179632101E+02  0.00000000000E+00 0.  1.
         14    1    6    6    0    0  0.54046566405E+02 -0.31564461796E+02 -0.11008069012E+02  0.63549383727E+02  0.00000000000E+00 0. -1.
         -5    1    3    3    0  503  0.23030652944E+02 -0.71466386297E+01 -0.14342839002E+03  0.14551727898E+03  0.47000000000E+01 0.  1.
         11    1    4    4    0    0  0.10124627690E+02  0.16353764531E+02  0.12292132057E+02  0.22826524280E+02  0.00000000000E+00 0. -1.
        -12    1    4    4    0    0 -0.42141217910E+02 -0.50674348198E+02 -0.29774241104E+02  0.72320655732E+02  0.00000000000E+00 0.  1.
</event>
<event>
12    1  0.8406581E-002  0.2724476E+03  0.7818608E-02  0.1100089E+00
         21   -1    0    0  501  502  0.00000000000E+00  0.00000000000E+00  0.80356403020E+03  0.80356403020E+03  0.00000000000E+00 0.  1.
         21   -1    0    0  502  503 -0.00000000000E+00 -0.00000000000E+00 -0.30657692224E+03  0.30657692224E+03  0.00000000000E+00 0. -1.
         -6    2    1    2    0  503  0.81875695426E+02 -0.19184948415E+03 -0.21619723540E+03  0.34668853189E+03  0.17303710435E+03 0.  0.
        -24    2    3    3    0    0 -0.19448582755E+02 -0.12131442152E+03 -0.10400692625E+03  0.17980366177E+03  0.80102932765E+02 0.  0.
          6    2    1    2  501    0 -0.81875695426E+02  0.19184948415E+03  0.71318434336E+03  0.76345242056E+03  0.17526504722E+03 0.  0.
         24    2    5    5    0    0 -0.92222041402E+02  0.20331968288E+03  0.70827651121E+03  0.74657672352E+03  0.76664133780E+02 0.  0.
          5    1    5    5  501    0  0.10346345975E+02 -0.11470198733E+02  0.49078321459E+01  0.16875697034E+02  0.47000000000E+01 0. -1.
        -13    1    6    6    0    0 -0.84790449779E+02  0.98067373985E+02  0.42256598673E+03  0.44200525263E+03  0.00000000000E+00 0.  1.
         14    1    6    6    0    0 -0.74315916229E+01  0.10525230889E+03  0.28571052448E+03  0.30457147089E+03  0.00000000000E+00 0. -1.
         -5    1    3    3    0  503  0.10132427818E+03 -0.70535062623E+02 -0.11219030915E+03  0.16688487012E+03  0.47000000000E+01 0.  1.
         11    1    4    4    0    0 -0.35669286526E+02 -0.15033966480E+02 -0.21467657095E+02  0.44262607815E+02  0.00000000000E+00 0. -1.
        -12    1    4    4    0    0  0.16220703771E+02 -0.10628045504E+03 -0.82539269152E+02  0.13554105395E+03  0.00000000000E+00 0.  1.
</event>
<event>
12    1  0.8406581E-002  0.1871729E+03  0.7818608E-02  0.1161422E+00
         21   -1    0    0  501  502  0.00000000000E+00  0.00000000000E+00  0.14251114193E+03  0.14251114193E+03  0.00000000000E+00 0.  1.
         21   -1    0    0  502  503 -0.00000000000E+00 -0.00000000000E+00 -0.77930229261E+03  0.77930229261E+03  0.00000000000E+00 0.  1.
         -6    2    1    2    0  503  0.66294049419E+02 -0.17099077827E+02 -0.70096586522E+03  0.72552521618E+03  0.17420222636E+03 0.  0.
        -24    2    3    3    0    0  0.38433390657E+02 -0.68162853066E+02 -0.31580768027E+03  0.33597080037E+03  0.83777011931E+02 0.  0.
          6    2    1    2  501    0 -0.66294049419E+02  0.17099077827E+02  0.64174714542E+02  0.19628821835E+03  0.17240473087E+03 0.  0.
         24    2    5    5    0    0 -0.24630249488E+02 -0.55882250977E+02  0.33812228685E+02  0.10681131001E+03  0.80844999683E+02 0.  0.
          5    1    5    5  501    0 -0.41663799931E+02  0.72981328804E+02  0.30362485857E+02  0.89476908340E+02  0.47000000000E+01 0. -1.
        -11    1    6    6    0    0 -0.39331491779E+02 -0.56325182422E+01  0.37088223980E+02  0.54352809176E+02  0.00000000000E+00 0.  1.
         12    1    6    6    0    0  0.14701242291E+02 -0.50249732734E+02 -0.32759952953E+01  0.52458500836E+02  0.00000000000E+00 0. -1.
         -5    1    3    3    0  503  0.27860658762E+02  0.51063775239E+02 -0.38515818495E+03  0.38955441581E+03  0.47000000000E+01 0.  1.
         13    1    4    4    0    0  0.60009104138E+02 -0.45898088991E+02 -0.27203211151E+03  0.28232817225E+03  0.00000000000E+00 0. -1.
        -14    1    4    4    0    0 -0.21575713481E+02 -0.22264764076E+02 -0.43775568763E+02  0.53642628124E+02  0.00000000000E+00 0.  1.
</event>
<event>
12    1  0.8406581E-002  0.2384437E+03  0.7818608E-02  0.1120836E+00
         21   -1    0    0  501  502  0.00000000000E+00  0.00000000000E+00  0.32982484395E+02  0.32982484395E+02  0.00000000000E+00 0. -1.
         21   -1    0    0  502  503 -0.00000000000E+00 -0.00000000000E+00 -0.17484883416E+04  0.17484883416E+04  0.00000000000E+00 0.  1.
         -6    2    1    2    0  503  0.11478986267E+03 -0.11735012366E+03 -0.96373638385E+03  0.99279296933E+03  0.17292281022E+03 0.  0.
        -24    2    3    3    0    0  0.84889518219E+02 -0.13261593915E+02 -0.65234777667E+03  0.66307580674E+03  0.82035380057E+02 0.  0.
          6    2    1    2  501    0 -0.11478986267E+03  0.11735012366E+03 -0.75176947335E+03  0.78867785667E+03  0.17293830238E+03 0.  0.
         24    2    5    5    0    0 -0.12872805435E+03  0.36289747977E+02 -0.46557241516E+03  0.49085928133E+03  0.79355545041E+02 0.  0.
          5    1    5    5  501    0  0.13938191676E+02  0.81060375687E+02 -0.28619705820E+03  0.29781857534E+03  0.47000000000E+01 0. -1.
        -13    1    6    6    0    0 -0.83062183997E+02  0.42497424868E+01 -0.16093000783E+03  0.18115146740E+03  0.00000000000E+00 0.  1.
         14    1    6    6    0    0 -0.45665870353E+02  0.32040005490E+02 -0.30464240733E+03  0.30970781393E+03  0.00000000000E+00 0. -1.
         -5    1    3    3    0  503  0.29900344455E+02 -0.10408852975E+03 -0.31138860718E+03  0.32971716259E+03  0.47000000000E+01 0.  1.
         11    1    4    4    0    0  0.70602458422E+02 -0.44058627960E+01 -0.23563933625E+03  0.24602848524E+03  0.00000000000E+00 0. -1.
        -12    1    4    4    0    0  0.14287059797E+02 -0.88557311192E+01 -0.41670844042E+03  0.41704732150E+03  0.00000000000E+00 0.  1.
</event>
<event>
12    1  0.8406581E-002  0.1829713E+03  0.7818608E-02  0.1166084E+00
         21   -1    0    0  503  502  0.00000000000E+00  0.00000000000E+00  0.82819950973E+02  0.82819950973E+02  0.00000000000E+00 0. -1.
         21   -1    0    0  501  503 -0.00000000000E+00 -0.00000000000E+00 -0.13426679628E+04  0.13426679628E+04  0.00000000000E+00 0. -1.
          6    2    1    2  501    0 -0.38672688754E+02 -0.33314527860E+02 -0.12314367090E+04  0.12449557687E+04  0.17570732209E+03 0.  0.
         24    2    3    3    0    0  0.47428811864E+01 -0.81799901104E+02 -0.88495291464E+03  0.89238116254E+03  0.80552835939E+02 0.  0.
         -6    2    1    2    0  502  0.38672688754E+02  0.33314527860E+02 -0.28411302781E+02  0.18053214506E+03  0.17081925727E+03 0.  0.
        -24    2    5    5    0    0 -0.28203474823E+02  0.61865754277E+02 -0.23508884522E+02  0.10749984064E+03  0.79879537689E+02 0.  0.
          5    1    3    3  501    0 -0.43415569940E+02  0.48485373245E+02 -0.34648379439E+03  0.35257460616E+03  0.47000000000E+01 0. -1.
        -13    1    4    4    0    0  0.11386579637E+02 -0.84392271841E+02 -0.48868834638E+03  0.49605242629E+03  0.00000000000E+00 0.  1.
         14    1    4    4    0    0 -0.66436984509E+01  0.25923707365E+01 -0.39626456826E+03  0.39632873625E+03  0.00000000000E+00 0. -1.
         -5    1    5    5    0  502  0.66876163577E+02 -0.28551226418E+02 -0.49024182584E+01  0.73032304424E+02  0.47000000000E+01 0.  1.
         13    1    6    6    0    0  0.26848369280E+02  0.33573692973E+02 -0.10463521596E+02  0.44243791395E+02  0.00000000000E+00 0. -1.
        -14    1    6    6    0    0 -0.55051844103E+02  0.28292061304E+02 -0.13045362927E+02  0.63256049243E+02  0.00000000000E+00 0.  1.
</event>
<event>
12    1  0.8406581E-002  0.1744149E+03  0.7818608E-02  0.1173746E+00
         21   -1    0    0  503  502  0.00000000000E+00  0.00000000000E+00  0.31911611130E+03  0.31911611130E+03  0.00000000000E+00 0. -1.
         21   -1    0    0  501  503 -0.00000000000E+00 -0.00000000000E+00 -0.96194141951E+02  0.96194141951E+02  0.00000000000E+00 0. -1.
          6    2    1    2  501    0  0.23349753445E+02  0.14256385458E+02  0.83722891426E+02  0.19346852293E+03  0.17225588903E+03 0.  0.
         24    2    3    3    0    0  0.75820184669E+02  0.34540004774E+02  0.47681742920E+02  0.12649370863E+03  0.82373523547E+02 0.  0.
         -6    2    1    2    0  502 -0.23349753445E+02 -0.14256385458E+02  0.13919907792E+03  0.22184173032E+03  0.17055472583E+03 0.  0.
        -24    2    5    5    0    0  0.12363965391E+02 -0.12207109155E+02  0.42755918927E+01  0.82177467428E+02  0.80205824681E+02 0.  0.
          5    1    3    3  501    0 -0.52470431224E+02 -0.20283619316E+02  0.36041148506E+02  0.66974814304E+02  0.47000000000E+01 0. -1.
        -11    1    4    4    0    0  0.21884395261E+02  0.55017041869E+02  0.19931405065E+02  0.62474495274E+02  0.00000000000E+00 0.  1.
         12    1    4    4    0    0  0.53935789409E+02 -0.20477037095E+02  0.27750337854E+02  0.64019213353E+02  0.00000000000E+00 0. -1.
         -5    1    5    5    0  502 -0.35713718836E+02 -0.20492763032E+01  0.13492348603E+03  0.13966426289E+03  0.47000000000E+01 0.  1.
         13    1    6    6    0    0  0.12877920221E+02  0.33366922964E+02 -0.35202151313E+01  0.35938618391E+02  0.00000000000E+00 0. -1.
        -14    1    6    6    0    0 -0.51395482958E+00 -0.45574032118E+02  0.77958070240E+01  0.46238849037E+02  0.00000000000E+00 0.  1.
</event>
<event>
12    1  0.8406581E-002  0.1909444E+03  0.7818608E-02  0.1157672E+00
         21   -1    0    0  503  502  0.00000000000E+00  0.00000000000E+00  0.87336682648E+03  0.87336682648E+03  0.00000000000E+00 0. -1.
         21   -1    0    0  501  503 -0.00000000000E+00 -0.00000000000E+00 -0.54145373041E+02  0.54145373041E+02  0.00000000000E+00 0. -1.
          6    2    1    2  501    0  0.46519489055E+02  0.67342074019E+02  0.63227010733E+03  0.66047350042E+03  0.17251300918E+03 0.  0.
         24    2    3    3    0    0 -0.26979023829E+02  0.68134540518E+02  0.27489530286E+03  0.29558790154E+03  0.80215937717E+02 0.  0.
         -6    2    1    2    0  502 -0.46519489055E+02 -0.67342074019E+02  0.18695134612E+03  0.26703869911E+03  0.17222033333E+03 0.  0.
        -24    2    5    5    0    0  0.10443557392E+02  0.23746735390E+01  0.29983018996E+02  0.86023895103E+02  0.79915093287E+02 0.  0.
          5    1    3    3  501    0  0.73498512884E+02 -0.79246649863E+00  0.35737480447E+03  0.36488559888E+03  0.47000000000E+01 0. -1.
        -13    1    4    4    0    0 -0.13277564707E+02 -0.12712704895E+02  0.17250654122E+02  0.25208959874E+02  0.00000000000E+00 0.  1.
         14    1    4    4    0    0 -0.13701459122E+02  0.80847245413E+02  0.25764464874E+03  0.27037894166E+03  0.00000000000E+00 0. -1.
         -5    1    5    5    0  502 -0.56963046446E+02 -0.69716747558E+02  0.15696832712E+03  0.18101480401E+03  0.47000000000E+01 0.  1.
         11    1    6    6    0    0  0.39340856038E+02 -0.12300932104E+02  0.33911899660E+02  0.53376332049E+02  0.00000000000E+00 0. -1.
        -12    1    6    6    0    0 -0.28897298647E+02  0.14675605643E+02 -0.39288806640E+01  0.32647563054E+02  0.00000000000E+00 0.  1.
</event>
<event>
12    1  0.8406581E-002  0.2322072E+03  0.7818608E-02  0.1125458E+00
         21   -1    0    0  503  502  0.00000000000E+00  0.00000000000E+00  0.43150474928E+03  0.43150474928E+03  0.00000000000E+00 0.  1.
         21   -1    0    0  501  503 -0.00000000000E+00 -0.00000000000E+00 -0.12736458202E+03  0.12736458202E+03  0.00000000000E+00 0. -1.
          6    2    1    2  501    0 -0.12472804974E+03 -0.92492813716E+02  0.10628404036E+03  0.25537516281E+03  0.17265042591E+03 0.  0.
         24    2    3    3    0    0 -0.78185505746E+02 -0.12199708406E+03  0.11163843506E+03  0.19981015663E+03  0.80403337515E+02 0.  0.
         -6    2    1    2    0  502  0.12472804974E+03  0.92492813716E+02  0.19785612690E+03  0.30349416848E+03  0.16985186595E+03 0.  0.
        -24    2    5    5    0    0  0.34753774757E+02  0.11685258826E+03  0.92461045410E+02  0.16271426232E+03  0.55358233370E+02 0.  0.
          5    1    3    3  501    0 -0.46542543993E+02  0.29504270340E+02 -0.53543946990E+01  0.55565006184E+02  0.47000000000E+01 0. -1.
        -11    1    4    4    0    0  0.19236334834E+01  0.96669370264E+01  0.14834497143E+02  0.17810455995E+02  0.00000000000E+00 0.  1.
         12    1    4    4    0    0 -0.80109139230E+02 -0.13166402108E+03  0.96803937914E+02  0.18199970064E+03  0.00000000000E+00 0. -1.
         -5    1    5    5    0  502  0.89974274982E+02 -0.24359774542E+02  0.10539508149E+03  0.14077990616E+03  0.47000000000E+01 0.  1.
         13    1    6    6    0    0 -0.99928727993E+01  0.54358731745E+02  0.25897681353E+02  0.61036211573E+02  0.00000000000E+00 0. -1.
        -14    1    6    6    0    0  0.44746647556E+02  0.62493856514E+02  0.66563364056E+02  0.10167805075E+03  0.00000000000E+00 0.  1.
</event>
<event>
12    1  0.8406581E-002  0.2058279E+03  0.7818608E-02  0.1145403E+00
         21   -1    0    0  501  502  0.00000000000E+00  0.00000000000E+00  0.23050213052E+03  0.23050213052E+03  0.00000000000E+00 0. -1.
         21   -1    0    0  502  503 -0.00000000000E+00 -0.00000000000E+00 -0.18166418853E+03  0.18166418853E+03  0.00000000000E+00 0.  1.
         -6    2    1    2    0  503 -0.11042037958E+03 -0.96372145910E+01  0.23633672651E+02  0.20718031293E+03  0.17343470083E+03 0.  0.
        -24    2    3    3    0    0 -0.39159715887E+01 -0.27609686113E+02 -0.25640847804E+02  0.88368415298E+02  0.79836671683E+02 0.  0.
          6    2    1    2  501    0  0.11042037958E+03  0.96372145910E+01  0.25204269345E+02  0.20498600612E+03  0.17058274057E+03 0.  0.
         24    2    5    5    0    0  0.66951265895E+02 -0.26832165028E+02 -0.43507889249E+02  0.11575019362E+03  0.79389758852E+02 0.  0.
          5    1    5    5  501    0  0.43469113685E+02  0.36469379619E+02  0.68712158594E+02  0.89235812502E+02  0.47000000000E+01 0. -1.
        -11    1    6    6    0    0  0.52573990029E+02 -0.16952629222E+02 -0.66779908198E+02  0.86665865276E+02  0.00000000000E+00 0.  1.
         12    1    6    6    0    0  0.14377275866E+02 -0.98795358065E+01  0.23272018949E+02  0.29084328341E+02  0.00000000000E+00 0. -1.
         -5    1    3    3    0  503 -0.10650440799E+03  0.17972471522E+02  0.49274520454E+02  0.11881189764E+03  0.47000000000E+01 0.  1.
         13    1    4    4    0    0  0.19186127784E+02 -0.41120389793E+01  0.22611249110E+02  0.29938018475E+02  0.00000000000E+00 0. -1.
        -14    1    4    4    0    0 -0.23102099373E+02 -0.23497647134E+02 -0.48252096914E+02  0.58430396822E+02  0.00000000000E+00 0.  1.
</event>
<event>
12    1  0.8406581E-002  0.1859361E+03  0.7818608E-02  0.1163527E+00
         21   -1    0    0  503  502  0.00000000000E+00  0.00000000000E+00  0.25966962908E+02  0.25966962908E+02  0.00000000000E+00 0. -1.
         21   -1    0    0  501  503 -0.00000000000E+00 -0.00000000000E+00 -0.14017542746E+04  0.14017542746E+04  0.00000000000E+00 0. -1.
          6    2    1    2  501    0 -0.39556854714E+02 -0.37723334006E+02 -0.87884040415E+03  0.89712867322E+03  0.17173120181E+03 0.  0.
         24    2    3    3    0    0 -0.28030321305E+02 -0.89609920403E+02 -0.68175804559E+03  0.69295074867E+03  0.81062140424E+02 0.  0.
         -6    2    1    2    0  502  0.39556854714E+02  0.37723334006E+02 -0.49694690755E+03  0.53059256429E+03  0.17772013300E+03 0.  0.
        -24    2    5    5    0    0  0.91629914828E+02  0.13704338015E+01 -0.34812248024E+03  0.36871626242E+03  0.79777826143E+02 0.  0.
          5    1    3    3  501    0 -0.11526533409E+02  0.51886586397E+02 -0.19708235856E+03  0.20417792456E+03  0.47000000000E+01 0. -1.
        -13    1    4    4    0    0  0.21160793306E+01 -0.27654973986E+02 -0.47834614409E+02  0.55293993467E+02  0.00000000000E+00 0.  1.
         14    1    4    4    0    0 -0.30146400636E+02 -0.61954946417E+02 -0.63392343118E+03  0.63765675520E+03  0.00000000000E+00 0. -1.
         -5    1    5    5    0  502 -0.52073060113E+02  0.36352900205E+02 -0.14882442731E+03  0.16187630187E+03  0.47000000000E+01 0.  1.
         13    1    6    6    0    0  0.73701453126E+02  0.34219068771E+02 -0.27223149532E+03  0.28410004559E+03  0.00000000000E+00 0. -1.
        -14    1    6    6    0    0  0.17928461701E+02 -0.32848634969E+02 -0.75890984922E+02  0.84616216831E+02  0.00000000000E+00 0.  1.
</event>
<event>
12    1  0.8406581E-002  0.2522323E+03  0.7818608E-02  0.1111931E+00
         21   -1    0    0  503  502  0.00000000000E+00  0.00000000000E+00  0.37728199971E+03  0.37728199971E+03  0.00000000000E+00 0. -1.
         21   -1    0    0  501  503 -0.00000000000E+00 -0.00000000000E+00 -0.16914186916E+03  0.16914186916E+03  0.00000000000E+00 0. -1.
          6    2    1    2  501    0  0.20386172566E+02  0.18401848992E+03  0.87345602201E+02  0.26692768331E+03  0.17129720730E+03 0.  0.
         24    2    3    3    0    0  0.45172043544E+00  0.11615461124E+03 -0.15373289050E+02  0.14212324016E+03  0.80439913054E+02 0.  0.
         -6    2    1    2    0  502 -0.20386172566E+02 -0.18401848992E+03  0.12079452835E+03  0.27949618556E+03  0.17102163313E+03 0.  0.
        -24    2    5    5    0    0 -0.68993375513E+02 -0.17017199741E+03  0.89468905513E+02  0.21984913886E+03  0.81304146501E+02 0.  0.
          5    1    3    3  501    0  0.19934452131E+02  0.67863878680E+02  0.10271889125E+03  0.12480444315E+03  0.47000000000E+01 0. -1.
        -13    1    4    4    0    0  0.17665612636E+02  0.21117530402E+02 -0.34010842198E+02  0.43757986094E+02  0.00000000000E+00 0.  1.
         14    1    4    4    0    0 -0.17213892200E+02  0.95037080840E+02  0.18637553147E+02  0.98365254062E+02  0.00000000000E+00 0. -1.
         -5    1    5    5    0  502  0.48607202946E+02 -0.13846492510E+02  0.31325622835E+02  0.59647046692E+02  0.47000000000E+01 0.  1.
         13    1    6    6    0    0 -0.79350637324E+02 -0.92226429906E+02  0.46532416323E+02  0.13025937120E+03  0.00000000000E+00 0. -1.
        -14    1    6    6    0    0  0.10357261811E+02 -0.77945567506E+02  0.42936489190E+02  0.89589767663E+02  0.00000000000E+00 0.  1.
</event>
<event>
12    1  0.8406581E-002  0.2313551E+03  0.7818608E-02  0.1125839E+00
         21   -1    0    0  501  502  0.00000000000E+00  0.00000000000E+00  0.31169522269E+03  0.31169522269E+03  0.00000000000E+00 0. -1.
         21   -1    0    0  502  503 -0.00000000000E+00 -0.00000000000E+00 -0.21516247879E+03  0.21516247879E+03  0.00000000000E+00 0. -1.
         -6    2    1    2    0  503 -0.17855000165E+02  0.15607917442E+03 -0.70887665206E+02  0.24197158346E+03  0.16984014956E+03 0.  0.
        -24    2    3    3    0    0 -0.13149784002E+02  0.10042092121E+03 -0.11285660546E+03  0.17194685814E+03  0.81066826713E+02 0.  0.
          6    2    1    2  501    0  0.17855000165E+02 -0.15607917442E+03  0.16742040911E+03  0.28488611802E+03  0.16867423376E+03 0.  0.
         24    2    5    5    0    0 -0.46945426370E+02 -0.13432437391E+03  0.11962728506E+03  0.20134786731E+03  0.77352219476E+02 0.  0.
          5    1    5    5  501    0  0.64800426535E+02 -0.21754800510E+02  0.47793124056E+02  0.83538250709E+02  0.47000000000E+01 0. -1.
        -11    1    6    6    0    0  0.61334825532E+01  0.79950526127E+00 -0.65457060047E+01  0.90058361074E+01  0.00000000000E+00 0.  1.
         12    1    6    6    0    0 -0.53078908924E+02 -0.13512387917E+03  0.12617299106E+03  0.19234203121E+03  0.00000000000E+00 0. -1.
         -5    1    3    3    0  503 -0.47052161626E+01  0.55658253210E+02  0.41968940253E+02  0.70024725315E+02  0.47000000000E+01 0.  1.
         11    1    4    4    0    0  0.22256619510E+02 -0.99719999377E+00 -0.20729786803E+02  0.30431489952E+02  0.00000000000E+00 0. -1.
        -12    1    4    4    0    0 -0.35406403512E+02  0.10141812120E+03 -0.92126818656E+02  0.14151536819E+03  0.00000000000E+00 0.  1.
</event>
<event>
12    1  0.8406581E-002  0.1931273E+03  0.7818608E-02  0.1158130E+00
         21   -1    0    0  501  502  0.00000000000E+00  0.00000000000E+00  0.26350481306E+04  0.26350481306E+04  0.00000000000E+00 0.  1.
         21   -1    0    0  502  503 -0.00000000000E+00 -0.00000000000E+00 -0.15836556178E+02  0.15836556178E+02  0.00000000000E+00 0.  1.
         -6    2    1    2    0  503 -0.24740219850E+02  0.55328197831E+02  0.81894129835E+03  0.84140536344E+03  0.18337079247E+03 0.  0.
        -24    2    3    3    0    0  0.59059817101E+02  0.15641145662E+02  0.38650257009E+03  0.39911264137E+03  0.78574527533E+02 0.  0.
          6    2    1    2  501    0  0.24740219850E+02 -0.55328197831E+02  0.18002702761E+04  0.18094793233E+04  0.17195658383E+03 0.  0.
         24    2    5    5    0    0 -0.30494303831E+02 -0.30784257854E+02  0.15168703019E+04  0.15196674999E+04  0.81340178379E+02 0.  0.
          5    1    5    5  501    0  0.55234523682E+02 -0.24543939977E+02  0.28339997419E+03  0.28981182337E+03  0.47000000000E+01 0. -1.
        -13    1    6    6    0    0 -0.23501446678E+02  0.25523286782E+01  0.12934138215E+04  0.12936298334E+04  0.00000000000E+00 0.  1.
         14    1    6    6    0    0 -0.69928571538E+01 -0.33336586533E+02  0.22345648038E+03  0.22603766650E+03  0.00000000000E+00 0. -1.
         -5    1    3    3    0  503 -0.83800036952E+02  0.39687052170E+02  0.43243872825E+03  0.44229272207E+03  0.47000000000E+01 0.  1.
         13    1    4    4    0    0  0.55777330084E+02  0.41809667694E+02  0.32136710707E+03  0.32884035088E+03  0.00000000000E+00 0. -1.
        -14    1    4    4    0    0  0.32824870179E+01 -0.26168522032E+02  0.65135463028E+02  0.70272290486E+02  0.00000000000E+00 0.  1.
</event>
<event>
12    1  0.8406581E-002  0.2082065E+03  0.7818608E-02  0.1142997E+00
         21   -1    0    0  501  502  0.00000000000E+00  0.00000000000E+00  0.14397022962E+03  0.14397022962E+03  0.00000000000E+00 0. -1.
         21   -1    0    0  502  503 -0.00000000000E+00 -0.00000000000E+00 -0.31960419941E+03  0.31960419941E+03  0.00000000000E+00 0.  1.
         -6    2    1    2    0  503 -0.77963960357E+01 -0.11798542104E+03 -0.32017046001E+02  0.21064007740E+03  0.17135579244E+03 0.  0.
        -24    2    3    3    0    0 -0.64860704773E+02 -0.40294499989E+02 -0.17101648405E+02  0.11298367141E+03  0.81500220088E+02 0.  0.
          6    2    1    2  501    0  0.77963960357E+01  0.11798542104E+03 -0.14361692379E+03  0.25293435163E+03  0.17137275766E+03 0.  0.
         24    2    5    5    0    0  0.40520660179E+01  0.48204963930E+00 -0.19221991186E+02  0.81711539030E+02  0.79313548998E+02 0.  0.
          5    1    5    5  501    0  0.37443300178E+01  0.11750337140E+03 -0.12439493260E+03  0.17122281260E+03  0.47000000000E+01 0. -1.
        -13    1    6    6    0    0 -0.25059305854E+02  0.16584225669E+02  0.15340709910E+02  0.33739335077E+02  0.00000000000E+00 0.  1.
         14    1    6    6    0    0  0.29111371871E+02 -0.16102176029E+02 -0.34562701095E+02  0.47972203953E+02  0.00000000000E+00 0. -1.
         -5    1    3    3    0  503  0.57064308737E+02 -0.77690921050E+02 -0.14915397596E+02  0.97656405989E+02  0.47000000000E+01 0.  1.
         11    1    4    4    0    0  0.59418100353E+01  0.41860419216E+01  0.20168477912E+02  0.21438179838E+02  0.00000000000E+00 0. -1.
        -12    1    4    4    0    0 -0.70802514808E+02 -0.44480541910E+02 -0.37270126317E+02  0.91545491574E+02  0.00000000000E+00 0.  1.
</event>
<event>
12    1  0.8406581E-002  0.1995839E+03  0.7818608E-02  0.1150379E+00
         21   -1    0    0  501  502  0.00000000000E+00  0.00000000000E+00  0.35852194694E+03  0.35852194694E+03  0.00000000000E+00 0. -1.
         21   -1    0    0  502  503 -0.00000000000E+00 -0.00000000000E+00 -0.13049415139E+03  0.13049415139E+03  0.00000000000E+00 0. -1.
         -6    2    1    2    0  503 -0.49928186797E+02 -0.85446752518E+02  0.18275574213E+02  0.20041893090E+03  0.17331987739E+03 0.  0.
        -24    2    3    3    0    0 -0.50197384082E+02 -0.74346407985E+01 -0.40798584441E+02  0.10245052649E+03  0.79098259356E+02 0.  0.
          6    2    1    2  501    0  0.49928186797E+02  0.85446752518E+02  0.20975222133E+03  0.28859716743E+03  0.17175086416E+03 0.  0.
         24    2    5    5    0    0  0.50532494625E+02 -0.16792639024E+02  0.12473020385E+03  0.15554044333E+03  0.76155630262E+02 0.  0.
          5    1    5    5  501    0 -0.60430782736E+00  0.10223939154E+03  0.85022017486E+02  0.13305672410E+03  0.47000000000E+01 0. -1.
        -13    1    6    6    0    0 -0.93927488488E+01 -0.27330078968E+02  0.22712083039E+02  0.36755892906E+02  0.00000000000E+00 0.  1.
         14    1    6    6    0    0  0.59925243474E+02  0.10537439943E+02  0.10201812081E+03  0.11878455042E+03  0.00000000000E+00 0. -1.
         -5    1    3    3    0  503  0.26919728424E+00 -0.78012111719E+02  0.59074158654E+02  0.97968404411E+02  0.47000000000E+01 0.  1.
         11    1    4    4    0    0  0.25632541669E+01  0.22373237840E+02 -0.34941216165E+02  0.41569467527E+02  0.00000000000E+00 0. -1.
        -12    1    4    4    0    0 -0.52760638249E+02 -0.29807878638E+02 -0.58573682759E+01  0.60881058963E+02  0.00000000000E+00 0.  1.
</event>
<event>
12    1  0.8406581E-002  0.3040660E+03  0.7818608E-02  0.1083397E+00
         21   -1    0    0  503  502  0.00000000000E+00  0.00000000000E+00  0.47496591748E+03  0.47496591748E+03  0.00000000000E+00 0. -1.
         21   -1    0    0  501  503 -0.00000000000E+00 -0.00000000000E+00 -0.22806928907E+03  0.22806928907E+03  0.00000000000E+00 0.  1.
          6    2    1    2  501    0  0.16977582979E+03 -0.18093670826E+03  0.25952892678E+03  0.39870693132E+03  0.17334944035E+03 0.  0.
         24    2    3    3    0    0  0.13678087242E+03 -0.17022980066E+03  0.13496301036E+03  0.26931580869E+03  0.81417433949E+02 0.  0.
         -6    2    1    2    0  502 -0.16977582979E+03  0.18093670826E+03 -0.12632298372E+02  0.30432827522E+03  0.17576745820E+03 0.  0.
        -24    2    5    5    0    0 -0.30020097609E+02  0.97488115657E+02 -0.45295121428E+02  0.13824310943E+03  0.81574323939E+02 0.  0.
          5    1    3    3  501    0  0.32994957371E+02 -0.10706907597E+02  0.12456591642E+03  0.12939112263E+03  0.47000000000E+01 0. -1.
        -11    1    4    4    0    0 -0.17569909721E+01 -0.29831059154E+02  0.41266749143E+02  0.50950207972E+02  0.00000000000E+00 0.  1.
         12    1    4    4    0    0  0.13853786339E+03 -0.14039874150E+03  0.93696261215E+02  0.21836560072E+03  0.00000000000E+00 0. -1.
         -5    1    5    5    0  502 -0.13975573218E+03  0.83448592599E+02  0.32662823056E+02  0.16608516579E+03  0.47000000000E+01 0.  1.
         13    1    6    6    0    0 -0.25155041085E+02 -0.68208746534E+01 -0.11504759498E+02  0.28489645736E+02  0.00000000000E+00 0. -1.
        -14    1    6    6    0    0 -0.48650565241E+01  0.10430899031E+03 -0.33790361930E+02  0.10975346370E+03  0.00000000000E+00 0.  1.
</event>
<event>
12    1  0.8406581E-002  0.1790252E+03  0.7818608E-02  0.1168782E+00
         21   -1    0    0  503  502  0.00000000000E+00  0.00000000000E+00  0.75963290666E+02  0.75963290666E+02  0.00000000000E+00 0. -1.
         21   -1    0    0  501  503 -0.00000000000E+00 -0.00000000000E+00 -0.42171333883E+03  0.42171333883E+03  0.00000000000E+00 0. -1.
          6    2    1    2  501    0 -0.29788910767E+02 -0.38682819730E+02 -0.17694812056E+03  0.25171540904E+03  0.17223899103E+03 0.  0.
         24    2    3    3    0    0  0.47785017398E+02 -0.16956784683E+02 -0.67663589723E+02  0.11586647231E+03  0.79219553124E+02 0.  0.
         -6    2    1    2    0  502  0.29788910767E+02  0.38682819730E+02 -0.16880192760E+03  0.24596122045E+03  0.17210197982E+03 0.  0.
        -24    2    5    5    0    0  0.19550376950E+02  0.74625852861E+02 -0.50096303644E+02  0.12142269483E+03  0.79262828785E+02 0.  0.
          5    1    3    3  501    0 -0.77573928165E+02 -0.21726035047E+02 -0.10928453084E+03  0.13584893673E+03  0.47000000000E+01 0. -1.
        -11    1    4    4    0    0  0.51403630136E+01  0.29890357387E+02 -0.26858196608E+02  0.40511967635E+02  0.00000000000E+00 0.  1.
         12    1    4    4    0    0  0.42644654384E+02 -0.46847142070E+02 -0.40805393115E+02  0.75354504676E+02  0.00000000000E+00 0. -1.
         -5    1    5    5    0  502  0.10238533818E+02 -0.35943033131E+02 -0.11870562396E+03  0.12453852562E+03  0.47000000000E+01 0.  1.
         11    1    6    6    0    0  0.28510518897E+02  0.54691186736E+02  0.52676451867E+01  0.61900918250E+02  0.00000000000E+00 0. -1.
        -12    1    6    6    0    0 -0.89601419469E+01  0.19934666126E+02 -0.55363948830E+02  0.59521776581E+02  0.00000000000E+00 0.  1.
</event>
<event>
12    1  0.8406581E-002  0.1928056E+03  0.7818608E-02  0.1155961E+00
         21   -1    0    0  503  502  0.00000000000E+00  0.00000000000E+00  0.21455074249E+03  0.21455074249E+03  0.00000000000E+00 0.  1.
         21   -1    0    0  501  503 -0.00000000000E+00 -0.00000000000E+00 -0.20443726038E+03  0.20443726038E+03  0.00000000000E+00 0. -1.
          6    2    1    2  501    0  0.67277793847E+01 -0.88489530778E+02 -0.76778154437E+02  0.20753040056E+03  0.17116752637E+03 0.  0.
         24    2    3    3    0    0  0.26987934390E+02  0.10415841098E+02 -0.15407366342E+02  0.89288233384E+02  0.83055182468E+02 0.  0.
         -6    2    1    2    0  502 -0.67277793847E+01  0.88489530778E+02  0.86891636550E+02  0.21145760231E+03  0.17113883545E+03 0.  0.
        -24    2    5    5    0    0 -0.65048811358E+02  0.60364945153E+02  0.25742761211E+02  0.12227458799E+03  0.80081899646E+02 0.  0.
          5    1    3    3  501    0 -0.20260155006E+02 -0.98905371876E+02 -0.61370788095E+02  0.11824216717E+03  0.47000000000E+01 0. -1.
        -11    1    4    4    0    0 -0.16485182009E+02  0.30807661415E+02  0.80356514382E+01  0.35853101982E+02  0.00000000000E+00 0.  1.
         12    1    4    4    0    0  0.43473116399E+02 -0.20391820317E+02 -0.23443017780E+02  0.53435131402E+02  0.00000000000E+00 0. -1.
         -5    1    5    5    0  502  0.58321031974E+02  0.28124585625E+02  0.61148875339E+02  0.89183014315E+02  0.47000000000E+01 0.  1.
         13    1    6    6    0    0 -0.19931906451E+01 -0.95968813333E+01 -0.16388946271E+02  0.19096347822E+02  0.00000000000E+00 0. -1.
        -14    1    6    6    0    0 -0.63055620713E+02  0.69961826486E+02  0.42131707482E+02  0.10317824017E+03  0.00000000000E+00 0.  1.
</event>
<event>
12    1  0.8406581E-002  0.2098993E+03  0.7818608E-02  0.1141688E+00
         21   -1    0    0  503  502  0.00000000000E+00  0.00000000000E+00  0.26924005318E+03  0.26924005318E+03  0.00000000000E+00 0.  1.
         21   -1    0    0  501  503 -0.00000000000E+00 -0.00000000000E+00 -0.34368359734E+03  0.34368359734E+03  0.00000000000E+00 0.  1.
          6    2    1    2  501    0 -0.37250451450E+02  0.11270830805E+03 -0.25912815900E+03  0.33334162920E+03  0.17285392716E+03 0.  0.
         24    2    3    3    0    0  0.27264694214E+02  0.87475400161E+02 -0.22576108492E+03  0.25630686242E+03  0.79560235504E+02 0.  0.
         -6    2    1    2    0  502  0.37250451450E+02 -0.11270830805E+03  0.18468461483E+03  0.27958202132E+03  0.17310962091E+03 0.  0.
        -24    2    5    5    0    0  0.39305534530E+01 -0.98155246858E+02  0.20296330422E+03  0.23861608817E+03  0.78061725197E+02 0.  0.
          5    1    3    3  501    0 -0.64515145664E+02  0.25232907887E+02 -0.33367074072E+02  0.77034766779E+02  0.47000000000E+01 0. -1.
        -13    1    4    4    0    0  0.29902945608E+02  0.76306470849E+02 -0.96794855199E+02  0.12683102003E+03  0.00000000000E+00 0.  1.
         14    1    4    4    0    0 -0.26382513936E+01  0.11168929311E+02 -0.12896622972E+03  0.12947584239E+03  0.00000000000E+00 0. -1.
         -5    1    5    5    0  502  0.33319897997E+02 -0.14553061189E+02 -0.18278689384E+02  0.40965933141E+02  0.47000000000E+01 0.  1.
         11    1    6    6    0    0 -0.36285684507E+01  0.10304535219E+02  0.48566597553E+02  0.49780160235E+02  0.00000000000E+00 0. -1.
        -12    1    6    6    0    0  0.75591219037E+01 -0.10845978208E+03  0.15439670666E+03  0.18883592794E+03  0.00000000000E+00 0.  1.
</event>
<event>
12    1  0.8406581E-002  0.2272328E+03  0.7818608E-02  0.1128680E+00
         21   -1    0    0  501  502  0.00000000000E+00  0.00000000000E+00  0.11083551766E+04  0.11083551766E+04  0.00000000000E+00 0.  1.
         21   -1    0    0  502  503 -0.00000000000E+00 -0.00000000000E+00 -0.51908508577E+02  0.51908508577E+02  0.00000000000E+00 0.  1.
         -6    2    1    2    0  503  0.12822337880E+03 -0.72355428537E+02  0.71506545290E+03  0.75017117980E+03  0.17251566354E+03 0.  0.
        -24    2    3    3    0    0  0.17811623519E+02 -0.22120254738E+02  0.14746132723E+03  0.16973094871E+03  0.79102416653E+02 0.  0.
          6    2    1    2  501    0 -0.12822337880E+03  0.72355428537E+02  0.34138121517E+03  0.41009250542E+03  0.17308433211E+03 0.  0.
         24    2    5    5    0    0 -0.47557672631E+02 -0.29254021738E+02  0.13582776079E+03  0.16697576568E+03  0.79461913569E+02 0.  0.
          5    1    5    5  501    0 -0.80665706165E+02  0.10160945028E+03  0.20555345437E+03  0.24311673974E+03  0.47000000000E+01 0. -1.
        -11    1    6    6    0    0  0.14271358489E+02 -0.16702414967E+01 -0.90727495555E+00  0.14397379193E+02  0.00000000000E+00 0.  1.
         12    1    6    6    0    0 -0.61829031120E+02 -0.27583780241E+02  0.13673503575E+03  0.15257838648E+03  0.00000000000E+00 0. -1.
         -5    1    3    3    0  503  0.11041175528E+03 -0.50235173799E+02  0.56760412568E+03  0.58044023110E+03  0.47000000000E+01 0.  1.
         11    1    4    4    0    0  0.47066624797E+02 -0.92867376852E+01  0.61319636856E+02  0.77856332631E+02  0.00000000000E+00 0. -1.
        -12    1    4    4    0    0 -0.29255001277E+02 -0.12833517053E+02  0.86141690370E+02  0.91874616078E+02  0.00000000000E+00 0.  1.
</event>
<event>
12    1  0.8406581E-002  0.1796838E+03  0.7818608E-02  0.1168881E+00
         21   -1    0    0  501  502  0.00000000000E+00  0.00000000000E+00  0.63832084220E+03  0.63832084220E+03  0.00000000000E+00 0. -1.
         21   -1    0    0  502  503 -0.00000000000E+00 -0.00000000000E+00 -0.55282881925E+02  0.55282881925E+02  0.00000000000E+00 0. -1.
         -6    2    1    2    0  503 -0.36408946586E+02 -0.16360252620E+02  0.40407493299E+03  0.44222486934E+03  0.17519421890E+03 0.  0.
        -24    2    3    3    0    0 -0.29387263490E+02 -0.71075567701E+02  0.18323120784E+03  0.21454722293E+03  0.80879464394E+02 0.  0.
          6    2    1    2  501    0  0.36408946586E+02  0.16360252620E+02  0.17896302728E+03  0.25137885478E+03  0.17196015306E+03 0.  0.
         24    2    5    5    0    0  0.13141550831E+02  0.87200941773E+01  0.20185050168E+03  0.21753110433E+03  0.79545055913E+02 0.  0.
          5    1    5    5  501    0  0.23267395755E+02  0.76401584424E+01 -0.22887474400E+02  0.33847750452E+02  0.47000000000E+01 0. -1.
        -11    1    6    6    0    0 -0.10375053667E+02 -0.31489782607E+02  0.10403360786E+03  0.10918900912E+03  0.00000000000E+00 0.  1.
         12    1    6    6    0    0  0.23516604498E+02  0.40209876784E+02  0.97816893820E+02  0.10834209521E+03  0.00000000000E+00 0. -1.
         -5    1    3    3    0  503 -0.70216830962E+01  0.54715315081E+02  0.22084372515E+03  0.22767764641E+03  0.47000000000E+01 0.  1.
         11    1    4    4    0    0  0.38443934387E+01 -0.11718267853E+02 -0.58143586967E+01  0.13634659124E+02  0.00000000000E+00 0. -1.
        -12    1    4    4    0    0 -0.33231656929E+02 -0.59357299848E+02  0.18904556653E+03  0.20091256380E+03  0.00000000000E+00 0.  1.
</event>
<event>
12    1  0.8406581E-002  0.2444970E+03  0.7818608E-02  0.1118041E+00
         21   -1    0    0  503  502  0.00000000000E+00  0.00000000000E+00  0.31445981370E+03  0.31445981370E+03  0.00000000000E+00 0. -1.
         21   -1    0    0  501  503 -0.00000000000E+00 -0.00000000000E+00 -0.19023859555E+03  0.19023859555E+03  0.00000000000E+00 0. -1.
          6    2    1    2  501    0  0.13126887610E+03  0.11175248665E+03  0.10518058870E+03  0.25946108391E+03  0.16290169342E+03 0.  0.
         24    2    3    3    0    0  0.97617404127E+02  0.98106747117E+02  0.13047870350E+02  0.16031898607E+03  0.79861373370E+02 0.  0.
         -6    2    1    2    0  502 -0.13126887610E+03 -0.11175248665E+03  0.19040629464E+02  0.24523732534E+03  0.17337434662E+03 0.  0.
        -24    2    5    5    0    0 -0.62236145526E+02 -0.11351032503E+03  0.60289964788E+02  0.16466310148E+03  0.81982470313E+02 0.  0.
          5    1    3    3  501    0  0.33651471970E+02  0.13645739531E+02  0.92132718345E+02  0.99142097833E+02  0.47000000000E+01 0. -1.
        -13    1    4    4    0    0  0.90373502809E+02  0.46662642523E+02 -0.12412735334E+02  0.10246388737E+03  0.00000000000E+00 0.  1.
         14    1    4    4    0    0  0.72439013178E+01  0.51444104594E+02  0.25460605684E+02  0.57855098700E+02  0.00000000000E+00 0. -1.
         -5    1    5    5    0  502 -0.69032730570E+02  0.17578383787E+01 -0.41249335324E+02  0.80574223859E+02  0.47000000000E+01 0.  1.
         13    1    6    6    0    0  0.28877644738E+01 -0.65976339155E+02  0.36690141274E+01  0.66141349976E+02  0.00000000000E+00 0. -1.
        -14    1    6    6    0    0 -0.65123910000E+02 -0.47533985872E+02  0.56620950660E+02  0.98521751508E+02  0.00000000000E+00 0.  1.
</event>
<event>
12    1  0.8406581E-002  0.1954156E+03  0.7818608E-02  0.1154117E+00
         21   -1    0    0  503  502  0.00000000000E+00  0.00000000000E+00  0.18656372304E+04  0.18656372304E+04  0.00000000000E+00 0.  1.
         21   -1    0    0  501  503 -0.00000000000E+00 -0.00000000000E+00 -0.10000667115E+03  0.10000667115E+03  0.00000000000E+00 0. -1.
          6    2    1    2  501    0  0.53015672063E+02 -0.78544017472E+02  0.41876557174E+01  0.19339438357E+03  0.16853494288E+03 0.  0.
         24    2    3    3    0    0 -0.24372247856E+02 -0.23949934608E+02  0.37667861476E+02  0.92833863435E+02  0.77663714686E+02 0.  0.
         -6    2    1    2    0  502 -0.53015672063E+02  0.78544017472E+02  0.17614429035E+04  0.17722495180E+04  0.17090180622E+03 0.  0.
        -24    2    5    5    0    0  0.12789507900E+02 -0.13676221191E+02  0.76033500008E+03  0.76474069990E+03  0.79802350840E+02 0.  0.
          5    1    3    3  501    0  0.77387919919E+02 -0.54594082863E+02 -0.33480205758E+02  0.10056052014E+03  0.47000000000E+01 0. -1.
        -13    1    4    4    0    0 -0.44834209423E+02 -0.36408933591E+02  0.37527381349E+02  0.68876854826E+02  0.00000000000E+00 0.  1.
         14    1    4    4    0    0  0.20461961567E+02  0.12458998983E+02  0.14048012694E+00  0.23957008609E+02  0.00000000000E+00 0. -1.
         -5    1    5    5    0  502 -0.65805179963E+02  0.92220238663E+02  0.10011079034E+04  0.10075088181E+04  0.47000000000E+01 0.  1.
         11    1    6    6    0    0 -0.33720834941E+02 -0.90033368227E+01  0.29189947371E+03  0.29397866850E+03  0.00000000000E+00 0. -1.
        -12    1    6    6    0    0  0.46510342841E+02 -0.46728843687E+01  0.46843552637E+03  0.47076203140E+03  0.00000000000E+00 0.  1.
</event>
<event>
12    1  0.8406581E-002  0.1916833E+03  0.7818608E-02  0.1157320E+00
         21   -1    0    0  501  502  0.00000000000E+00  0.00000000000E+00  0.35557912397E+02  0.35557912397E+02  0.00000000000E+00 0. -1.
         21   -1    0    0  502  503 -0.00000000000E+00 -0.00000000000E+00 -0.10249553592E+04  0.10249553592E+04  0.00000000000E+00 0. -1.
         -6    2    1    2    0  503  0.46713827426E+01 -0.86520057930E+02 -0.50835486803E+03  0.54329286926E+03  0.17098224382E+03 0.  0.
        -24    2    3    3    0    0  0.65320333469E+02 -0.51310091113E+02 -0.25251491977E+03  0.27797380453E+03  0.81278409695E+02 0.  0.
          6    2    1    2  501    0 -0.46713827426E+01  0.86520057930E+02 -0.48104257880E+03  0.51722040235E+03  0.16913733992E+03 0.  0.
         24    2    5    5    0    0  0.27946612217E+02  0.74229636574E+02 -0.46506842801E+03  0.47859073053E+03  0.80432534038E+02 0.  0.
          5    1    5    5  501    0 -0.32617994960E+02  0.12290421356E+02 -0.15974150784E+02  0.38629671829E+02  0.47000000000E+01 0. -1.
        -13    1    6    6    0    0 -0.20498537128E+02  0.56315998514E+02 -0.21217393927E+03  0.22047553655E+03  0.00000000000E+00 0.  1.
         14    1    6    6    0    0  0.48445149346E+02  0.17913638060E+02 -0.25289448875E+03  0.25811519398E+03  0.00000000000E+00 0. -1.
         -5    1    3    3    0  503 -0.60648950726E+02 -0.35209966818E+02 -0.25583994826E+03  0.26531906474E+03  0.47000000000E+01 0.  1.
         13    1    4    4    0    0 -0.10518549021E+02 -0.36391298967E+02 -0.10128080190E+03  0.10813310014E+03  0.00000000000E+00 0. -1.
        -14    1    4    4    0    0  0.75838882490E+02 -0.14918792146E+02 -0.15123411787E+03  0.16984070438E+03  0.00000000000E+00 0.  1.
</event>
<event>
12    1  0.8406581E-002  0.2067351E+03  0.7818608E-02  0.1144250E+00
         21   -1    0    0  501  502  0.00000000000E+00  0.00000000000E+00  0.68044921627E+02  0.68044921627E+02  0.00000000000E+00 0. -1.
         21   -1    0    0  502  503 -0.00000000000E+00 -0.00000000000E+00 -0.81400544093E+03  0.81400544093E+03  0.00000000000E+00 0. -1.
         -6    2    1    2    0  503  0.40943061208E+01  0.11367038812E+03 -0.16185666287E+03  0.26255850436E+03  0.17263159739E+03 0.  0.
        -24    2    3    3    0    0 -0.19861890929E+02  0.46934581685E+02 -0.13124686929E+02  0.97722652965E+02  0.82341422300E+02 0.  0.
          6    2    1    2  501    0 -0.40943061208E+01 -0.11367038812E+03 -0.58410385644E+03  0.61949185820E+03  0.17220663981E+03 0.  0.
         24    2    5    5    0    0 -0.30240785446E+02 -0.59205824359E+02 -0.52367340900E+03  0.53391174331E+03  0.80050456662E+02 0.  0.
          5    1    5    5  501    0  0.26146479325E+02 -0.54464563761E+02 -0.60430447437E+02  0.85580114888E+02  0.47000000000E+01 0. -1.
        -11    1    6    6    0    0 -0.54878553257E+02 -0.47378870193E+02 -0.30303846996E+03  0.31159064047E+03  0.00000000000E+00 0.  1.
         12    1    6    6    0    0  0.24637767811E+02 -0.11826954167E+02 -0.22063493904E+03  0.22232110285E+03  0.00000000000E+00 0. -1.
         -5    1    3    3    0  503  0.23956197050E+02  0.66735806435E+02 -0.14873197594E+03  0.16483585140E+03  0.47000000000E+01 0.  1.
         13    1    4    4    0    0 -0.95801189651E+01  0.57567620654E+02 -0.37386455882E+02  0.69307695897E+02  0.00000000000E+00 0. -1.
        -14    1    4    4    0    0 -0.10281771964E+02 -0.10633038969E+02  0.24261768953E+02  0.28414957068E+02  0.00000000000E+00 0.  1.
</event>
<event>
12    1  0.8406581E-002  0.2496746E+03  0.7818608E-02  0.1113598E+00
         21   -1    0    0  503  502  0.00000000000E+00  0.00000000000E+00  0.42870534511E+03  0.42870534511E+03  0.00000000000E+00 0. -1.
         21   -1    0    0  501  503 -0.00000000000E+00 -0.00000000000E+00 -0.17983411511E+03  0.17983411511E+03  0.00000000000E+00 0.  1.
          6    2    1    2  501    0 -0.16688261109E+03 -0.69881117637E+02  0.25829089816E+03  0.35923749837E+03  0.17205875648E+03 0.  0.
         24    2    3    3    0    0 -0.32741246189E+02 -0.60709011544E+02  0.16346893158E+03  0.19464306149E+03  0.80039093639E+02 0.  0.
         -6    2    1    2    0  502  0.16688261109E+03  0.69881117637E+02 -0.94196681546E+01  0.24930196185E+03  0.17125875612E+03 0.  0.
        -24    2    5    5    0    0  0.68867497908E+02 -0.20844897287E+02 -0.37541321080E+02  0.11273296991E+03  0.78244039425E+02 0.  0.
          5    1    3    3  501    0 -0.13414136490E+03 -0.91721060932E+01  0.94821966579E+02  0.16459443688E+03  0.47000000000E+01 0. -1.
        -13    1    4    4    0    0 -0.37375480588E+02  0.22132706747E+01  0.33806100766E+02  0.50444797207E+02  0.00000000000E+00 0.  1.
         14    1    4    4    0    0  0.46342343995E+01 -0.62922282219E+02  0.12966283081E+03  0.14419826428E+03  0.00000000000E+00 0. -1.
         -5    1    5    5    0  502  0.98015113180E+02  0.90726014924E+02  0.28121652926E+02  0.13656899194E+03  0.47000000000E+01 0.  1.
         13    1    6    6    0    0  0.41408443050E+02 -0.15254161149E+02 -0.61616515633E+02  0.75788809114E+02  0.00000000000E+00 0. -1.
        -14    1    6    6    0    0  0.27459054858E+02 -0.55907361381E+01  0.24075194553E+02  0.36944160797E+02  0.00000000000E+00 0.  1.
</event>
<event>
12    1  0.8406581E-002  0.1748600E+03  0.7818608E-02  0.1173024E+00
         21   -1    0    0  503  502  0.00000000000E+00  0.00000000000E+00  0.76801451258E+03  0.76801451258E+03  0.00000000000E+00 0.  1.
         21   -1    0    0  501  503 -0.00000000000E+00 -0.00000000000E+00 -0.44087289667E+02  0.44087289667E+02  0.00000000000E+00 0.  1.
          6    2    1    2  501    0  0.30217830202E+02  0.82063392915E+01  0.48986521880E+03  0.51993567091E+03  0.17141968390E+03 0.  0.
         24    2    3    3    0    0  0.71256878036E+02 -0.21423865854E+02  0.22077821687E+03  0.24608889421E+03  0.79247700981E+02 0.  0.
         -6    2    1    2    0  502 -0.30217830202E+02 -0.82063392915E+01  0.23406200412E+03  0.29216613134E+03  0.17203361667E+03 0.  0.
        -24    2    5    5    0    0  0.15803981331E+02  0.43726148494E+01  0.42326238067E+02  0.94527746388E+02  0.82916215674E+02 0.  0.
          5    1    3    3  501    0 -0.41039047834E+02  0.29630205145E+02  0.26908700193E+03  0.27384677670E+03  0.47000000000E+01 0. -1.
        -13    1    4    4    0    0  0.27790104859E+02 -0.84892461990E+01  0.18775186902E+03  0.18998716154E+03  0.00000000000E+00 0.  1.
         14    1    4    4    0    0  0.43466773177E+02 -0.12934619655E+02  0.33026347858E+02  0.56101732673E+02  0.00000000000E+00 0. -1.
         -5    1    5    5    0  502 -0.46021811534E+02 -0.12578954141E+02  0.19173576605E+03  0.19763838495E+03  0.47000000000E+01 0.  1.
         11    1    6    6    0    0  0.40404343342E+02  0.13248775390E+02  0.51524780668E+02  0.66804521053E+02  0.00000000000E+00 0. -1.
        -12    1    6    6    0    0 -0.24600362011E+02 -0.88761605403E+01 -0.91985426010E+01  0.27723225335E+02  0.00000000000E+00 0.  1.
</event>
<event>
12    1  0.8406581E-002  0.2809243E+03  0.7818608E-02  0.1095297E+00
         21   -1    0    0  501  502  0.00000000000E+00  0.00000000000E+00  0.19195197284E+03  0.19195197284E+03  0.00000000000E+00 0. -1.
         21   -1    0    0  502  503 -0.00000000000E+00 -0.00000000000E+00 -0.77715875193E+03  0.77715875193E+03  0.00000000000E+00 0.  1.
         -6    2    1    2    0  503  0.21177503882E+03  0.63967018938E+02 -0.62546008953E+03  0.68531716565E+03  0.17181049841E+03 0.  0.
        -24    2    3    3    0    0  0.10105920361E+03 -0.59304589497E+01 -0.19789870389E+03  0.23813210097E+03  0.85409996697E+02 0.  0.
          6    2    1    2  501    0 -0.21177503882E+03 -0.63967018938E+02  0.40253310432E+02  0.28379355912E+03  0.17314158546E+03 0.  0.
         24    2    5    5    0    0 -0.11745581721E+03 -0.13231337980E+02  0.85588603145E+02  0.16739938550E+03  0.82013462154E+02 0.  0.
          5    1    5    5  501    0 -0.94319221607E+02 -0.50735680958E+02 -0.45335292713E+02  0.11639417362E+03  0.47000000000E+01 0. -1.
        -13    1    6    6    0    0 -0.48460114241E+02  0.28971737925E+02  0.11299654554E+02  0.57579740046E+02  0.00000000000E+00 0.  1.
         14    1    6    6    0    0 -0.68995702972E+02 -0.42203075905E+02  0.74288948591E+02  0.10981964545E+03  0.00000000000E+00 0. -1.
         -5    1    3    3    0  503  0.11071583521E+03  0.69897477888E+02 -0.42756138564E+03  0.44718506468E+03  0.47000000000E+01 0.  1.
         13    1    4    4    0    0  0.92847207633E+02  0.23002695602E+02 -0.11292343009E+03  0.14799131404E+03  0.00000000000E+00 0. -1.
        -14    1    4    4    0    0  0.82119959740E+01 -0.28933154552E+02 -0.84975273803E+02  0.90140786928E+02  0.00000000000E+00 0.  1.
</event>
<event>
12    1  0.8406581E-002  0.2000312E+03  0.7818608E-02  0.1149944E+00
         21   -1    0    0  503  502  0.00000000000E+00  0.00000000000E+00  0.73287984154E+02  0.73287984154E+02  0.00000000000E+00 0. -1.
         21   -1    0    0  501  503 -0.00000000000E+00 -0.00000000000E+00 -0.62631664056E+03  0.62631664056E+03  0.00000000000E+00 0. -1.
          6    2    1    2  501    0 -0.74994814248E+02 -0.65640429778E+02 -0.40476643148E+03  0.45149566121E+03  0.17343465588E+03 0.  0.
         24    2    3    3    0    0 -0.52377044527E+02 -0.39179362287E+02 -0.96779184370E+02  0.14151181328E+03  0.79881196459E+02 0.  0.
         -6    2    1    2    0  502  0.74994814248E+02  0.65640429778E+02 -0.14826222493E+03  0.24810896350E+03  0.17217282667E+03 0.  0.
        -24    2    5    5    0    0 -0.11833755524E+02 -0.67393811838E+01 -0.26835923212E+02  0.82143683057E+02  0.76432721154E+02 0.  0.
          5    1    3    3  501    0 -0.22617769721E+02 -0.26461067490E+02 -0.30798724711E+03  0.30998384793E+03  0.47000000000E+01 0. -1.
        -13    1    4    4    0    0 -0.49205987824E+02 -0.44881355291E+02 -0.10895510421E+03  0.12769800321E+03  0.00000000000E+00 0.  1.
         14    1    4    4    0    0 -0.31710567031E+01  0.57019930033E+01  0.12175919837E+02  0.13813810072E+02  0.00000000000E+00 0. -1.
         -5    1    5    5    0  502  0.86828569772E+02  0.72379810961E+02 -0.12142630172E+03  0.16596528044E+03  0.47000000000E+01 0.  1.
         11    1    6    6    0    0 -0.31852968271E+02  0.81294446702E+01 -0.41710021354E+02  0.53107676843E+02  0.00000000000E+00 0. -1.
        -12    1    6    6    0    0  0.20019212747E+02 -0.14868825854E+02  0.14874098143E+02  0.29036006214E+02  0.00000000000E+00 0.  1.
</event>
<event>
12    1  0.8406581E-002  0.1761640E+03  0.7818608E-02  0.1171584E+00
         21   -1    0    0  503  502  0.00000000000E+00  0.00000000000E+00  0.10978551572E+03  0.10978551572E+03  0.00000000000E+00 0.  1.
         21   -1    0    0  501  503 -0.00000000000E+00 -0.00000000000E+00 -0.29609680542E+03  0.29609680542E+03  0.00000000000E+00 0.  1.
          6    2    1    2  501    0  0.33355639990E+02  0.18584126947E+02 -0.13650955790E+03  0.22281414851E+03  0.17191078176E+03 0.  0.
         24    2    3    3    0    0  0.26184138519E+02 -0.56483852273E+02 -0.78112066729E+02  0.12732075129E+03  0.78949629909E+02 0.  0.
         -6    2    1    2    0  502 -0.33355639990E+02 -0.18584126947E+02 -0.49801731804E+02  0.18306817263E+03  0.17197608800E+03 0.  0.
        -24    2    5    5    0    0 -0.42781509709E+02 -0.30827034971E+02 -0.94727398352E+02  0.13532781934E+03  0.80992438115E+02 0.  0.
          5    1    3    3  501    0  0.71715014713E+01  0.75067979219E+02 -0.58397491170E+02  0.95493397219E+02  0.47000000000E+01 0. -1.
        -11    1    4    4    0    0  0.15923299500E+02 -0.38516801133E+02 -0.92945420480E+02  0.10186239063E+03  0.00000000000E+00 0.  1.
         12    1    4    4    0    0  0.10260839019E+02 -0.17967051140E+02  0.14833353751E+02  0.25458360661E+02  0.00000000000E+00 0. -1.
         -5    1    5    5    0  502  0.94258697188E+01  0.12242908024E+02  0.44925666548E+02  0.47740353283E+02  0.47000000000E+01 0.  1.
         11    1    6    6    0    0 -0.92370720640E+01  0.11465791342E+02 -0.77172317956E+02  0.78564333703E+02  0.00000000000E+00 0. -1.
        -12    1    6    6    0    0 -0.33544437645E+02 -0.42292826313E+02 -0.17555080396E+02  0.56763485641E+02  0.00000000000E+00 0.  1.
</event>
<event>
12    1  0.8406581E-002  0.3336840E+03  0.7818608E-02  0.1069623E+00
         21   -1    0    0  503  502  0.00000000000E+00  0.00000000000E+00  0.64830824474E+03  0.64830824474E+03  0.00000000000E+00 0.  1.
         21   -1    0    0  501  503 -0.00000000000E+00 -0.00000000000E+00 -0.23725754422E+03  0.23725754422E+03  0.00000000000E+00 0. -1.
          6    2    1    2  501    0 -0.88622314070E+02 -0.27158426701E+03 -0.27801262122E+02  0.33484016962E+03  0.17243288659E+03 0.  0.
         24    2    3    3    0    0 -0.33767807327E+01 -0.11023799399E+03 -0.61026128308E+02  0.14929933178E+03  0.80014274779E+02 0.  0.
         -6    2    1    2    0  502  0.88622314070E+02  0.27158426701E+03  0.43885196264E+03  0.55072561934E+03  0.17057471689E+03 0.  0.
        -24    2    5    5    0    0  0.23403136804E+02  0.13939618911E+03  0.12798809519E+03  0.20665344216E+03  0.79659828618E+02 0.  0.
          5    1    3    3  501    0 -0.85245533338E+02 -0.16134627303E+03  0.33224866186E+02  0.18554083784E+03  0.47000000000E+01 0. -1.
        -11    1    4    4    0    0  0.22428348151E+02 -0.38877055033E+02  0.93032407249E+01  0.45836737414E+02  0.00000000000E+00 0.  1.
         12    1    4    4    0    0 -0.25805128883E+02 -0.71360938953E+02 -0.70329369033E+02  0.10346259437E+03  0.00000000000E+00 0. -1.
         -5    1    5    5    0  502  0.65219177267E+02  0.13218807790E+03  0.31086386744E+03  0.34407217717E+03  0.47000000000E+01 0.  1.
         13    1    6    6    0    0 -0.13929334353E+02  0.11596801071E+03  0.80447905492E+02  0.14182549616E+03  0.00000000000E+00 0. -1.
        -14    1    6    6    0    0  0.37332471156E+02  0.23428178402E+02  0.47540189703E+02  0.64827946002E+02  0.00000000000E+00 0.  1.
</event>
<event>
12    1  0.8406581E-002  0.2664440E+03  0.7818608E-02  0.1103358E+00
         21   -1    0    0  503  502  0.00000000000E+00  0.00000000000E+00  0.71236232764E+02  0.71236232764E+02  0.00000000000E+00 0.  1.
         21   -1    0    0  501  503 -0.00000000000E+00 -0.00000000000E+00 -0.10044541099E+04  0.10044541099E+04  0.00000000000E+00 0. -1.
          6    2    1    2  501    0  0.18115701524E+03 -0.90143208358E+02 -0.51634516685E+03  0.58103765600E+03  0.17334579366E+03 0.  0.
         24    2    3    3    0    0  0.75090918307E+02 -0.10257567432E+03 -0.37457360608E+03  0.40348245734E+03  0.79575700015E+02 0.  0.
         -6    2    1    2    0  502 -0.18115701524E+03  0.90143208358E+02 -0.41687271028E+03  0.49465268665E+03  0.17307443963E+03 0.  0.
        -24    2    5    5    0    0 -0.18233614671E+03  0.11597099610E+03 -0.32290986768E+03  0.39708439898E+03  0.81911506711E+02 0.  0.
          5    1    3    3  501    0  0.10606609694E+03  0.12432465965E+02 -0.14177156077E+03  0.17755519866E+03  0.47000000000E+01 0. -1.
        -11    1    4    4    0    0  0.92045917203E+02 -0.87646888190E+02 -0.30863377879E+03  0.33378022304E+03  0.00000000000E+00 0.  1.
         12    1    4    4    0    0 -0.16954998896E+02 -0.14928786133E+02 -0.65939827293E+02  0.69702234300E+02  0.00000000000E+00 0. -1.
         -5    1    5    5    0  502  0.11791314702E+01 -0.25827787745E+02 -0.93962842597E+02  0.97568287675E+02  0.47000000000E+01 0.  1.
         11    1    6    6    0    0 -0.13387418981E+03  0.54294360597E+02 -0.25616032879E+03  0.29408891570E+03  0.00000000000E+00 0. -1.
        -12    1    6    6    0    0 -0.48461956906E+02  0.61676635506E+02 -0.66749538887E+02  0.10299548328E+03  0.00000000000E+00 0.  1.
</event>
<event>
12    1  0.8406581E-002  0.1936653E+03  0.7818608E-02  0.1155294E+00
         21   -1    0    0  503  502  0.00000000000E+00  0.00000000000E+00  0.25671909051E+03  0.25671909051E+03  0.00000000000E+00 0. -1.
         21   -1    0    0  501  503 -0.00000000000E+00 -0.00000000000E+00 -0.14730219322E+03  0.14730219322E+03  0.00000000000E+00 0.  1.
          6    2    1    2  501    0  0.65585775194E+02  0.59663649472E+02  0.75289436744E+02  0.20737204602E+03  0.17167824909E+03 0.  0.
         24    2    3    3    0    0  0.10465597791E+03  0.16305693493E+02  0.67971402061E+02  0.14836326092E+03  0.78567145426E+02 0.  0.
         -6    2    1    2    0  502 -0.65585775194E+02 -0.59663649472E+02  0.34127460553E+02  0.19664923771E+03  0.17217721728E+03 0.  0.
        -24    2    5    5    0    0  0.40037465443E+01 -0.64037797362E+02  0.64980130793E+02  0.12025675138E+03  0.78245762685E+02 0.  0.
          5    1    3    3  501    0 -0.39070202719E+02  0.43357955979E+02  0.73180346828E+01  0.59008785098E+02  0.47000000000E+01 0. -1.
        -13    1    4    4    0    0  0.18148108020E+02  0.14525128800E+02 -0.15658613365E+02  0.28027225405E+02  0.00000000000E+00 0.  1.
         14    1    4    4    0    0  0.86507869892E+02  0.17805646927E+01  0.83630015426E+02  0.12033603552E+03  0.00000000000E+00 0. -1.
         -5    1    5    5    0  502 -0.69589521738E+02  0.43741478906E+01 -0.30852670240E+02  0.76392486322E+02  0.47000000000E+01 0.  1.
         13    1    6    6    0    0 -0.30436545187E+01 -0.95970660483E+01  0.64580205246E+02  0.65360312263E+02  0.00000000000E+00 0. -1.
        -14    1    6    6    0    0  0.70474010629E+01 -0.54440731314E+02  0.39992554762E+00  0.54896439121E+02  0.00000000000E+00 0.  1.
</event>
<event>
12    1  0.8406581E-002  0.1936031E+03  0.7818608E-02  0.1156222E+00
         21   -1    0    0  503  502  0.00000000000E+00  0.00000000000E+00  0.58682022170E+03  0.58682022170E+03  0.00000000000E+00 0.  1.
         21   -1    0    0  501  503 -0.00000000000E+00 -0.00000000000E+00 -0.64739608013E+02  0.64739608013E+02  0.00000000000E+00 0.  1.
          6    2    1    2  501    0  0.24145879212E+02  0.85378221297E+02  0.19683148730E+03  0.27305069934E+03  0.16715736855E+03 0.  0.
         24    2    3    3    0    0  0.22564639257E+02  0.12534707021E+03  0.15317336917E+03  0.21365263135E+03  0.77228977098E+02 0.  0.
         -6    2    1    2    0  502 -0.24145879212E+02 -0.85378221297E+02  0.32524912639E+03  0.37850913038E+03  0.17207470298E+03 0.  0.
        -24    2    5    5    0    0  0.38387506370E+02 -0.11232410339E+02  0.10465155387E+03  0.13748339607E+03  0.79686691367E+02 0.  0.
          5    1    3    3  501    0  0.15812399554E+01 -0.39968848909E+02  0.43658118128E+02  0.59398067994E+02  0.47000000000E+01 0. -1.
        -13    1    4    4    0    0  0.48432887003E+02  0.96729363119E+02  0.12799769625E+03  0.16758796042E+03  0.00000000000E+00 0.  1.
         14    1    4    4    0    0 -0.25868247746E+02  0.28617707087E+02  0.25175672924E+02  0.46064670927E+02  0.00000000000E+00 0. -1.
         -5    1    5    5    0  502 -0.62533385582E+02 -0.74145810958E+02  0.22059757253E+03  0.24102573431E+03  0.47000000000E+01 0.  1.
         11    1    6    6    0    0  0.50661609833E+02 -0.26179209795E+02  0.10342422278E+03  0.11810385089E+03  0.00000000000E+00 0. -1.
        -12    1    6    6    0    0 -0.12274103464E+02  0.14946799456E+02  0.12273310826E+01  0.19379545181E+02  0.00000000000E+00 0.  1.
</event>
<event>
12    1  0.8406581E-002  0.2160375E+03  0.7818608E-02  0.1137386E+00
         21   -1    0    0  503  502  0.00000000000E+00  0.00000000000E+00  0.28768142620E+03  0.28768142620E+03  0.00000000000E+00 0. -1.
         21   -1    0    0  501  503 -0.00000000000E+00 -0.00000000000E+00 -0.16042549168E+03  0.16042549168E+03  0.00000000000E+00 0. -1.
          6    2    1    2  501    0  0.54581067467E+02  0.11317337918E+03  0.55446225676E+02  0.22044740675E+03  0.17243975330E+03 0.  0.
         24    2    3    3    0    0  0.39909816810E+02  0.41606515488E+02  0.95531595647E+02  0.13698490942E+03  0.79464986207E+02 0.  0.
         -6    2    1    2    0  502 -0.54581067467E+02 -0.11317337918E+03  0.71809708850E+02  0.22765951113E+03  0.17574103688E+03 0.  0.
        -24    2    5    5    0    0  0.10560537856E+01 -0.12992537902E+03  0.76484836585E+02  0.16917818438E+03  0.76743784624E+02 0.  0.
          5    1    3    3  501    0  0.14671250656E+02  0.71566863692E+02 -0.40085369971E+02  0.83462497328E+02  0.47000000000E+01 0. -1.
        -11    1    4    4    0    0  0.59331551288E+02  0.11776761285E+02  0.73223805063E+02  0.94977106255E+02  0.00000000000E+00 0.  1.
         12    1    4    4    0    0 -0.19421734478E+02  0.29829754203E+02  0.22307790584E+02  0.42007803165E+02  0.00000000000E+00 0. -1.
         -5    1    5    5    0  502 -0.55637121252E+02  0.16751999840E+02 -0.46751277350E+01  0.58481326756E+02  0.47000000000E+01 0.  1.
         11    1    6    6    0    0  0.35393351091E+02 -0.40789205699E+02  0.38775532315E+02  0.66483009177E+02  0.00000000000E+00 0. -1.
        -12    1    6    6    0    0 -0.34337297306E+02 -0.89136173321E+02  0.37709304270E+02  0.10269517520E+03  0.00000000000E+00 0.  1.
</event>
<event>
12    1  0.8406581E-002  0.2015787E+03  0.7818608E-02  0.1148581E+00
         21   -1    0    0  503  502  0.00000000000E+00  0.00000000000E+00  0.56631412822E+03  0.56631412822E+03  0.00000000000E+00 0. -1.
         21   -1    0    0  501  503 -0.00000000000E+00 -0.00000000000E+00 -0.20292349981E+03  0.20292349981E+03  0.00000000000E+00 0. -1.
          6    2    1    2  501    0  0.82193691488E+02  0.64445127254E+02 -0.12799793748E+03  0.23810985940E+03  0.17147552536E+03 0.  0.
         24    2    3    3    0    0 -0.14065969203E+01 -0.25015989664E+01 -0.17780354573E+02  0.84353955597E+02  0.82408812052E+02 0.  0.
         -6    2    1    2    0  502 -0.82193691488E+02 -0.64445127254E+02  0.49138856589E+03  0.53112776862E+03  0.17240941554E+03 0.  0.
        -24    2    5    5    0    0 -0.56937264779E+02 -0.10158641124E+03  0.43843193676E+03  0.46152994800E+03  0.85003992048E+02 0.  0.
          5    1    3    3  501    0  0.83600288408E+02  0.66946726220E+02 -0.11021758291E+03  0.15375590381E+03  0.47000000000E+01 0. -1.
        -11    1    4    4    0    0 -0.31355106410E+02 -0.27098200823E+01 -0.37148464356E+02  0.48687721520E+02  0.00000000000E+00 0.  1.
         12    1    4    4    0    0  0.29948509490E+02  0.20822111591E+00  0.19368109782E+02  0.35666234077E+02  0.00000000000E+00 0. -1.
         -5    1    5    5    0  502 -0.25256426708E+02  0.37141283983E+02  0.52956629132E+02  0.69597820620E+02  0.47000000000E+01 0.  1.
         13    1    6    6    0    0 -0.29075889521E+02 -0.28017792836E+02  0.29665355451E+03  0.29938893679E+03  0.00000000000E+00 0. -1.
        -14    1    6    6    0    0 -0.27861375258E+02 -0.73568618402E+02  0.14177838225E+03  0.16214101121E+03  0.00000000000E+00 0.  1.
</event>
<event>
12    1  0.8406581E-002  0.1779325E+03  0.7818608E-02  0.1170619E+00
         21   -1    0    0  503  502  0.00000000000E+00  0.00000000000E+00  0.92911109087E+02  0.92911109087E+02  0.00000000000E+00 0. -1.
         21   -1    0    0  501  503 -0.00000000000E+00 -0.00000000000E+00 -0.51340253854E+03  0.51340253854E+03  0.00000000000E+00 0. -1.
          6    2    1    2  501    0 -0.32708974722E+02 -0.93863397165E+01 -0.38789051951E+03  0.42541921658E+03  0.17136065565E+03 0.  0.
         24    2    3    3    0    0  0.99918637539E+01  0.18069294995E+02 -0.62365511514E+02  0.95925977927E+02  0.69899924549E+02 0.  0.
         -6    2    1    2    0  502  0.32708974722E+02  0.93863397165E+01 -0.32600909935E+02  0.18089443104E+03  0.17464820484E+03 0.  0.
        -24    2    5    5    0    0  0.61056153198E+02  0.47591440695E+02  0.15945188109E+02  0.11276216333E+03  0.80425477212E+02 0.  0.
          5    1    3    3  501    0 -0.42700838476E+02 -0.27455634712E+02 -0.32552500800E+03  0.32949323865E+03  0.47000000000E+01 0. -1.
        -13    1    4    4    0    0 -0.52858083829E+01 -0.21761175139E+02 -0.44220276030E+02  0.49567341323E+02  0.00000000000E+00 0.  1.
         14    1    4    4    0    0  0.15277672137E+02  0.39830470134E+02 -0.18145235484E+02  0.46358636604E+02  0.00000000000E+00 0. -1.
         -5    1    5    5    0  502 -0.28347178476E+02 -0.38205100979E+02 -0.48546098044E+02  0.68132267712E+02  0.47000000000E+01 0.  1.
         11    1    6    6    0    0 -0.17084422782E+02  0.25368574967E+01 -0.85840933360E+01  0.19287296497E+02  0.00000000000E+00 0. -1.
        -12    1    6    6    0    0  0.78140575980E+02  0.45054583198E+02  0.24529281445E+02  0.93474866835E+02  0.00000000000E+00 0.  1.
</event>
<event>
12    1  0.8406581E-002  0.2327822E+03  0.7818608E-02  0.1124755E+00
         21   -1    0    0  501  502  0.00000000000E+00  0.00000000000E+00  0.43197620842E+03  0.43197620842E+03  0.00000000000E+00 0.  1.
         21   -1    0    0  502  503 -0.00000000000E+00 -0.00000000000E+00 -0.21963717030E+03  0.21963717030E+03  0.00000000000E+00 0.  1.
         -6    2    1    2    0  503 -0.89263887795E+02 -0.12935669350E+03 -0.10735627689E+03  0.25634529982E+03  0.17171588958E+03 0.  0.
        -24    2    3    3    0    0 -0.12780666434E+03 -0.11801276501E+03 -0.69637336143E+02  0.20103672156E+03  0.72834392128E+02 0.  0.
          6    2    1    2  501    0  0.89263887795E+02  0.12935669350E+03  0.31969531501E+03  0.39526807890E+03  0.17126168264E+03 0.  0.
         24    2    5    5    0    0  0.70599068191E+02  0.55486665944E+01  0.14788036878E+03  0.18261985115E+03  0.80413869656E+02 0.  0.
          5    1    5    5  501    0  0.18664819604E+02  0.12380802690E+03  0.17181494623E+03  0.21264822775E+03  0.47000000000E+01 0. -1.
        -13    1    6    6    0    0  0.17870056643E+02  0.20513591689E+02  0.11613491345E+03  0.11927893565E+03  0.00000000000E+00 0.  1.
         14    1    6    6    0    0  0.52729011548E+02 -0.14964925095E+02  0.31745455332E+02  0.63340915498E+02  0.00000000000E+00 0. -1.
         -5    1    3    3    0  503  0.38542776546E+02 -0.11343928488E+02 -0.37718940746E+02  0.55308578253E+02  0.47000000000E+01 0.  1.
         11    1    4    4    0    0 -0.24191096757E+02 -0.15772774677E+02 -0.44898889959E+02  0.53384453756E+02  0.00000000000E+00 0. -1.
        -12    1    4    4    0    0 -0.10361556758E+03 -0.10223999033E+03 -0.24738446184E+02  0.14765226781E+03  0.00000000000E+00 0.  1.
</event>
<event>
12    1  0.8406581E-002  0.6174499E+03  0.7818608E-02  0.9870095E-01
         21   -1    0    0  501  502  0.00000000000E+00  0.00000000000E+00  0.70027963907E+03  0.70027963907E+03  0.00000000000E+00 0. -1.
         21   -1    0    0  502  503 -0.00000000000E+00 -0.00000000000E+00 -0.58703693283E+03  0.58703693283E+03  0.00000000000E+00 0. -1.
         -6    2    1    2    0  503 -0.20571050279E+03  0.55561500496E+03 -0.11766296766E+03  0.62856098921E+03  0.17383756357E+03 0.  0.
        -24    2    3    3    0    0 -0.10143079507E+03  0.44761774782E+03 -0.69042421504E+02  0.47068853278E+03  0.78300603905E+02 0.  0.
          6    2    1    2  501    0  0.20571050279E+03 -0.55561500496E+03  0.23090567390E+03  0.65875558268E+03  0.17209486566E+03 0.  0.
         24    2    5    5    0    0  0.11644904388E+03 -0.42230742022E+03  0.22368951434E+03  0.49809232256E+03  0.78453973617E+02 0.  0.
          5    1    5    5  501    0  0.89261458905E+02 -0.13330758474E+03  0.72161595628E+01  0.16066326012E+03  0.47000000000E+01 0. -1.
        -11    1    6    6    0    0 -0.42852435379E+01 -0.42091417939E+02  0.35484639287E+01  0.42457536110E+02  0.00000000000E+00 0.  1.
         12    1    6    6    0    0  0.12073428742E+03 -0.38021600228E+03  0.22014105041E+03  0.45563478645E+03  0.00000000000E+00 0. -1.
         -5    1    3    3    0  503 -0.10427970771E+03  0.10799725714E+03 -0.48620546160E+02  0.15787245643E+03  0.47000000000E+01 0.  1.
         11    1    4    4    0    0 -0.75923419354E+02  0.27953615058E+03 -0.79457895711E+02  0.30036374994E+03  0.00000000000E+00 0. -1.
        -12    1    4    4    0    0 -0.25507375718E+02  0.16808159723E+03  0.10415474207E+02  0.17032478283E+03  0.00000000000E+00 0.  1.
</event>
<event>
12    1  0.8406581E-002  0.1879184E+03  0.7818608E-02  0.1160628E+00
         21   -1    0    0  503  502  0.00000000000E+00  0.00000000000E+00  0.39147559674E+03  0.39147559674E+03  0.00000000000E+00 0.  1.
         21   -1    0    0  501  503 -0.00000000000E+00 -0.00000000000E+00 -0.96758806364E+02  0.96758806364E+02  0.00000000000E+00 0.  1.
          6    2    1    2  501    0  0.73154256418E+02  0.18127844211E+02  0.80659747124E+02  0.20339453785E+03  0.17083084983E+03 0.  0.
         24    2    3    3    0    0 -0.23603717825E+01  0.47586245607E+02  0.77917263359E+02  0.12215496804E+03  0.81121601084E+02 0.  0.
         -6    2    1    2    0  502 -0.73154256418E+02 -0.18127844211E+02  0.21405704326E+03  0.28483986526E+03  0.17214286829E+03 0.  0.
        -24    2    5    5    0    0  0.23696193647E+02  0.70620981135E+01  0.64444392354E+02  0.10478271271E+03  0.78834981796E+02 0.  0.
          5    1    3    3  501    0  0.75514628201E+02 -0.29458401396E+02  0.27424837647E+01  0.81239569806E+02  0.47000000000E+01 0. -1.
        -11    1    4    4    0    0  0.18814695758E+02  0.64256545164E+02  0.58857649897E+02  0.89146617009E+02  0.00000000000E+00 0.  1.
         12    1    4    4    0    0 -0.21175067541E+02 -0.16670299557E+02  0.19059613463E+02  0.33008351034E+02  0.00000000000E+00 0. -1.
         -5    1    5    5    0  502 -0.96850450066E+02 -0.25189942325E+02  0.14961265090E+03  0.18005715254E+03  0.47000000000E+01 0.  1.
         13    1    6    6    0    0  0.15084668673E+02  0.42614116475E+02  0.42946907092E+02  0.62353403922E+02  0.00000000000E+00 0. -1.
        -14    1    6    6    0    0  0.86115249746E+01 -0.35552018362E+02  0.21497485263E+02  0.42429308792E+02  0.00000000000E+00 0.  1.
</event>
<event>
12    1  0.8406581E-002  0.2184313E+03  0.7818608E-02  0.1135060E+00
         21   -1    0    0  503  502  0.00000000000E+00  0.00000000000E+00  0.52139959445E+03  0.52139959445E+03  0.00000000000E+00 0.  1.
         21   -1    0    0  501  503 -0.00000000000E+00 -0.00000000000E+00 -0.91800491025E+02  0.91800491025E+02  0.00000000000E+00 0.  1.
          6    2    1    2  501    0 -0.13471558156E+03  0.11364118146E+02  0.19733528990E+03  0.29436960976E+03  0.17156578743E+03 0.  0.
         24    2    3    3    0    0 -0.48944249491E+02  0.72584048205E+02  0.10273613664E+03  0.15268089801E+03  0.71363570766E+02 0.  0.
         -6    2    1    2    0  502  0.13471558156E+03 -0.11364118146E+02  0.23226381352E+03  0.31883047571E+03  0.17154871633E+03 0.  0.
        -24    2    5    5    0    0  0.16267930173E+02 -0.43164491533E+02  0.10406291827E+03  0.14135183077E+03  0.83805908039E+02 0.  0.
          5    1    3    3  501    0 -0.85771332068E+02 -0.61219930059E+02  0.94599153261E+02  0.14168871176E+03  0.47000000000E+01 0. -1.
        -13    1    4    4    0    0 -0.57322368961E+02  0.23326654374E+02  0.46197167950E+02  0.77228007317E+02  0.00000000000E+00 0.  1.
         14    1    4    4    0    0  0.83781194704E+01  0.49257393831E+02  0.56538968689E+02  0.75452890689E+02  0.00000000000E+00 0. -1.
         -5    1    5    5    0  502  0.11844765139E+03  0.31800373388E+02  0.12820089525E+03  0.17747864494E+03  0.47000000000E+01 0.  1.
         13    1    6    6    0    0  0.96578590053E+01 -0.66376492031E+02  0.93342468256E+02  0.11494315689E+03  0.00000000000E+00 0. -1.
        -14    1    6    6    0    0  0.66100711674E+01  0.23212000498E+02  0.10720450018E+02  0.26408673888E+02  0.00000000000E+00 0.  1.
</event>
<event>
12    1  0.8406581E-002  0.1882881E+03  0.7818608E-02  0.1160369E+00
         21   -1    0    0  503  502  0.00000000000E+00  0.00000000000E+00  0.10976017738E+03  0.10976017738E+03  0.00000000000E+00 0.  1.
         21   -1    0    0  501  503 -0.00000000000E+00 -0.00000000000E+00 -0.32098412932E+03  0.32098412932E+03  0.00000000000E+00 0.  1.
          6    2    1    2  501    0  0.74699278812E+02 -0.17406645212E+02 -0.11561105161E+03  0.22094869259E+03  0.17195765743E+03 0.  0.
         24    2    3    3    0    0  0.73640761514E+02 -0.29428703213E+02 -0.12506384638E+02  0.11703376252E+03  0.85155631550E+02 0.  0.
         -6    2    1    2    0  502 -0.74699278812E+02  0.17406645212E+02 -0.95612900330E+02  0.20979561412E+03  0.17026273650E+03 0.  0.
        -24    2    5    5    0    0 -0.27765894331E+02 -0.54719175450E+02 -0.55405562039E+02  0.11469778745E+03  0.79502660903E+02 0.  0.
          5    1    3    3  501    0  0.10585172980E+01  0.12022058001E+02 -0.10310466698E+03  0.10391493006E+03  0.47000000000E+01 0. -1.
        -13    1    4    4    0    0  0.59510269693E+02 -0.35819402370E+02 -0.43794877670E+02  0.82112685349E+02  0.00000000000E+00 0.  1.
         14    1    4    4    0    0  0.14130491821E+02  0.63906991566E+01  0.31288493033E+02  0.34921077175E+02  0.00000000000E+00 0. -1.
         -5    1    5    5    0  502 -0.46933384482E+02  0.72125820663E+02 -0.40207338291E+02  0.95097826671E+02  0.47000000000E+01 0.  1.
         13    1    6    6    0    0 -0.38653206039E+02 -0.47210490125E+02 -0.71415786804E+02  0.93931439464E+02  0.00000000000E+00 0. -1.
        -14    1    6    6    0    0  0.10887311709E+02 -0.75086853250E+01  0.16010224765E+02  0.20766347984E+02  0.00000000000E+00 0.  1.
</event>
<event>
12    1  0.8406581E-002  0.1970117E+03  0.7818608E-02  0.1153495E+00
         21   -1    0    0  501  502  0.00000000000E+00  0.00000000000E+00  0.11242849786E+03  0.11242849786E+03  0.00000000000E+00 0. -1.
         21   -1    0    0  502  503 -0.00000000000E+00 -0.00000000000E+00 -0.97312709103E+03  0.97312709103E+03  0.00000000000E+00 0. -1.
         -6    2    1    2    0  503  0.92690649049E+02  0.18620857750E+01 -0.87177947269E+03  0.89376343129E+03  0.17383497439E+03 0.  0.
        -24    2    3    3    0    0  0.11462777351E+03 -0.31753265305E+02 -0.77757540898E+03  0.79125623702E+03  0.85528472739E+02 0.  0.
          6    2    1    2  501    0 -0.92690649049E+02 -0.18620857750E+01  0.11080879526E+02  0.19179215761E+03  0.16753036156E+03 0.  0.
         24    2    5    5    0    0 -0.70503572356E+02  0.59786399077E+02  0.27313198092E+02  0.12412842860E+03  0.78209262671E+02 0.  0.
          5    1    5    5  501    0 -0.22187076693E+02 -0.61648484852E+02 -0.16232318566E+02  0.67663729004E+02  0.47000000000E+01 0. -1.
        -11    1    6    6    0    0  0.68871232462E+01 -0.13078662570E+02  0.38559321084E+01  0.15275866380E+02  0.00000000000E+00 0.  1.
         12    1    6    6    0    0 -0.77390695602E+02  0.72865061647E+02  0.23457265984E+02  0.10885256222E+03  0.00000000000E+00 0. -1.
         -5    1    3    3    0  503 -0.21937124464E+02  0.33615351080E+02 -0.94204063713E+02  0.10250719427E+03  0.47000000000E+01 0. -1.
         11    1    4    4    0    0  0.97191679158E+02 -0.55068734996E+02 -0.68958118575E+03  0.69857068347E+03  0.00000000000E+00 0. -1.
        -12    1    4    4    0    0  0.17436094355E+02  0.23315469691E+02 -0.87994223232E+02  0.92685553543E+02  0.00000000000E+00 0.  1.
</event>
<event>
12    1  0.8406581E-002  0.2041944E+03  0.7818608E-02  0.1147102E+00
         21   -1    0    0  503  502  0.00000000000E+00  0.00000000000E+00  0.87980219084E+02  0.87980219084E+02  0.00000000000E+00 0.  1.
         21   -1    0    0  501  503 -0.00000000000E+00 -0.00000000000E+00 -0.63803939743E+03  0.63803939743E+03  0.00000000000E+00 0.  1.
          6    2    1    2  501    0 -0.10073744355E+03 -0.28449153655E+02 -0.46643040693E+03  0.50916862549E+03  0.17532249657E+03 0.  0.
         24    2    3    3    0    0  0.70755550125E+01 -0.28108718897E+02 -0.11026685271E+03  0.13701499336E+03  0.75987933534E+02 0.  0.
         -6    2    1    2    0  502  0.10073744355E+03  0.28449153655E+02 -0.83628771418E+02  0.21685099102E+03  0.17050863327E+03 0.  0.
        -24    2    5    5    0    0 -0.10223974101E+02  0.24340613751E+02 -0.14461531807E+02  0.85948304484E+02  0.80504534142E+02 0.  0.
          5    1    3    3  501    0 -0.10781299856E+03 -0.34043475857E+00 -0.35616355422E+03  0.37215363213E+03  0.47000000000E+01 0. -1.
        -13    1    4    4    0    0  0.37993747553E+01  0.93332035090E+01 -0.96443587504E+02  0.96968600624E+02  0.00000000000E+00 0.  1.
         14    1    4    4    0    0  0.32761802571E+01 -0.37441922406E+02 -0.13823265208E+02  0.40046392741E+02  0.00000000000E+00 0. -1.
         -5    1    5    5    0  502  0.11096141765E+03  0.41085399049E+01 -0.69167239611E+02  0.13090268654E+03  0.47000000000E+01 0.  1.
         11    1    6    6    0    0  0.22206849925E+02  0.94209672886E+01 -0.36679467030E+02  0.43900821288E+02  0.00000000000E+00 0. -1.
        -12    1    6    6    0    0 -0.32430824026E+02  0.14919646462E+02  0.22217935223E+02  0.42047483196E+02  0.00000000000E+00 0.  1.
</event>
<event>
12    1  0.8406581E-002  0.2252592E+03  0.7818608E-02  0.1130338E+00
         21   -1    0    0  501  502  0.00000000000E+00  0.00000000000E+00  0.97923760796E+02  0.97923760796E+02  0.00000000000E+00 0. -1.
         21   -1    0    0  502  503 -0.00000000000E+00 -0.00000000000E+00 -0.85810910564E+03  0.85810910564E+03  0.00000000000E+00 0. -1.
         -6    2    1    2    0  503  0.16458713832E+02  0.14421380524E+03 -0.68183483310E+03  0.71753647102E+03  0.16997451791E+03 0.  0.
        -24    2    3    3    0    0 -0.10414344562E+02  0.40435080848E+02 -0.49467869251E+03  0.50180122619E+03  0.73171083384E+02 0.  0.
          6    2    1    2  501    0 -0.16458713832E+02 -0.14421380524E+03 -0.78350511748E+02  0.23849639541E+03  0.17225915665E+03 0.  0.
         24    2    5    5    0    0 -0.13462988855E+02 -0.34095005207E+02  0.18902235924E+02  0.91474929569E+02  0.81649536236E+02 0.  0.
          5    1    5    5  501    0 -0.29957249763E+01 -0.11011880004E+03 -0.97252747673E+02  0.14702146585E+03  0.47000000000E+01 0. -1.
        -13    1    6    6    0    0  0.37500042801E+01 -0.33716163996E+02 -0.26416288110E+02  0.42996075684E+02  0.00000000000E+00 0.  1.
         14    1    6    6    0    0 -0.17212993135E+02 -0.37884121155E+00  0.45318524034E+02  0.48478853885E+02  0.00000000000E+00 0. -1.
         -5    1    3    3    0  503  0.26873058394E+02  0.10377872440E+03 -0.18715614059E+03  0.21573524484E+03  0.47000000000E+01 0.  1.
         13    1    4    4    0    0  0.28697682916E+02  0.13338518604E+02 -0.11957462774E+03  0.12369140909E+03  0.00000000000E+00 0. -1.
        -14    1    4    4    0    0 -0.39112027478E+02  0.27096562245E+02 -0.37510406477E+03  0.37810981709E+03  0.00000000000E+00 0.  1.
</event>
<event>
12    1  0.8406581E-002  0.2359512E+03  0.7818608E-02  0.1123153E+00
         21   -1    0    0  503  502  0.00000000000E+00  0.00000000000E+00  0.31716566332E+02  0.31716566332E+02  0.00000000000E+00 0. -1.
         21   -1    0    0  501  503 -0.00000000000E+00 -0.00000000000E+00 -0.20468723748E+04  0.20468723748E+04  0.00000000000E+00 0.  1.
          6    2    1    2  501    0 -0.14204968667E+03  0.67107385132E+02 -0.14110826071E+04  0.14300695559E+04  0.17106518105E+03 0.  0.
         24    2    3    3    0    0 -0.19466628595E+01  0.32405320533E+02 -0.76052017217E+03  0.76367127991E+03  0.61229055039E+02 0.  0.
         -6    2    1    2    0  502  0.14204968667E+03 -0.67107385132E+02 -0.60407320145E+03  0.64851938526E+03  0.17604387445E+03 0.  0.
        -24    2    5    5    0    0  0.15722473766E+03 -0.10034716656E+02 -0.45866148928E+03  0.49150273744E+03  0.79901598789E+02 0.  0.
          5    1    3    3  501    0 -0.14010302381E+03  0.34702064599E+02 -0.65056243490E+03  0.66639827601E+03  0.47000000000E+01 0. -1.
        -11    1    4    4    0    0 -0.20315431205E+02  0.37627090943E+02 -0.33433223230E+03  0.33705571686E+03  0.00000000000E+00 0.  1.
         12    1    4    4    0    0  0.18368768345E+02 -0.52217704105E+01 -0.42618793987E+03  0.42661556304E+03  0.00000000000E+00 0. -1.
         -5    1    5    5    0  502 -0.15175050984E+02 -0.57072668476E+02 -0.14541171217E+03  0.15701664783E+03  0.47000000000E+01 0.  1.
         11    1    6    6    0    0  0.10141168389E+02  0.23252510577E+02 -0.54215704103E+02  0.59857038984E+02  0.00000000000E+00 0. -1.
        -12    1    6    6    0    0  0.14708356927E+03 -0.33287227233E+02 -0.40444578518E+03  0.43164569845E+03  0.00000000000E+00 0.  1.
</event>
<event>
12    1  0.8406581E-002  0.2277731E+03  0.7818608E-02  0.1128343E+00
         21   -1    0    0  501  502  0.00000000000E+00  0.00000000000E+00  0.72863266132E+03  0.72863266132E+03  0.00000000000E+00 0. -1.
         21   -1    0    0  502  503 -0.00000000000E+00 -0.00000000000E+00 -0.76631313183E+02  0.76631313183E+02  0.00000000000E+00 0.  1.
         -6    2    1    2    0  503  0.92504022057E+02 -0.11737155300E+03  0.43578177948E+03  0.49171773512E+03  0.17189385143E+03 0.  0.
        -24    2    3    3    0    0 -0.13587058437E+02 -0.62943072122E+02  0.25793485112E+03  0.27754631589E+03  0.79719078994E+02 0.  0.
          6    2    1    2  501    0 -0.92504022057E+02  0.11737155300E+03  0.21621956866E+03  0.31354623938E+03  0.17095983975E+03 0.  0.
         24    2    5    5    0    0 -0.87035879793E+02  0.11982238455E+02  0.99251963214E+02  0.15593812118E+03  0.82139679967E+02 0.  0.
          5    1    5    5  501    0 -0.54681422648E+01  0.10538931454E+03  0.11696760544E+03  0.15760811820E+03  0.47000000000E+01 0. -1.
        -11    1    6    6    0    0 -0.57710732807E+02  0.66750410350E+01  0.10988441426E+03  0.12429669887E+03  0.00000000000E+00 0.  1.
         12    1    6    6    0    0 -0.29325146985E+02  0.53071974205E+01 -0.10632451046E+02  0.31641422304E+02  0.00000000000E+00 0. -1.
         -5    1    3    3    0  503  0.10609108049E+03 -0.54428480874E+02  0.17784692836E+03  0.21417141923E+03  0.47000000000E+01 0.  1.
         13    1    4    4    0    0 -0.35059631258E+02 -0.71085109540E+02  0.19151538110E+03  0.20726893578E+03  0.00000000000E+00 0. -1.
        -14    1    4    4    0    0  0.21472572821E+02  0.81420374176E+01  0.66419470027E+02  0.70277380113E+02  0.00000000000E+00 0.  1.
</event>
<event>
12    1  0.8406581E-002  0.1917673E+03  0.7818608E-02  0.1157331E+00
         21   -1    0    0  501  502  0.00000000000E+00  0.00000000000E+00  0.74054736092E+03  0.74054736092E+03  0.00000000000E+00 0.  1.
         21   -1    0    0  502  503 -0.00000000000E+00 -0.00000000000E+00 -0.82110657248E+02  0.82110657248E+02  0.00000000000E+00 0.  1.
         -6    2    1    2    0  503 -0.78736205364E+02  0.25866647970E+02  0.67506207271E+02  0.20139031315E+03  0.17068244402E+03 0.  0.
        -24    2    3    3    0    0  0.24284126303E+02  0.18484407385E+02  0.23956221646E+02  0.89201287567E+02  0.80321709652E+02 0.  0.
          6    2    1    2  501    0  0.78736205364E+02 -0.25866647970E+02  0.59093049640E+03  0.62126770502E+03  0.17293419619E+03 0.  0.
         24    2    5    5    0    0 -0.26631439109E+02 -0.75993887753E+00  0.21871333083E+03  0.23358175520E+03  0.77557102980E+02 0.  0.
          5    1    5    5  501    0  0.10536764447E+03 -0.25106709092E+02  0.37221716556E+03  0.38768594981E+03  0.47000000000E+01 0. -1.
        -13    1    6    6    0    0  0.21534397883E+02  0.16247732413E+02  0.11298465799E+03  0.11616045816E+03  0.00000000000E+00 0.  1.
         14    1    6    6    0    0 -0.48165836991E+02 -0.17007671290E+02  0.10572867285E+03  0.11742129704E+03  0.00000000000E+00 0. -1.
         -5    1    3    3    0  503 -0.10302033167E+03  0.73822405847E+01  0.43549985625E+02  0.11218902558E+03  0.47000000000E+01 0.  1.
         13    1    4    4    0    0  0.18803884476E+02  0.34239610309E+02  0.46771324728E+02  0.60938442730E+02  0.00000000000E+00 0. -1.
        -14    1    4    4    0    0  0.54802418271E+01 -0.15755202924E+02 -0.22815103082E+02  0.28262844837E+02  0.00000000000E+00 0.  1.
</event>
<event>
12    1  0.8406581E-002  0.2281738E+03  0.7818608E-02  0.1128319E+00
         21   -1    0    0  503  502  0.00000000000E+00  0.00000000000E+00  0.17726093036E+03  0.17726093036E+03  0.00000000000E+00 0.  1.
         21   -1    0    0  501  503 -0.00000000000E+00 -0.00000000000E+00 -0.31071216326E+03  0.31071216326E+03  0.00000000000E+00 0.  1.
          6    2    1    2  501    0 -0.12509088570E+03 -0.77314060324E+02 -0.12859548308E+03  0.26191615820E+03  0.17446513133E+03 0.  0.
         24    2    3    3    0    0 -0.10590487484E+03 -0.15472076061E+02 -0.32597958078E+02  0.14602763920E+03  0.93841445459E+02 0.  0.
         -6    2    1    2    0  502  0.12509088570E+03  0.77314060324E+02 -0.48557498177E+01  0.22605693542E+03  0.17161866488E+03 0.  0.
        -24    2    5    5    0    0  0.25969166138E+02 -0.23418481495E+02 -0.30427623118E+01  0.84644286783E+02  0.77023204407E+02 0.  0.
          5    1    3    3  501    0 -0.19186010859E+02 -0.61841984262E+02 -0.95997525000E+02  0.11588851900E+03  0.47000000000E+01 0. -1.
        -11    1    4    4    0    0 -0.53389350737E+02 -0.14296332247E+02 -0.64209098812E+02  0.84720813606E+02  0.00000000000E+00 0.  1.
         12    1    4    4    0    0 -0.52515524106E+02 -0.11757438146E+01  0.31611140735E+02  0.61306825592E+02  0.00000000000E+00 0. -1.
         -5    1    5    5    0  502  0.99121719564E+02  0.10073254182E+03 -0.18129875059E+01  0.14141264864E+03  0.47000000000E+01 0.  1.
         13    1    6    6    0    0  0.24391084101E+02 -0.22105244866E+02 -0.37630190522E+02  0.49995980568E+02  0.00000000000E+00 0. -1.
        -14    1    6    6    0    0  0.15780820370E+01 -0.13132366292E+01  0.34587428211E+02  0.34648306215E+02  0.00000000000E+00 0.  1.
</event>
<event>
12    1  0.8406581E-002  0.2682452E+03  0.7818608E-02  0.1102304E+00
         21   -1    0    0  503  502  0.00000000000E+00  0.00000000000E+00  0.13832119805E+03  0.13832119805E+03  0.00000000000E+00 0.  1.
         21   -1    0    0  501  503 -0.00000000000E+00 -0.00000000000E+00 -0.57590533046E+03  0.57590533046E+03  0.00000000000E+00 0. -1.
          6    2    1    2  501    0 -0.20530189789E+03 -0.69556448471E+01 -0.10755990440E+03  0.28900630157E+03  0.17250582320E+03 0.  0.
         24    2    3    3    0    0 -0.89373736653E+02  0.53703082065E+02 -0.53172142597E+02  0.14723557697E+03  0.89327221782E+02 0.  0.
         -6    2    1    2    0  502  0.20530189789E+03  0.69556448471E+01 -0.33002422801E+03  0.42522022695E+03  0.17233397825E+03 0.  0.
        -24    2    5    5    0    0  0.89646537177E+02  0.35328707675E+02 -0.82221223422E+02  0.15024820612E+03  0.80805783501E+02 0.  0.
          5    1    3    3  501    0 -0.11592816124E+03 -0.60658726912E+02 -0.54387761803E+02  0.14177072460E+03  0.47000000000E+01 0. -1.
        -11    1    4    4    0    0 -0.87661951787E+02  0.73155116481E+02 -0.32309400494E+02  0.11865996047E+03  0.00000000000E+00 0.  1.
         12    1    4    4    0    0 -0.17117848655E+01 -0.19452034417E+02 -0.20862742102E+02  0.28575616501E+02  0.00000000000E+00 0. -1.
         -5    1    5    5    0  502  0.11565536071E+03 -0.28373062828E+02 -0.24780300459E+03  0.27497202083E+03  0.47000000000E+01 0.  1.
         13    1    6    6    0    0  0.33085381573E+02 -0.81636871647E+01 -0.70007282979E+02  0.77860824116E+02  0.00000000000E+00 0. -1.
        -14    1    6    6    0    0  0.56561155603E+02  0.43492394840E+02 -0.12213940443E+02  0.72387382003E+02  0.00000000000E+00 0.  1.
</event>
<event>
12    1  0.8406581E-002  0.2699553E+03  0.7818608E-02  0.1101687E+00
         21   -1    0    0  503  502  0.00000000000E+00  0.00000000000E+00  0.54131255971E+02  0.54131255971E+02  0.00000000000E+00 0.  1.
         21   -1    0    0  501  503 -0.00000000000E+00 -0.00000000000E+00 -0.14888150978E+04  0.14888150978E+04  0.00000000000E+00 0.  1.
          6    2    1    2  501    0 -0.15521324504E+03 -0.13495190536E+03 -0.97004350652E+03  0.10069062726E+04  0.17485041908E+03 0.  0.
         24    2    3    3    0    0 -0.15618235490E+03 -0.48763032355E+02 -0.70571341496E+03  0.72883802862E+03  0.80016789491E+02 0.  0.
         -6    2    1    2    0  502  0.15521324504E+03  0.13495190536E+03 -0.46464033532E+03  0.53604008119E+03  0.17071953385E+03 0.  0.
        -24    2    5    5    0    0  0.48448107508E+02  0.10883957354E+03 -0.17602936021E+03  0.22717274167E+03  0.80173854925E+02 0.  0.
          5    1    3    3  501    0  0.96910985876E+00 -0.86188873004E+02 -0.26433009155E+03  0.27806824397E+03  0.47000000000E+01 0. -1.
        -13    1    4    4    0    0  0.28819883795E+01  0.12357013517E+01 -0.11502132762E+03  0.11506406313E+03  0.00000000000E+00 0.  1.
         14    1    4    4    0    0 -0.15906434328E+03 -0.49998733707E+02 -0.59069208734E+03  0.61377396550E+03  0.00000000000E+00 0. -1.
         -5    1    5    5    0  502  0.10676513753E+03  0.26112331819E+02 -0.28861097511E+03  0.30886733951E+03  0.47000000000E+01 0.  1.
         13    1    6    6    0    0  0.29700147778E+02  0.96623415572E+02 -0.17800952796E+03  0.20470851291E+03  0.00000000000E+00 0. -1.
        -14    1    6    6    0    0  0.18747959730E+02  0.12216157967E+02  0.19801677472E+01  0.22464228761E+02  0.00000000000E+00 0.  1.
</event>
<event>
12    1  0.8406581E-002  0.2112303E+03  0.7818608E-02  0.1140749E+00
         21   -1    0    0  501  502  0.00000000000E+00  0.00000000000E+00  0.78384158384E+02  0.78384158384E+02  0.00000000000E+00 0.  1.
         21   -1    0    0  502  503 -0.00000000000E+00 -0.00000000000E+00 -0.10216593266E+04  0.10216593266E+04  0.00000000000E+00 0. -1.
         -6    2    1    2    0  503  0.10765623635E+03 -0.54746143599E+02 -0.83899278900E+03  0.86517463402E+03  0.17329524488E+03 0.  0.
        -24    2    3    3    0    0  0.32444975879E+02  0.33699656654E+02 -0.44518787554E+03  0.45458506627E+03  0.79164352002E+02 0.  0.
          6    2    1    2  501    0 -0.10765623635E+03  0.54746143599E+02 -0.10428237924E+03  0.23486885099E+03  0.17234139688E+03 0.  0.
         24    2    5    5    0    0 -0.13847826669E+03  0.41409265785E+02 -0.91281553786E+02  0.19855106847E+03  0.10099132187E+03 0.  0.
          5    1    5    5  501    0  0.30822030338E+02  0.13336877815E+02 -0.13000825455E+02  0.36317782511E+02  0.47000000000E+01 0. -1.
        -13    1    6    6    0    0 -0.30659409741E+02  0.33629687094E+02  0.14042745849E+02  0.47625140112E+02  0.00000000000E+00 0.  1.
         14    1    6    6    0    0 -0.10781885695E+03  0.77795786903E+01 -0.10532429963E+03  0.15092592836E+03  0.00000000000E+00 0. -1.
         -5    1    3    3    0  503  0.75211260473E+02 -0.88445800253E+02 -0.39380491345E+03  0.41058956775E+03  0.47000000000E+01 0.  1.
         11    1    4    4    0    0  0.39372998141E+02  0.19023570323E+02 -0.43044169922E+03  0.43265712249E+03  0.00000000000E+00 0. -1.
        -12    1    4    4    0    0 -0.69280222611E+01  0.14676086331E+02 -0.14746176319E+02  0.21927943781E+02  0.00000000000E+00 0.  1.
</event>
<event>
12    1  0.8406581E-002  0.2062548E+03  0.7818608E-02  0.1144572E+00
         21   -1    0    0  501  502  0.00000000000E+00  0.00000000000E+00  0.21409195672E+03  0.21409195672E+03  0.00000000000E+00 0.  1.
         21   -1    0    0  502  503 -0.00000000000E+00 -0.00000000000E+00 -0.30257808712E+03  0.30257808712E+03  0.00000000000E+00 0. -1.
         -6    2    1    2    0  503  0.49181898596E+02 -0.10334313499E+03 -0.19562706924E+03  0.28427276965E+03  0.17158786275E+03 0.  0.
        -24    2    3    3    0    0  0.81525572062E+02 -0.38934859942E+02 -0.67799430972E+02  0.13745133316E+03  0.78318349876E+02 0.  0.
          6    2    1    2  501    0 -0.49181898596E+02  0.10334313499E+03  0.10714093885E+03  0.23239727419E+03  0.17155363470E+03 0.  0.
         24    2    5    5    0    0 -0.93035765732E+02  0.45918140432E+02  0.65268474564E+02  0.14875407407E+03  0.84283280983E+02 0.  0.
          5    1    5    5  501    0  0.43853867136E+02  0.57424994555E+02  0.41872464285E+02  0.83643200129E+02  0.47000000000E+01 0. -1.
        -11    1    6    6    0    0 -0.16078127636E+02  0.50298494980E+02  0.44151456795E+02  0.68831649135E+02  0.00000000000E+00 0.  1.
         12    1    6    6    0    0 -0.76957638097E+02 -0.43803545479E+01  0.21117017769E+02  0.79922424931E+02  0.00000000000E+00 0. -1.
         -5    1    3    3    0  503 -0.32343673467E+02 -0.64408275045E+02 -0.12782763827E+03  0.14682143649E+03  0.47000000000E+01 0.  1.
         11    1    4    4    0    0  0.25419242758E+02 -0.45823952157E+02 -0.45141184958E+01  0.52596100231E+02  0.00000000000E+00 0. -1.
        -12    1    4    4    0    0  0.56106329304E+02  0.68890922148E+01 -0.63285312476E+02  0.84855232925E+02  0.00000000000E+00 0.  1.
</event>
<event>
12    1  0.8406581E-002  0.3389138E+03  0.7818608E-02  0.1067502E+00
         21   -1    0    0  501  502  0.00000000000E+00  0.00000000000E+00  0.16809566739E+04  0.16809566739E+04  0.00000000000E+00 0. -1.
         21   -1    0    0  502  503 -0.00000000000E+00 -0.00000000000E+00 -0.89825213139E+02  0.89825213139E+02  0.00000000000E+00 0.  1.
         -6    2    1    2    0  503 -0.27556175354E+03 -0.89651936692E+02  0.35590040947E+03  0.48990004263E+03  0.17136277468E+03 0.  0.
        -24    2    3    3    0    0 -0.27707089113E+03 -0.88111024849E+02  0.36884108657E+03  0.47596436792E+03  0.77243129031E+02 0.  0.
          6    2    1    2  501    0  0.27556175354E+03  0.89651936692E+02  0.12352310513E+04  0.12808818444E+04  0.17575778644E+03 0.  0.
         24    2    5    5    0    0  0.27515016838E+03  0.70075315154E+02  0.12213077802E+04  0.12563999942E+04  0.79561839959E+02 0.  0.
          5    1    5    5  501    0  0.41158515684E+00  0.19576621538E+02  0.13923271049E+02  0.24481850214E+02  0.47000000000E+01 0. -1.
        -11    1    6    6    0    0  0.18569040100E+03  0.69584859986E+02  0.70319392545E+03  0.73061937735E+03  0.00000000000E+00 0.  1.
         12    1    6    6    0    0  0.89459767376E+02  0.49045516762E+00  0.51811385480E+03  0.52578061685E+03  0.00000000000E+00 0. -1.
         -5    1    3    3    0  503  0.15091375923E+01 -0.15409118423E+01 -0.12940677102E+02  0.13935674704E+02  0.47000000000E+01 0.  1.
         11    1    4    4    0    0 -0.25863304803E+03 -0.10166619323E+03  0.34297027287E+03  0.44142459882E+03  0.00000000000E+00 0. -1.
        -12    1    4    4    0    0 -0.18437843098E+02  0.13555168376E+02  0.25870813702E+02  0.34539769099E+02  0.00000000000E+00 0.  1.
</event>
<event>
12    1  0.8406581E-002  0.3117359E+03  0.7818608E-02  0.1079535E+00
         21   -1    0    0  501  502  0.00000000000E+00  0.00000000000E+00  0.23533007359E+03  0.23533007359E+03  0.00000000000E+00 0.  1.
         21   -1    0    0  502  503 -0.00000000000E+00 -0.00000000000E+00 -0.43741522987E+03  0.43741522987E+03  0.00000000000E+00 0. -1.
         -6    2    1    2    0  503 -0.21556058044E+03 -0.14610822097E+03 -0.18095041152E+03  0.36044740469E+03  0.17136307666E+03 0.  0.
        -24    2    3    3    0    0 -0.63442274989E+02 -0.19017731334E+01 -0.57740305738E+02  0.11726373209E+03  0.79926847554E+02 0.  0.
          6    2    1    2  501    0  0.21556058044E+03  0.14610822097E+03 -0.21134744757E+02  0.31229789877E+03  0.17108279887E+03 0.  0.
         24    2    5    5    0    0  0.80880709471E+02  0.10052178878E+03  0.41615150922E+02  0.15681018269E+03  0.78811759437E+02 0.  0.
          5    1    5    5  501    0  0.13467987097E+03  0.45586432189E+02 -0.62749895679E+02  0.15548771608E+03  0.47000000000E+01 0. -1.
        -13    1    6    6    0    0  0.83671377649E+02  0.52435027859E+02  0.45019644836E+02  0.10852234795E+03  0.00000000000E+00 0.  1.
         14    1    6    6    0    0 -0.27906681782E+01  0.48086760925E+02 -0.34044939140E+01  0.48287834741E+02  0.00000000000E+00 0. -1.
         -5    1    3    3    0  503 -0.15211830545E+03 -0.14420644784E+03 -0.12321010578E+03  0.24318367260E+03  0.47000000000E+01 0.  1.
         13    1    4    4    0    0 -0.65250322039E+02  0.28385330877E+02 -0.45997494367E+02  0.84729575847E+02  0.00000000000E+00 0. -1.
        -14    1    4    4    0    0  0.18080470502E+01 -0.30287104010E+02 -0.11742811371E+02  0.32534156242E+02  0.00000000000E+00 0.  1.
</event>
<event>
12    1  0.8406581E-002  0.1768930E+03  0.7818608E-02  0.1171065E+00
         21   -1    0    0  501  502  0.00000000000E+00  0.00000000000E+00  0.20202538720E+02  0.20202538720E+02  0.00000000000E+00 0. -1.
         21   -1    0    0  502  503 -0.00000000000E+00 -0.00000000000E+00 -0.15610044862E+04  0.15610044862E+04  0.00000000000E+00 0.  1.
         -6    2    1    2    0  503  0.32220161089E+02  0.15032224313E+02 -0.85778845538E+03  0.87565861151E+03  0.17237419523E+03 0.  0.
        -24    2    3    3    0    0  0.51278958044E+02  0.56498766221E+02 -0.75512680637E+03  0.76321210860E+03  0.80340443702E+02 0.  0.
          6    2    1    2  501    0 -0.32220161089E+02 -0.15032224313E+02 -0.68301349210E+03  0.70554841341E+03  0.17328308263E+03 0.  0.
         24    2    5    5    0    0 -0.81965274133E+02 -0.39554510348E+02 -0.48026898323E+03  0.49530249868E+03  0.79896204486E+02 0.  0.
          5    1    5    5  501    0  0.49745113044E+02  0.24522286035E+02 -0.20274450886E+03  0.21024591472E+03  0.47000000000E+01 0. -1.
        -13    1    6    6    0    0 -0.41824217690E+02  0.18684749700E+02 -0.12667279285E+03  0.13470108204E+03  0.00000000000E+00 0.  1.
         14    1    6    6    0    0 -0.40141056442E+02 -0.58239260048E+02 -0.35359619039E+03  0.36060141664E+03  0.00000000000E+00 0. -1.
         -5    1    3    3    0  503 -0.19058796955E+02 -0.41466541908E+02 -0.10266164901E+03  0.11244650291E+03  0.47000000000E+01 0.  1.
         11    1    4    4    0    0  0.37493938556E+02 -0.13137504210E+02 -0.28517203701E+03  0.28792617133E+03  0.00000000000E+00 0. -1.
        -12    1    4    4    0    0  0.13785019488E+02  0.69636270431E+02 -0.46995476936E+03  0.47528593727E+03  0.00000000000E+00 0.  1.
</event>
<event>
12    1  0.8406581E-002  0.2229752E+03  0.7818608E-02  0.1131754E+00
         21   -1    0    0  503  502  0.00000000000E+00  0.00000000000E+00  0.12276536088E+03  0.12276536088E+03  0.00000000000E+00 0.  1.
         21   -1    0    0  501  503 -0.00000000000E+00 -0.00000000000E+00 -0.46528762015E+03  0.46528762015E+03  0.00000000000E+00 0.  1.
          6    2    1    2  501    0 -0.98695915618E+02 -0.10077077169E+03 -0.64931344964E+02  0.23223699163E+03  0.17269136787E+03 0.  0.
         24    2    3    3    0    0 -0.96218855747E+02 -0.11022070620E+03 -0.38457578877E+01  0.17019687528E+03  0.86864919423E+02 0.  0.
         -6    2    1    2    0  502  0.98695915618E+02  0.10077077169E+03 -0.27759091431E+03  0.35581598940E+03  0.17219950760E+03 0.  0.
        -24    2    5    5    0    0  0.28935023152E+02 -0.60538401535E+01 -0.16302591311E+03  0.18427791982E+03  0.80666094766E+02 0.  0.
          5    1    3    3  501    0 -0.24770598710E+01  0.94499345078E+01 -0.61085587076E+02  0.62040116346E+02  0.47000000000E+01 0. -1.
        -13    1    4    4    0    0 -0.45095234483E+02 -0.11001315760E+03 -0.57676557388E+01  0.11903672068E+03  0.00000000000E+00 0.  1.
         14    1    4    4    0    0 -0.51123621264E+02 -0.20754860087E+00  0.19218978511E+01  0.51160154602E+02  0.00000000000E+00 0. -1.
         -5    1    5    5    0  502  0.69760892466E+02  0.10682461185E+03 -0.11456500120E+03  0.17153806958E+03  0.47000000000E+01 0.  1.
         11    1    6    6    0    0  0.80932747402E+01 -0.80647243253E+01  0.67135400535E+01  0.13251886451E+02  0.00000000000E+00 0. -1.
        -12    1    6    6    0    0  0.20841748412E+02  0.20108841718E+01 -0.16973945316E+03  0.17102603337E+03  0.00000000000E+00 0.  1.
</event>
<event>
12    1  0.8406581E-002  0.1760882E+03  0.7818608E-02  0.1171723E+00
         21   -1    0    0  501  502  0.00000000000E+00  0.00000000000E+00  0.27634697514E+03  0.27634697514E+03  0.00000000000E+00 0. -1.
         21   -1    0    0  502  503 -0.00000000000E+00 -0.00000000000E+00 -0.16071422411E+03  0.16071422411E+03  0.00000000000E+00 0. -1.
         -6    2    1    2    0  503  0.23841317517E+02 -0.30598190376E+02 -0.62460411313E+02  0.18683781162E+03  0.17176264785E+03 0.  0.
        -24    2    3    3    0    0 -0.24879113274E+02 -0.69744402256E+02 -0.69257499683E+02  0.12379499529E+03  0.71030610820E+02 0.  0.
          6    2    1    2  501    0 -0.23841317517E+02  0.30598190376E+02  0.17809316235E+03  0.25022338763E+03  0.17143486100E+03 0.  0.
         24    2    5    5    0    0 -0.10329680538E+02  0.78383724966E+00  0.13210947603E+02  0.82057711213E+02  0.80321990340E+02 0.  0.
          5    1    5    5  501    0 -0.13511636979E+02  0.29814353126E+02  0.16488221474E+03  0.16816567642E+03  0.47000000000E+01 0. -1.
        -11    1    6    6    0    0 -0.43105803750E+02  0.14099313705E+02  0.41779949706E+01  0.45545105180E+02  0.00000000000E+00 0.  1.
         12    1    6    6    0    0  0.32776123212E+02 -0.13315476456E+02  0.90329526320E+01  0.36512606033E+02  0.00000000000E+00 0. -1.
         -5    1    3    3    0  503  0.48720430790E+02  0.39146211880E+02  0.67970883701E+01  0.63042816333E+02  0.47000000000E+01 0.  1.
         13    1    4    4    0    0  0.13833478051E+02 -0.59801515722E+02 -0.32311474481E+02  0.69365825741E+02  0.00000000000E+00 0. -1.
        -14    1    4    4    0    0 -0.38712591325E+02 -0.99428865344E+01 -0.36946025202E+02  0.54429169550E+02  0.00000000000E+00 0.  1.
</event>
<event>
12    1  0.8406581E-002  0.1754218E+03  0.7818608E-02  0.1172575E+00
         21   -1    0    0  501  502  0.00000000000E+00  0.00000000000E+00  0.98971755770E+02  0.98971755770E+02  0.00000000000E+00 0. -1.
         21   -1    0    0  502  503 -0.00000000000E+00 -0.00000000000E+00 -0.11753057068E+04  0.11753057068E+04  0.00000000000E+00 0. -1.
         -6    2    1    2    0  503  0.56226989313E+01  0.28183599459E+02 -0.10847303877E+04  0.10986548320E+04  0.17197818453E+03 0.  0.
        -24    2    3    3    0    0  0.31948445223E+02  0.64571516577E+02 -0.96005324296E+03  0.96605164260E+03  0.79770689781E+02 0.  0.
          6    2    1    2  501    0 -0.56226989313E+01 -0.28183599459E+02  0.83964366360E+01  0.17562263056E+03  0.17305166337E+03 0.  0.
         24    2    5    5    0    0  0.41851210813E+02  0.25017122160E+02  0.34702934126E+02  0.99476647755E+02  0.79460238887E+02 0.  0.
          5    1    5    5  501    0 -0.47473909744E+02 -0.53200721619E+02 -0.26306497490E+02  0.76145982805E+02  0.47000000000E+01 0. -1.
        -13    1    6    6    0    0  0.43379090171E+02  0.81303608205E+01 -0.15273235733E+02  0.46702462043E+02  0.00000000000E+00 0.  1.
         14    1    6    6    0    0 -0.15278793575E+01  0.16886761339E+02  0.49976169859E+02  0.52774185712E+02  0.00000000000E+00 0. -1.
         -5    1    3    3    0  503 -0.26325746292E+02 -0.36387917118E+02 -0.12467714473E+03  0.13260318944E+03  0.47000000000E+01 0.  1.
         11    1    4    4    0    0 -0.21798375896E+02  0.29440461647E+02 -0.52608974517E+03  0.52736356524E+03  0.00000000000E+00 0. -1.
        -12    1    4    4    0    0  0.53746821119E+02  0.35131054930E+02 -0.43396349780E+03  0.43868807736E+03  0.00000000000E+00 0.  1.
</event>
<event>
12    1  0.8406581E-002  0.1895823E+03  0.7818608E-02  0.1158926E+00
         21   -1    0    0  501  502  0.00000000000E+00  0.00000000000E+00  0.16866120613E+03  0.16866120613E+03  0.00000000000E+00 0. -1.
         21   -1    0    0  502  503 -0.00000000000E+00 -0.00000000000E+00 -0.26692631602E+03  0.26692631602E+03  0.00000000000E+00 0.  1.
         -6    2    1    2    0  503  0.33303234362E+02  0.73405162713E+02 -0.14728821057E+03  0.23976942724E+03  0.17116698844E+03 0.  0.
        -24    2    3    3    0    0 -0.45456797882E+01 -0.11590573200E+02 -0.92370559789E+02  0.13162667994E+03  0.92942229171E+02 0.  0.
          6    2    1    2  501    0 -0.33303234362E+02 -0.73405162713E+02  0.49023100687E+02  0.19581809492E+03  0.17159265300E+03 0.  0.
         24    2    5    5    0    0 -0.60689410125E+02 -0.77024682368E+02  0.83407514884E+02  0.15146179339E+03  0.79798841615E+02 0.  0.
          5    1    5    5  501    0  0.27386175763E+02  0.36195196547E+01 -0.34384414197E+02  0.44356301527E+02  0.47000000000E+01 0. -1.
        -13    1    6    6    0    0  0.19480199350E+02 -0.14308538011E+02  0.21348143952E+02  0.32248343786E+02  0.00000000000E+00 0.  1.
         14    1    6    6    0    0 -0.80169609475E+02 -0.62716144356E+02  0.62059370932E+02  0.11921344961E+03  0.00000000000E+00 0. -1.
         -5    1    3    3    0  503  0.37848914150E+02  0.84995735913E+02 -0.54917650785E+02  0.10814274730E+03  0.47000000000E+01 0.  1.
         11    1    4    4    0    0 -0.33224558014E+02  0.19707988400E+02 -0.11523284918E+02  0.40312059701E+02  0.00000000000E+00 0. -1.
        -12    1    4    4    0    0  0.28678878226E+02 -0.31298561601E+02 -0.80847274871E+02  0.91314620235E+02  0.00000000000E+00 0.  1.
</event>
<event>
12    1  0.8406581E-002  0.2004644E+03  0.7818608E-02  0.1150053E+00
         21   -1    0    0  503  502  0.00000000000E+00  0.00000000000E+00  0.60517211659E+03  0.60517211659E+03  0.00000000000E+00 0. -1.
         21   -1    0    0  501  503 -0.00000000000E+00 -0.00000000000E+00 -0.91187243520E+02  0.91187243520E+02  0.00000000000E+00 0. -1.
          6    2    1    2  501    0  0.96382945590E+02  0.32429009048E+02  0.73047092380E+02  0.21335846942E+03  0.17275603011E+03 0.  0.
         24    2    3    3    0    0  0.11199472646E+03  0.70096842985E+02  0.35574077420E+02  0.15778050377E+03  0.78567081110E+02 0.  0.
         -6    2    1    2    0  502 -0.96382945590E+02 -0.32429009048E+02  0.44093778069E+03  0.48300089069E+03  0.16888582279E+03 0.  0.
        -24    2    5    5    0    0 -0.10816892688E+03 -0.73348439457E+02  0.31861770521E+03  0.35339533524E+03  0.79312739064E+02 0.  0.
          5    1    3    3  501    0 -0.15611780871E+02 -0.37667833937E+02  0.37473014960E+02  0.55577965649E+02  0.47000000000E+01 0. -1.
        -13    1    4    4    0    0 -0.52378946647E+01  0.28792046679E+02  0.40009322898E+01  0.29536840584E+02  0.00000000000E+00 0.  1.
         14    1    4    4    0    0  0.11723262113E+03  0.41304796305E+02  0.31573145130E+02  0.12824366319E+03  0.00000000000E+00 0. -1.
         -5    1    5    5    0  502  0.11785981294E+02  0.40919430409E+02  0.12232007548E+03  0.12960555546E+03  0.47000000000E+01 0.  1.
         13    1    6    6    0    0 -0.82086902102E+02 -0.55464247528E+02  0.13712504041E+03  0.16916801991E+03  0.00000000000E+00 0. -1.
        -14    1    6    6    0    0 -0.26082024782E+02 -0.17884191928E+02  0.18149266480E+03  0.18422731533E+03  0.00000000000E+00 0.  1.
</event>
<event>
12    1  0.8406581E-002  0.2643066E+03  0.7818608E-02  0.1104805E+00
         21   -1    0    0  503  502  0.00000000000E+00  0.00000000000E+00  0.24070633341E+03  0.24070633341E+03  0.00000000000E+00 0.  1.
         21   -1    0    0  501  503 -0.00000000000E+00 -0.00000000000E+00 -0.29442487054E+03  0.29442487054E+03  0.00000000000E+00 0.  1.
          6    2    1    2  501    0  0.12145980905E+03 -0.15743939038E+03 -0.64514690884E+02  0.27060417931E+03  0.17182790711E+03 0.  0.
         24    2    3    3    0    0  0.74930834310E+02 -0.17082282686E+03 -0.16294435040E+02  0.20211078593E+03  0.76080175270E+02 0.  0.
         -6    2    1    2    0  502 -0.12145980905E+03  0.15743939038E+03  0.10796153751E+02  0.26452702465E+03  0.17412163271E+03 0.  0.
        -24    2    5    5    0    0 -0.72554856150E+02  0.82041099948E+02  0.75157207881E+02  0.15388782768E+03  0.77703979172E+02 0.  0.
          5    1    3    3  501    0  0.46528974742E+02  0.13383436481E+02 -0.48220255844E+02  0.68493393377E+02  0.47000000000E+01 0. -1.
        -13    1    4    4    0    0  0.40685134963E+02 -0.53904549316E+02  0.27118870835E+02  0.72776464598E+02  0.00000000000E+00 0.  1.
         14    1    4    4    0    0  0.34245699347E+02 -0.11691827754E+03 -0.43413305875E+02  0.12933432133E+03  0.00000000000E+00 0. -1.
         -5    1    5    5    0  502 -0.48904952901E+02  0.75398290430E+02 -0.64361054130E+02  0.11063919697E+03  0.47000000000E+01 0.  1.
         13    1    6    6    0    0 -0.70536700699E+02  0.23430972156E+02  0.52592351252E+02  0.91051589837E+02  0.00000000000E+00 0. -1.
        -14    1    6    6    0    0 -0.20181554514E+01  0.58610127792E+02  0.22564856629E+02  0.62836237840E+02  0.00000000000E+00 0.  1.
</event>
<event>
12    1  0.8406581E-002  0.2046440E+03  0.7818608E-02  0.1145914E+00
         21   -1    0    0  503  502  0.00000000000E+00  0.00000000000E+00  0.94891275300E+03  0.94891275300E+03  0.00000000000E+00 0.  1.
         21   -1    0    0  501  503 -0.00000000000E+00 -0.00000000000E+00 -0.44583743096E+02  0.44583743096E+02  0.00000000000E+00 0.  1.
          6    2    1    2  501    0  0.10087636581E+03 -0.47342523139E+02  0.50425972089E+03  0.54420313374E+03  0.17164448429E+03 0.  0.
         24    2    3    3    0    0  0.77315886595E+02 -0.92927603955E+02  0.43549156633E+03  0.45827150479E+03  0.75806212512E+02 0.  0.
         -6    2    1    2    0  502 -0.10087636581E+03  0.47342523139E+02  0.40006928902E+03  0.44929336236E+03  0.17144017548E+03 0.  0.
        -24    2    5    5    0    0  0.47234933536E+01  0.47713527503E+02  0.14846573489E+03  0.17638695652E+03  0.82288467579E+02 0.  0.
          5    1    3    3  501    0  0.23560479214E+02  0.45585080816E+02  0.68768154558E+02  0.85931628956E+02  0.47000000000E+01 0. -1.
        -11    1    4    4    0    0  0.75696469011E+02 -0.37826885052E+02  0.21654271497E+03  0.23248994830E+03  0.00000000000E+00 0.  1.
         12    1    4    4    0    0  0.16194175841E+01 -0.55100718902E+02  0.21894885136E+03  0.22578155648E+03  0.00000000000E+00 0. -1.
         -5    1    5    5    0  502 -0.10559985916E+03 -0.37100436399E+00  0.25160355413E+03  0.27290640584E+03  0.47000000000E+01 0.  1.
         11    1    6    6    0    0  0.70958822942E+01 -0.22697262711E+02  0.27092200714E+02  0.36048642410E+02  0.00000000000E+00 0. -1.
        -12    1    6    6    0    0 -0.23723889406E+01  0.70410790213E+02  0.12137353418E+03  0.14033831411E+03  0.00000000000E+00 0.  1.
</event>
<event>
12    1  0.8406581E-002  0.2586945E+03  0.7818608E-02  0.1108496E+00
         21   -1    0    0  501  502  0.00000000000E+00  0.00000000000E+00  0.36431756557E+03  0.36431756557E+03  0.00000000000E+00 0.  1.
         21   -1    0    0  502  503 -0.00000000000E+00 -0.00000000000E+00 -0.11698696609E+04  0.11698696609E+04  0.00000000000E+00 0. -1.
         -6    2    1    2    0  503 -0.67196299480E+02 -0.18023949464E+03 -0.11075590409E+04  0.11365302951E+04  0.16736924626E+03 0.  0.
        -24    2    3    3    0    0  0.54602463670E+01 -0.56038872126E+02 -0.63979124697E+03  0.64710862896E+03  0.79035235771E+02 0.  0.
          6    2    1    2  501    0  0.67196299480E+02  0.18023949464E+03  0.30200694559E+03  0.39765693132E+03  0.17297751806E+03 0.  0.
         24    2    5    5    0    0  0.83851288733E+02  0.15263705229E+03  0.15025761008E+03  0.24244986216E+03  0.76651666135E+02 0.  0.
          5    1    5    5  501    0 -0.16654989253E+02  0.27602442350E+02  0.15174933551E+03  0.15520706916E+03  0.47000000000E+01 0. -1.
        -11    1    6    6    0    0  0.75981613610E+02  0.11978269748E+03  0.15289702921E+03  0.20856318410E+03  0.00000000000E+00 0.  1.
         12    1    6    6    0    0  0.78696751228E+01  0.32854354808E+02 -0.26394191294E+01  0.33886678057E+02  0.00000000000E+00 0. -1.
         -5    1    3    3    0  503 -0.72656545847E+02 -0.12420062251E+03 -0.46776779390E+03  0.48942166615E+03  0.47000000000E+01 0.  1.
         13    1    4    4    0    0  0.21177562562E+01 -0.72570268351E+02 -0.59186731573E+03  0.59630348663E+03  0.00000000000E+00 0. -1.
        -14    1    4    4    0    0  0.33424901108E+01  0.16531396226E+02 -0.47923931243E+02  0.50805142329E+02  0.00000000000E+00 0.  1.
</event>
<event>
12    1  0.8406581E-002  0.1878931E+03  0.7818608E-02  0.1161652E+00
         21   -1    0    0  501  502  0.00000000000E+00  0.00000000000E+00  0.13983083359E+03  0.13983083359E+03  0.00000000000E+00 0. -1.
         21   -1    0    0  502  503 -0.00000000000E+00 -0.00000000000E+00 -0.27814538363E+03  0.27814538363E+03  0.00000000000E+00 0. -1.
         -6    2    1    2    0  503  0.10860034219E+02 -0.63011735964E+02 -0.14203410207E+03  0.23553658845E+03  0.17667874557E+03 0.  0.
        -24    2    3    3    0    0 -0.30353646633E+02  0.25508841198E+02 -0.65534670664E+02  0.11140475097E+03  0.80896110147E+02 0.  0.
          6    2    1    2  501    0 -0.10860034219E+02  0.63011735964E+02  0.37195520297E+01  0.18243962877E+03  0.17082729251E+03 0.  0.
         24    2    5    5    0    0  0.54879033593E+01  0.10670612130E+03  0.18273815908E+02  0.13334409975E+03  0.77655670637E+02 0.  0.
          5    1    5    5  501    0 -0.16347937578E+02 -0.43694385340E+02 -0.14554263878E+02  0.49095529026E+02  0.47000000000E+01 0. -1.
        -11    1    6    6    0    0  0.40845897081E+02  0.50721838489E+02  0.16143902684E+02  0.67094841843E+02  0.00000000000E+00 0.  1.
         12    1    6    6    0    0 -0.35357993721E+02  0.55984282816E+02  0.21299132242E+01  0.66249257903E+02  0.00000000000E+00 0. -1.
         -5    1    3    3    0  503  0.41213680852E+02 -0.88520577163E+02 -0.76499431404E+02  0.12413183748E+03  0.47000000000E+01 0.  1.
         13    1    4    4    0    0  0.24799589263E+02  0.49198529018E+01 -0.39807372185E+02  0.47157729594E+02  0.00000000000E+00 0. -1.
        -14    1    4    4    0    0 -0.55153235897E+02  0.20588988296E+02 -0.25727298478E+02  0.64247021378E+02  0.00000000000E+00 0.  1.
</event>
<event>
12    1  0.8406581E-002  0.2255176E+03  0.7818608E-02  0.1130008E+00
         21   -1    0    0  503  502  0.00000000000E+00  0.00000000000E+00  0.72973590138E+02  0.72973590138E+02  0.00000000000E+00 0. -1.
         21   -1    0    0  501  503 -0.00000000000E+00 -0.00000000000E+00 -0.80347676189E+03  0.80347676189E+03  0.00000000000E+00 0. -1.
          6    2    1    2  501    0  0.88121889352E+02 -0.11583896474E+03 -0.52634697153E+03  0.57224983445E+03  0.17101054192E+03 0.  0.
         24    2    3    3    0    0  0.87600743895E+02 -0.11588317394E+03 -0.53633498673E+03  0.56119886188E+03  0.78652045399E+02 0.  0.
         -6    2    1    2    0  502 -0.88121889352E+02  0.11583896474E+03 -0.20415620022E+03  0.30420051758E+03  0.17226162566E+03 0.  0.
        -24    2    5    5    0    0 -0.92238719799E+02  0.11871513816E+03 -0.93341564306E+02  0.19317261929E+03  0.77470947831E+02 0.  0.
          5    1    3    3  501    0  0.52114545687E+00  0.44209206484E-01  0.99880152003E+01  0.11050972567E+02  0.47000000000E+01 0. -1.
        -13    1    4    4    0    0 -0.42660276794E+01 -0.54501459101E+02 -0.18333046921E+03  0.19130778598E+03  0.00000000000E+00 0.  1.
         14    1    4    4    0    0  0.91866771575E+02 -0.61381714841E+02 -0.35300451753E+03  0.36989107590E+03  0.00000000000E+00 0. -1.
         -5    1    5    5    0  502  0.41168304467E+01 -0.28761734261E+01 -0.11081463591E+03  0.11102789829E+03  0.47000000000E+01 0.  1.
         13    1    6    6    0    0 -0.41906932388E+02  0.10804578853E+03 -0.77208082764E+02  0.13925218650E+03  0.00000000000E+00 0. -1.
        -14    1    6    6    0    0 -0.50331787410E+02  0.10669349630E+02 -0.16133481543E+02  0.53920432789E+02  0.00000000000E+00 0.  1.
</event>
<event>
12    1  0.8406581E-002  0.1909442E+03  0.7818608E-02  0.1158418E+00
         21   -1    0    0  503  502  0.00000000000E+00  0.00000000000E+00  0.13212798404E+04  0.13212798404E+04  0.00000000000E+00 0.  1.
         21   -1    0    0  501  503 -0.00000000000E+00 -0.00000000000E+00 -0.92540638451E+02  0.92540638451E+02  0.00000000000E+00 0.  1.
          6    2    1    2  501    0  0.74976459496E+02  0.36015388090E+02  0.18147719831E+02  0.18826288506E+03  0.16791365787E+03 0.  0.
         24    2    3    3    0    0  0.10246331949E+03  0.41312969962E+02  0.52032036912E+02  0.14406074948E+03  0.76424298155E+02 0.  0.
         -6    2    1    2    0  502 -0.74976459496E+02 -0.36015388090E+02  0.12105914821E+04  0.12255575938E+04  0.17187524972E+03 0.  0.
        -24    2    5    5    0    0 -0.71845770962E+02 -0.23952464062E+02  0.41480439134E+03  0.42965904549E+03  0.82514707497E+02 0.  0.
          5    1    3    3  501    0 -0.27486859990E+02 -0.52975818721E+01 -0.33884317081E+02  0.44202135580E+02  0.47000000000E+01 0. -1.
        -13    1    4    4    0    0  0.67032346658E+02  0.26066261111E+02 -0.83552176561E+01  0.72405767235E+02  0.00000000000E+00 0.  1.
         14    1    4    4    0    0  0.35430972828E+02  0.15246708851E+02  0.60387254568E+02  0.71654982245E+02  0.00000000000E+00 0. -1.
         -5    1    5    5    0  502 -0.31306885338E+01 -0.12062924027E+02  0.79578709080E+03  0.79589854832E+03  0.47000000000E+01 0.  1.
         13    1    6    6    0    0 -0.33876920306E+02 -0.45020009657E+02  0.32570254975E+03  0.33053985828E+03  0.00000000000E+00 0. -1.
        -14    1    6    6    0    0 -0.37968850656E+02  0.21067545595E+02  0.89101841596E+02  0.99119187211E+02  0.00000000000E+00 0.  1.
</event>
<event>
12    1  0.8406581E-002  0.1958834E+03  0.7818608E-02  0.1153880E+00
         21   -1    0    0  503  502  0.00000000000E+00  0.00000000000E+00  0.42533964729E+02  0.42533964729E+02  0.00000000000E+00 0. -1.
         21   -1    0    0  501  503 -0.00000000000E+00 -0.00000000000E+00 -0.11122606429E+04  0.11122606429E+04  0.00000000000E+00 0. -1.
          6    2    1    2  501    0 -0.69821353393E+00 -0.94018447270E+02 -0.79662562879E+03  0.82035522931E+03  0.17184398123E+03 0.  0.
         24    2    3    3    0    0 -0.53844088652E+02 -0.68518884707E+02 -0.34092480730E+03  0.36083369506E+03  0.79857421789E+02 0.  0.
         -6    2    1    2    0  502  0.69821353393E+00  0.94018447270E+02 -0.27310104940E+03  0.33443937833E+03  0.16859880981E+03 0.  0.
        -24    2    5    5    0    0 -0.25698705642E+02  0.12461172487E+03 -0.19231269499E+03  0.24398721316E+03  0.79731311822E+02 0.  0.
          5    1    3    3  501    0  0.53145875118E+02 -0.25499562563E+02 -0.45570082149E+03  0.45952153425E+03  0.47000000000E+01 0. -1.
        -11    1    4    4    0    0 -0.14296932521E+02 -0.56838425651E+02 -0.96112107076E+02  0.11257240353E+03  0.00000000000E+00 0.  1.
         12    1    4    4    0    0 -0.39547156130E+02 -0.11680459056E+02 -0.24481270022E+03  0.24826129153E+03  0.00000000000E+00 0. -1.
         -5    1    5    5    0  502  0.26396919176E+02 -0.30593277603E+02 -0.80788354407E+02  0.90452165172E+02  0.47000000000E+01 0.  1.
         13    1    6    6    0    0 -0.81635564707E+01 -0.69353431338E+01 -0.47859838796E+00  0.10722485488E+02  0.00000000000E+00 0. -1.
        -14    1    6    6    0    0 -0.17535149171E+02  0.13154706801E+03 -0.19183409660E+03  0.23326472767E+03  0.00000000000E+00 0.  1.
</event>
<event>
12    1  0.8406581E-002  0.2083771E+03  0.7818608E-02  0.1142891E+00
         21   -1    0    0  503  502  0.00000000000E+00  0.00000000000E+00  0.10714327991E+03  0.10714327991E+03  0.00000000000E+00 0.  1.
         21   -1    0    0  501  503 -0.00000000000E+00 -0.00000000000E+00 -0.47158731782E+03  0.47158731782E+03  0.00000000000E+00 0.  1.
          6    2    1    2  501    0  0.19495210128E+02 -0.11501557184E+03 -0.29094413442E+03  0.35777073057E+03  0.17246089792E+03 0.  0.
         24    2    3    3    0    0 -0.24509128455E+02 -0.98794646337E+01 -0.17990908247E+03  0.19858261664E+03  0.79808999972E+02 0.  0.
         -6    2    1    2    0  502 -0.19495210128E+02  0.11501557184E+03 -0.73499903489E+02  0.22095986716E+03  0.17266262508E+03 0.  0.
        -24    2    5    5    0    0 -0.78260381417E+02  0.67656189666E+02 -0.30094230825E+02  0.13376813099E+03  0.79285577763E+02 0.  0.
          5    1    3    3  501    0  0.44004338584E+02 -0.10513610721E+03 -0.11103505195E+03  0.15918811393E+03  0.47000000000E+01 0. -1.
        -13    1    4    4    0    0 -0.32013662427E+02 -0.40538662363E+02 -0.12491457354E+03  0.13517362321E+03  0.00000000000E+00 0.  1.
         14    1    4    4    0    0  0.75045339718E+01  0.30659197729E+02 -0.54994508933E+02  0.63408993434E+02  0.00000000000E+00 0. -1.
         -5    1    5    5    0  502  0.58765171289E+02  0.47359382178E+02 -0.43405672665E+02  0.87191736170E+02  0.47000000000E+01 0.  1.
         13    1    6    6    0    0  0.92875650131E+01 -0.21703542817E+01  0.10929983324E+02  0.14506337824E+02  0.00000000000E+00 0. -1.
        -14    1    6    6    0    0 -0.87547946430E+02  0.69826543948E+02 -0.41024214149E+02  0.11926179317E+03  0.00000000000E+00 0.  1.
</event>
<event>
12    1  0.8406581E-002  0.1800094E+03  0.7818608E-02  0.1167915E+00
         21   -1    0    0  501  502  0.00000000000E+00  0.00000000000E+00  0.63982758929E+02  0.63982758929E+02  0.00000000000E+00 0.  1.
         21   -1    0    0  502  503 -0.00000000000E+00 -0.00000000000E+00 -0.68472346475E+03  0.68472346475E+03  0.00000000000E+00 0.  1.
         -6    2    1    2    0  503 -0.23952776226E+02 -0.46150452618E+02 -0.50182357360E+03  0.53296412206E+03  0.17181459953E+03 0.  0.
        -24    2    3    3    0    0  0.20848251732E+02 -0.11673672881E+02 -0.11841312979E+03  0.14538001651E+03  0.80887302191E+02 0.  0.
          6    2    1    2  501    0  0.23952776226E+02  0.46150452618E+02 -0.11891713222E+03  0.21574210162E+03  0.17233621300E+03 0.  0.
         24    2    5    5    0    0 -0.14566731972E+02  0.13564413110E+02  0.22720356536E+01  0.84385689930E+02  0.81973163508E+02 0.  0.
          5    1    5    5  501    0  0.38519508199E+02  0.32586039508E+02 -0.12118916787E+03  0.13135641169E+03  0.47000000000E+01 0. -1.
        -13    1    6    6    0    0 -0.43134586191E+01  0.44952381379E+02 -0.14394817683E+02  0.47397608516E+02  0.00000000000E+00 0.  1.
         14    1    6    6    0    0 -0.10253273353E+02 -0.31387968269E+02  0.16666853337E+02  0.36988081414E+02  0.00000000000E+00 0. -1.
         -5    1    3    3    0  503 -0.44801027958E+02 -0.34476779737E+02 -0.38341044381E+03  0.38758410555E+03  0.47000000000E+01 0.  1.
         13    1    4    4    0    0 -0.30025068979E+02 -0.77567555819E+01 -0.29136379605E+02  0.42551153226E+02  0.00000000000E+00 0. -1.
        -14    1    4    4    0    0  0.50873320711E+02 -0.39169172995E+01 -0.89276750184E+02  0.10282886329E+03  0.00000000000E+00 0.  1.
</event>
<event>
12    1  0.8406581E-002  0.2038178E+03  0.7818608E-02  0.1147674E+00
         21   -1    0    0  501  502  0.00000000000E+00  0.00000000000E+00  0.87276248067E+02  0.87276248067E+02  0.00000000000E+00 0.  1.
         21   -1    0    0  502  503 -0.00000000000E+00 -0.00000000000E+00 -0.85882953061E+03  0.85882953061E+03  0.00000000000E+00 0.  1.
         -6    2    1    2    0  503  0.38521534927E+02  0.10128366745E+03 -0.70391388102E+03  0.73135754964E+03  0.16627333995E+03 0.  0.
        -24    2    3    3    0    0  0.33124303561E+02  0.10111249238E+03 -0.29888532753E+03  0.32626573468E+03  0.76131038413E+02 0.  0.
          6    2    1    2  501    0 -0.38521534927E+02 -0.10128366745E+03 -0.67639401521E+02  0.21474822903E+03  0.17262509462E+03 0.  0.
         24    2    5    5    0    0 -0.58813463706E+02 -0.13299070521E+03 -0.53809732130E+02  0.17436941809E+03  0.79772523511E+02 0.  0.
          5    1    5    5  501    0  0.20291928779E+02  0.31707037769E+02 -0.13829669391E+02  0.40378810942E+02  0.47000000000E+01 0. -1.
        -11    1    6    6    0    0 -0.32298556310E+02 -0.92724561867E+02  0.50090222540E+01  0.98316485988E+02  0.00000000000E+00 0.  1.
         12    1    6    6    0    0 -0.26514907396E+02 -0.40266143347E+02 -0.58818754384E+02  0.76052932104E+02  0.00000000000E+00 0. -1.
         -5    1    3    3    0  503  0.53972313659E+01  0.17117506433E+00 -0.40502855349E+03  0.40509181496E+03  0.47000000000E+01 0.  1.
         13    1    4    4    0    0  0.42851906739E+02  0.16991739221E+02 -0.10980066659E+03  0.11908480800E+03  0.00000000000E+00 0. -1.
        -14    1    4    4    0    0 -0.97276031781E+01  0.84120753161E+02 -0.18908466093E+03  0.20718092667E+03  0.00000000000E+00 0.  1.
</event>
<event>
12    1  0.8406581E-002  0.1855650E+03  0.7818608E-02  0.1163163E+00
         21   -1    0    0  503  502  0.00000000000E+00  0.00000000000E+00  0.33863837299E+02  0.33863837299E+02  0.00000000000E+00 0. -1.
         21   -1    0    0  501  503 -0.00000000000E+00 -0.00000000000E+00 -0.12077904819E+04  0.12077904819E+04  0.00000000000E+00 0. -1.
          6    2    1    2  501    0  0.65562982388E+02 -0.82002948798E+01 -0.84685518605E+03  0.86694756608E+03  0.17340307581E+03 0.  0.
         24    2    3    3    0    0  0.47132818618E+02 -0.71388923490E+02 -0.45680121420E+03  0.47135097272E+03  0.78654365446E+02 0.  0.
         -6    2    1    2    0  502 -0.65562982388E+02  0.82002948798E+01 -0.32707145856E+03  0.37470675312E+03  0.17048068025E+03 0.  0.
        -24    2    5    5    0    0 -0.17785581416E+01 -0.20865290627E+02 -0.27606530840E+03  0.28789098041E+03  0.78934393523E+02 0.  0.
          5    1    3    3  501    0  0.18430163770E+02  0.63188628610E+02 -0.39005397185E+03  0.39559659336E+03  0.47000000000E+01 0. -1.
        -13    1    4    4    0    0  0.10489384059E+02 -0.72736850644E+01 -0.52517547023E+01  0.13802702627E+02  0.00000000000E+00 0.  1.
         14    1    4    4    0    0  0.36643434560E+02 -0.64115238425E+02 -0.45154945950E+03  0.45754827010E+03  0.00000000000E+00 0. -1.
         -5    1    5    5    0  502 -0.63784424247E+02  0.29065585506E+02 -0.51006150162E+02  0.86815772713E+02  0.47000000000E+01 0.  1.
         13    1    6    6    0    0  0.11045251271E+02 -0.21061081611E+02 -0.18823627360E+02  0.30329782084E+02  0.00000000000E+00 0. -1.
        -14    1    6    6    0    0 -0.12823809413E+02  0.19579098432E+00 -0.25724168104E+03  0.25756119833E+03  0.00000000000E+00 0.  1.
</event>
<event>
12    1  0.8406581E-002  0.1976222E+03  0.7818608E-02  0.1155898E+00
         21   -1    0    0  501  502  0.00000000000E+00  0.00000000000E+00  0.12149764025E+04  0.12149764025E+04  0.00000000000E+00 0. -1.
         21   -1    0    0  502  503 -0.00000000000E+00 -0.00000000000E+00 -0.98777747812E+02  0.98777747812E+02  0.00000000000E+00 0. -1.
         -6    2    1    2    0  503 -0.19697265513E+02 -0.44246920248E+02  0.15148301909E+02  0.19820190518E+03  0.19159528164E+03 0.  0.
        -24    2    3    3    0    0 -0.12686483800E+02  0.13094130170E+02 -0.61329482181E+02  0.10224311933E+03  0.79749275538E+02 0.  0.
          6    2    1    2  501    0  0.19697265513E+02  0.44246920248E+02  0.11010503528E+04  0.11155522451E+04  0.17262433213E+03 0.  0.
         24    2    5    5    0    0 -0.36970397823E+02 -0.10910778426E+02  0.39227021953E+03  0.40235874889E+03  0.80813255584E+02 0.  0.
          5    1    5    5  501    0  0.56667663336E+02  0.55157698674E+02  0.70878013326E+03  0.71319349625E+03  0.47000000000E+01 0. -1.
        -11    1    6    6    0    0  0.18038962848E+02 -0.79536559675E+01  0.29831183908E+02  0.35757018293E+02  0.00000000000E+00 0.  1.
         12    1    6    6    0    0 -0.55009360671E+02 -0.29571224583E+01  0.36243903562E+03  0.36660173060E+03  0.00000000000E+00 0. -1.
         -5    1    3    3    0  503 -0.70107817127E+01 -0.57341050418E+02  0.76477784090E+02  0.95958785854E+02  0.47000000000E+01 0.  1.
         13    1    4    4    0    0  0.25236226757E+02 -0.40352495259E+01 -0.54337923159E+02  0.60047983087E+02  0.00000000000E+00 0. -1.
        -14    1    4    4    0    0 -0.37922710556E+02  0.17129379696E+02 -0.69915590227E+01  0.42195136239E+02  0.00000000000E+00 0.  1.
</event>
<event>
12    1  0.8406581E-002  0.2687580E+03  0.7818608E-02  0.1102072E+00
         21   -1    0    0  503  502  0.00000000000E+00  0.00000000000E+00  0.11133217116E+04  0.11133217116E+04  0.00000000000E+00 0.  1.
         21   -1    0    0  501  503 -0.00000000000E+00 -0.00000000000E+00 -0.27846429434E+03  0.27846429434E+03  0.00000000000E+00 0. -1.
          6    2    1    2  501    0  0.12433126549E+03  0.16436858654E+03 -0.19211962429E+03  0.33036468136E+03  0.17249804878E+03 0.  0.
         24    2    3    3    0    0 -0.12359138847E-02  0.89509536136E+02 -0.59736220033E+02  0.13387065077E+03  0.79630258655E+02 0.  0.
         -6    2    1    2    0  502 -0.12433126549E+03 -0.16436858654E+03  0.10269770416E+04  0.10614213246E+04  0.17163358813E+03 0.  0.
        -24    2    5    5    0    0 -0.10222487464E+03 -0.13747992634E+03  0.53162487149E+03  0.56482535707E+03  0.83976335097E+02 0.  0.
          5    1    3    3  501    0  0.12433250141E+03  0.74859050407E+02 -0.13238340426E+03  0.19649403059E+03  0.47000000000E+01 0. -1.
        -11    1    4    4    0    0 -0.35363233044E+02  0.25521484061E+02 -0.37327861440E+02  0.57404474039E+02  0.00000000000E+00 0.  1.
         12    1    4    4    0    0  0.35361997130E+02  0.63988052075E+02 -0.22408358592E+02  0.76466176733E+02  0.00000000000E+00 0. -1.
         -5    1    5    5    0  502 -0.22106390850E+02 -0.26888660204E+02  0.49535217007E+03  0.49659596752E+03  0.47000000000E+01 0.  1.
         11    1    6    6    0    0 -0.99933695267E+02 -0.77953105114E+02  0.30023505988E+03  0.32589035154E+03  0.00000000000E+00 0. -1.
        -12    1    6    6    0    0 -0.22911793746E+01 -0.59526821225E+02  0.23138981161E+03  0.23893500553E+03  0.00000000000E+00 0.  1.
</event>
<event>
12    1  0.8406581E-002  0.2189692E+03  0.7818608E-02  0.1135376E+00
         21   -1    0    0  501  502  0.00000000000E+00  0.00000000000E+00  0.72291904329E+02  0.72291904329E+02  0.00000000000E+00 0.  1.
         21   -1    0    0  502  503 -0.00000000000E+00 -0.00000000000E+00 -0.65313663086E+03  0.65313663086E+03  0.00000000000E+00 0.  1.
         -6    2    1    2    0  503  0.13633094410E+03  0.38071180202E+02 -0.30461115178E+03  0.37293386853E+03  0.16203757413E+03 0.  0.
        -24    2    3    3    0    0  0.66742961805E+02  0.79718503764E+02 -0.16069105956E+03  0.20767023132E+03  0.80595567882E+02 0.  0.
          6    2    1    2  501    0 -0.13633094410E+03 -0.38071180202E+02 -0.27623357476E+03  0.35249466666E+03  0.16706873172E+03 0.  0.
         24    2    5    5    0    0 -0.10052145848E+03 -0.71494538151E+02 -0.26314332963E+03  0.30157429123E+03  0.80539484712E+02 0.  0.
          5    1    5    5  501    0 -0.35809485615E+02  0.33423357949E+02 -0.13090245122E+02  0.50920375430E+02  0.47000000000E+01 0. -1.
        -11    1    6    6    0    0 -0.28696174917E+02  0.12910592020E+02 -0.30220781980E+02  0.43628540024E+02  0.00000000000E+00 0.  1.
         12    1    6    6    0    0 -0.71825283568E+02 -0.84405130171E+02 -0.23292254765E+03  0.25794575120E+03  0.00000000000E+00 0. -1.
         -5    1    3    3    0  503  0.69587982294E+02 -0.41647323562E+02 -0.14392009222E+03  0.16526363721E+03  0.47000000000E+01 0.  1.
         11    1    4    4    0    0 -0.85491022539E+01  0.66552966755E+01  0.46999992054E+01  0.11809746641E+02  0.00000000000E+00 0. -1.
        -12    1    4    4    0    0  0.75292064059E+02  0.73063207089E+02 -0.16539105877E+03  0.19586048468E+03  0.00000000000E+00 0.  1.
</event>
<event>
12    1  0.8406581E-002  0.1951259E+03  0.7818608E-02  0.1153959E+00
         21   -1    0    0  503  502  0.00000000000E+00  0.00000000000E+00  0.27683258913E+03  0.27683258913E+03  0.00000000000E+00 0.  1.
         21   -1    0    0  501  503 -0.00000000000E+00 -0.00000000000E+00 -0.24093424112E+03  0.24093424112E+03  0.00000000000E+00 0.  1.
          6    2    1    2  501    0 -0.91236245975E+02  0.13382833540E+02 -0.15175136825E+03  0.24718936292E+03  0.17196206140E+03 0.  0.
         24    2    3    3    0    0 -0.96896010272E+02  0.28824470767E+02 -0.17540004002E+03  0.21800329144E+03  0.80873816021E+02 0.  0.
         -6    2    1    2    0  502  0.91236245975E+02 -0.13382833540E+02  0.18764971625E+03  0.27057746733E+03  0.17174573359E+03 0.  0.
        -24    2    5    5    0    0  0.11251611458E+03 -0.27950084838E+02  0.19703253464E+03  0.24273568400E+03  0.81594787180E+02 0.  0.
          5    1    3    3  501    0  0.56597642969E+01 -0.15441637227E+02  0.23648671770E+02  0.29186071483E+02  0.47000000000E+01 0. -1.
        -11    1    4    4    0    0 -0.30259112393E+02  0.93481669814E+01 -0.25978842231E+01  0.31776581175E+02  0.00000000000E+00 0.  1.
         12    1    4    4    0    0 -0.66636897879E+02  0.19476303785E+02 -0.17280215579E+03  0.18622671026E+03  0.00000000000E+00 0. -1.
         -5    1    5    5    0  502 -0.21279868606E+02  0.14567251298E+02 -0.93828183920E+01  0.27841783335E+02  0.47000000000E+01 0.  1.
         11    1    6    6    0    0 -0.81750197925E+01 -0.16123138530E+02  0.43356874065E+02  0.46974515148E+02  0.00000000000E+00 0. -1.
        -12    1    6    6    0    0  0.12069113437E+03 -0.11826946308E+02  0.15367566058E+03  0.19576116885E+03  0.00000000000E+00 0.  1.
</event>
<event>
12    1  0.8406581E-002  0.1735508E+03  0.7818608E-02  0.1174403E+00
         21   -1    0    0  503  502  0.00000000000E+00  0.00000000000E+00  0.25641919925E+03  0.25641919925E+03  0.00000000000E+00 0. -1.
         21   -1    0    0  501  503 -0.00000000000E+00 -0.00000000000E+00 -0.11838958775E+03  0.11838958775E+03  0.00000000000E+00 0. -1.
          6    2    1    2  501    0  0.13024770287E+02 -0.49416577811E+01  0.47903474324E+02  0.17925159354E+03  0.17216946974E+03 0.  0.
         24    2    3    3    0    0  0.52201825262E+02  0.11949629581E+01 -0.23357240249E+02  0.97565124696E+02  0.79037550491E+02 0.  0.
         -6    2    1    2    0  502 -0.13024770287E+02  0.49416577811E+01  0.90126137179E+02  0.19555719346E+03  0.17299083989E+03 0.  0.
        -24    2    5    5    0    0 -0.63376588108E+02  0.34255904090E+02  0.29572006164E+02  0.11139352328E+03  0.79648945975E+02 0.  0.
          5    1    3    3  501    0 -0.39177054975E+02 -0.61366207392E+01  0.71260714573E+02  0.81686468844E+02  0.47000000000E+01 0. -1.
        -11    1    4    4    0    0  0.46086786447E-01 -0.29937097114E+02  0.53016429334E+01  0.30402949288E+02  0.00000000000E+00 0.  1.
         12    1    4    4    0    0  0.52155738476E+02  0.31132060072E+02 -0.28658883183E+02  0.67162175408E+02  0.00000000000E+00 0. -1.
         -5    1    5    5    0  502  0.50351817821E+02 -0.29314246309E+02  0.60554131015E+02  0.84163670176E+02  0.47000000000E+01 0.  1.
         11    1    6    6    0    0 -0.33357158433E+00 -0.60389475107E+01 -0.20493718993E+02  0.21367561283E+02  0.00000000000E+00 0. -1.
        -12    1    6    6    0    0 -0.63043016523E+02  0.40294851601E+02  0.50065725157E+02  0.90025961997E+02  0.00000000000E+00 0.  1.
</event>
<event>
12    1  0.8406581E-002  0.1978263E+03  0.7818608E-02  0.1152947E+00
         21   -1    0    0  501  502  0.00000000000E+00  0.00000000000E+00  0.14331451127E+04  0.14331451127E+04  0.00000000000E+00 0.  1.
         21   -1    0    0  502  503 -0.00000000000E+00 -0.00000000000E+00 -0.40234122681E+02  0.40234122681E+02  0.00000000000E+00 0. -1.
         -6    2    1    2    0  503  0.82136045875E+02 -0.50329278130E+02  0.11202478979E+04  0.11365107047E+04  0.16559547969E+03 0.  0.
        -24    2    3    3    0    0  0.11322478696E+03 -0.18298883735E+02  0.95957885468E+03  0.96969018008E+03  0.79704237466E+02 0.  0.
          6    2    1    2  501    0 -0.82136045875E+02  0.50329278130E+02  0.27266309212E+03  0.33686853067E+03  0.17278853807E+03 0.  0.
         24    2    5    5    0    0 -0.99113769822E+02 -0.12119473141E+02  0.18523433914E+03  0.22799260821E+03  0.87740800106E+02 0.  0.
          5    1    5    5  501    0  0.16977723947E+02  0.62448751271E+02  0.87428752971E+02  0.10887592246E+03  0.47000000000E+01 0. -1.
        -11    1    6    6    0    0 -0.53795521903E+02 -0.48781685536E+02  0.12210073399E+03  0.14206407097E+03  0.00000000000E+00 0.  1.
         12    1    6    6    0    0 -0.45318247919E+02  0.36662212394E+02  0.63133605152E+02  0.85928537237E+02  0.00000000000E+00 0. -1.
         -5    1    3    3    0  503 -0.31088741080E+02 -0.32030394395E+02  0.16066904325E+03  0.16682052466E+03  0.47000000000E+01 0.  1.
         13    1    4    4    0    0  0.97548724487E+02  0.18123649917E+02  0.63641561512E+03  0.64410329568E+03  0.00000000000E+00 0. -1.
        -14    1    4    4    0    0  0.15676062468E+02 -0.36422533652E+02  0.32316323956E+03  0.32558688440E+03  0.00000000000E+00 0.  1.
</event>
<event>
12    1  0.8406581E-002  0.2243578E+03  0.7818608E-02  0.1130801E+00
         21   -1    0    0  503  502  0.00000000000E+00  0.00000000000E+00  0.46788884899E+03  0.46788884899E+03  0.00000000000E+00 0. -1.
         21   -1    0    0  501  503 -0.00000000000E+00 -0.00000000000E+00 -0.13373407192E+03  0.13373407192E+03  0.00000000000E+00 0. -1.
          6    2    1    2  501    0  0.18147599480E+02  0.14222073062E+03  0.33423998529E+02  0.22683378815E+03  0.17256978932E+03 0.  0.
         24    2    3    3    0    0  0.57919963887E+02  0.62998204708E+02 -0.22003407934E+02  0.12218037460E+03  0.84382450562E+02 0.  0.
         -6    2    1    2    0  502 -0.18147599480E+02 -0.14222073062E+03  0.30073077854E+03  0.37478913275E+03  0.17167358935E+03 0.  0.
        -24    2    5    5    0    0 -0.18405606248E+01 -0.16724001913E+03  0.28844042368E+03  0.34215437924E+03  0.76805791195E+02 0.  0.
          5    1    3    3  501    0 -0.39772364407E+02  0.79222525910E+02  0.55427406463E+02  0.10465341356E+03  0.47000000000E+01 0. -1.
        -11    1    4    4    0    0  0.14777736805E+02 -0.19796657377E+02  0.45441048876E+01  0.25118480002E+02  0.00000000000E+00 0.  1.
         12    1    4    4    0    0  0.43142227082E+02  0.82794862085E+02 -0.26547512821E+02  0.97061894594E+02  0.00000000000E+00 0. -1.
         -5    1    5    5    0  502 -0.16307038856E+02  0.25019288512E+02  0.12290354866E+02  0.32634753510E+02  0.47000000000E+01 0.  1.
         11    1    6    6    0    0  0.19556132405E+02 -0.38061750791E+02  0.29451512033E+02  0.51947384429E+02  0.00000000000E+00 0. -1.
        -12    1    6    6    0    0 -0.21396693030E+02 -0.12917826834E+03  0.25898891165E+03  0.29020699481E+03  0.00000000000E+00 0.  1.
</event>
<event>
12    1  0.8406581E-002  0.2164519E+03  0.7818608E-02  0.1136640E+00
         21   -1    0    0  501  502  0.00000000000E+00  0.00000000000E+00  0.14494813696E+03  0.14494813696E+03  0.00000000000E+00 0. -1.
         21   -1    0    0  502  503 -0.00000000000E+00 -0.00000000000E+00 -0.32381924917E+03  0.32381924917E+03  0.00000000000E+00 0. -1.
         -6    2    1    2    0  503  0.12362901678E+03  0.44809918620E+02 -0.74793101352E+02  0.22859317870E+03  0.17137319143E+03 0.  0.
        -24    2    3    3    0    0  0.94282412863E+02  0.95613123716E+02 -0.64783950276E+02  0.16889006392E+03  0.79346396733E+02 0.  0.
          6    2    1    2  501    0 -0.12362901678E+03 -0.44809918620E+02 -0.10407801086E+03  0.24017420743E+03  0.17192834256E+03 0.  0.
         24    2    5    5    0    0 -0.10498372673E+03 -0.77517006702E+02 -0.12488270515E+03  0.19690382776E+03  0.78389783360E+02 0.  0.
          5    1    5    5  501    0 -0.18645290057E+02  0.32707088082E+02  0.20804694296E+02  0.43270379671E+02  0.47000000000E+01 0. -1.
        -13    1    6    6    0    0 -0.54346915106E+01  0.14813284803E+02 -0.77196098275E+01  0.17565923100E+02  0.00000000000E+00 0.  1.
         14    1    6    6    0    0 -0.99549035215E+02 -0.92330291505E+02 -0.11716309533E+03  0.17933790466E+03  0.00000000000E+00 0. -1.
         -5    1    3    3    0  503  0.29346603920E+02 -0.50803205096E+02 -0.10009151076E+02  0.59703114784E+02  0.47000000000E+01 0.  1.
         11    1    4    4    0    0  0.76889436472E+01  0.20085024859E+02  0.17364087613E+02  0.27641266553E+02  0.00000000000E+00 0. -1.
        -12    1    4    4    0    0  0.86593469216E+02  0.75528098857E+02 -0.82148037889E+02  0.14124879736E+03  0.00000000000E+00 0.  1.
</event>
<event>
12    1  0.8406581E-002  0.1729761E+03  0.7818608E-02  0.1174884E+00
         21   -1    0    0  501  502  0.00000000000E+00  0.00000000000E+00  0.14208689192E+03  0.14208689192E+03  0.00000000000E+00 0.  1.
         21   -1    0    0  502  503 -0.00000000000E+00 -0.00000000000E+00 -0.23781850419E+03  0.23781850419E+03  0.00000000000E+00 0.  1.
         -6    2    1    2    0  503  0.13001433181E+02 -0.70863985320E+01  0.16956022863E+02  0.17380519311E+03  0.17234118525E+03 0.  0.
        -24    2    3    3    0    0 -0.12220586290E+02 -0.57650618233E+02 -0.27855975194E+02  0.10153420481E+03  0.77847947186E+02 0.  0.
          6    2    1    2  501    0 -0.13001433181E+02  0.70863985320E+01 -0.11268763513E+03  0.20610020300E+03  0.17192886975E+03 0.  0.
         24    2    5    5    0    0 -0.47980787007E+02  0.54619729586E+02 -0.44623835136E+02  0.11589075989E+03  0.78446865996E+02 0.  0.
          5    1    5    5  501    0  0.34979353826E+02 -0.47533331054E+02 -0.68063799996E+02  0.90209443104E+02  0.47000000000E+01 0. -1.
        -11    1    6    6    0    0 -0.18129223923E+02 -0.15536582342E+02 -0.29859049469E+02  0.38231099724E+02  0.00000000000E+00 0.  1.
         12    1    6    6    0    0 -0.29851563084E+02  0.70156311928E+02 -0.14764785667E+02  0.77659660169E+02  0.00000000000E+00 0. -1.
         -5    1    3    3    0  503  0.25222019472E+02  0.50564219701E+02  0.44811998057E+02  0.72270988302E+02  0.47000000000E+01 0.  1.
         13    1    4    4    0    0 -0.45285717521E+02 -0.37750908837E+02 -0.14700928386E+02  0.60762197334E+02  0.00000000000E+00 0. -1.
        -14    1    4    4    0    0  0.33065131231E+02 -0.19899709396E+02 -0.13155046808E+02  0.40772007479E+02  0.00000000000E+00 0.  1.
</event>
<event>
12    1  0.8406581E-002  0.1884329E+03  0.7818608E-02  0.1160192E+00
         21   -1    0    0  501  502  0.00000000000E+00  0.00000000000E+00  0.39053575592E+03  0.39053575592E+03  0.00000000000E+00 0. -1.
         21   -1    0    0  502  503 -0.00000000000E+00 -0.00000000000E+00 -0.96359109839E+02  0.96359109839E+02  0.00000000000E+00 0. -1.
         -6    2    1    2    0  503  0.17471870132E+02 -0.72585372933E+02  0.20780261719E+03  0.27960903825E+03  0.17153828713E+03 0.  0.
        -24    2    3    3    0    0  0.69171084053E+02 -0.59241216970E+02  0.99897231552E+02  0.15912444393E+03  0.83946239513E+02 0.  0.
          6    2    1    2  501    0 -0.17471870132E+02  0.72585372933E+02  0.86374028893E+02  0.20728582751E+03  0.17301167246E+03 0.  0.
         24    2    5    5    0    0  0.38343879780E+02  0.18816317182E+02 -0.12224994643E+02  0.81785362421E+02  0.68666499135E+02 0.  0.
          5    1    5    5  501    0 -0.55815749912E+02  0.53769055751E+02  0.98599023536E+02  0.12550046509E+03  0.47000000000E+01 0. -1.
        -11    1    6    6    0    0 -0.11469518641E+02 -0.11580818567E+02  0.10246852522E+02  0.19252615488E+02  0.00000000000E+00 0.  1.
         12    1    6    6    0    0  0.49813398420E+02  0.30397135749E+02 -0.22471847165E+02  0.62532746933E+02  0.00000000000E+00 0. -1.
         -5    1    3    3    0  503 -0.51699213921E+02 -0.13344155964E+02  0.10790538564E+03  0.12048459432E+03  0.47000000000E+01 0.  1.
         13    1    4    4    0    0  0.37543748177E+02 -0.69601216288E+02  0.97807151609E+02  0.12577798393E+03  0.00000000000E+00 0. -1.
        -14    1    4    4    0    0  0.31627335876E+02  0.10359999319E+02  0.20900799422E+01  0.33346460002E+02  0.00000000000E+00 0.  1.
</event>
<event>
12    1  0.8406581E-002  0.1862535E+03  0.7818608E-02  0.1163336E+00
         21   -1    0    0  501  502  0.00000000000E+00  0.00000000000E+00  0.66209795276E+02  0.66209795276E+02  0.00000000000E+00 0. -1.
         21   -1    0    0  502  503 -0.00000000000E+00 -0.00000000000E+00 -0.71837069365E+03  0.71837069365E+03  0.00000000000E+00 0. -1.
         -6    2    1    2    0  503  0.60125422164E+01  0.69898293926E+02 -0.53510558694E+03  0.56459792535E+03  0.16586411903E+03 0.  0.
        -24    2    3    3    0    0  0.13417709584E+02  0.29891364548E+02 -0.50904088433E+03  0.51605052971E+03  0.78179272737E+02 0.  0.
          6    2    1    2  501    0 -0.60125422164E+01 -0.69898293926E+02 -0.11705531144E+03  0.21998256357E+03  0.17253538821E+03 0.  0.
         24    2    5    5    0    0  0.14528906247E+02 -0.93404013996E+02 -0.13535388704E+03  0.18349423873E+03  0.80087839040E+02 0.  0.
          5    1    5    5  501    0 -0.20541448463E+02  0.23505720070E+02  0.18298575604E+02  0.36488324846E+02  0.47000000000E+01 0. -1.
        -13    1    6    6    0    0  0.18326221650E+02 -0.35538841687E+02 -0.11545879715E+03  0.12218671576E+03  0.00000000000E+00 0.  1.
         14    1    6    6    0    0 -0.37973154036E+01 -0.57865172309E+02 -0.19895089887E+02  0.61307522966E+02  0.00000000000E+00 0. -1.
         -5    1    3    3    0  503 -0.74051673680E+01  0.40006929377E+02 -0.26064702608E+02  0.48547395646E+02  0.47000000000E+01 0.  1.
         11    1    4    4    0    0  0.39279404880E+02  0.38535107494E+02 -0.27696349864E+03  0.28237670891E+03  0.00000000000E+00 0. -1.
        -12    1    4    4    0    0 -0.25861695296E+02 -0.86437429457E+01 -0.23207738569E+03  0.23367382080E+03  0.00000000000E+00 0.  1.
</event>
<event>
12    1  0.8406581E-002  0.1894560E+03  0.7818608E-02  0.1159926E+00
         21   -1    0    0  503  502  0.00000000000E+00  0.00000000000E+00  0.21263745451E+03  0.21263745451E+03  0.00000000000E+00 0.  1.
         21   -1    0    0  501  503 -0.00000000000E+00 -0.00000000000E+00 -0.18301757956E+03  0.18301757956E+03  0.00000000000E+00 0.  1.
          6    2    1    2  501    0  0.49070365446E+02  0.63508854488E+02 -0.47345364959E+02  0.19116240486E+03  0.16691376841E+03 0.  0.
         24    2    3    3    0    0  0.24806842485E+02  0.10231826060E+03 -0.57863220751E+02  0.14396490663E+03  0.79330549841E+02 0.  0.
         -6    2    1    2    0  502 -0.49070365446E+02 -0.63508854488E+02  0.76965239907E+02  0.20449262922E+03  0.17161675876E+03 0.  0.
        -24    2    5    5    0    0 -0.83065404510E+02 -0.47983663110E+02  0.10084064788E+03  0.15989644828E+03  0.78713052010E+02 0.  0.
          5    1    3    3  501    0  0.24263522961E+02 -0.38809406110E+02  0.10517855792E+02  0.47197498234E+02  0.47000000000E+01 0. -1.
        -13    1    4    4    0    0 -0.10617477196E+02  0.93981705929E+01  0.15032848764E+02  0.20665018133E+02  0.00000000000E+00 0.  1.
         14    1    4    4    0    0  0.35424319681E+02  0.92920090006E+02 -0.72896069515E+02  0.12329988849E+03  0.00000000000E+00 0. -1.
         -5    1    5    5    0  502  0.33995039064E+02 -0.15525191378E+02 -0.23875407970E+02  0.44596180936E+02  0.47000000000E+01 0.  1.
         13    1    6    6    0    0 -0.95683083810E+02 -0.31751399237E+02  0.69628895462E+02  0.12252178159E+03  0.00000000000E+00 0. -1.
        -14    1    6    6    0    0  0.12617679301E+02 -0.16232263872E+02  0.31211752416E+02  0.37374666690E+02  0.00000000000E+00 0.  1.
</event>
<event>
12    1  0.8406581E-002  0.1847443E+03  0.7818608E-02  0.1163385E+00
         21   -1    0    0  501  502  0.00000000000E+00  0.00000000000E+00  0.41709234201E+03  0.41709234201E+03  0.00000000000E+00 0.  1.
         21   -1    0    0  502  503 -0.00000000000E+00 -0.00000000000E+00 -0.12069328166E+03  0.12069328166E+03  0.00000000000E+00 0.  1.
         -6    2    1    2    0  503 -0.58449216257E+02 -0.32469926237E+02 -0.48542711143E+01  0.18439629007E+03  0.17177840625E+03 0.  0.
        -24    2    3    3    0    0 -0.93752030677E+02 -0.57194221836E+02  0.15060493058E+02  0.13668604661E+03  0.79972711723E+02 0.  0.
          6    2    1    2  501    0  0.58449216257E+02  0.32469926237E+02  0.30125333146E+03  0.35338933360E+03  0.17222033676E+03 0.  0.
         24    2    5    5    0    0  0.81748628252E+02  0.66288424670E+01  0.29801879163E+03  0.31813062605E+03  0.75266960167E+02 0.  0.
          5    1    5    5  501    0 -0.23299411995E+02  0.25841083770E+02  0.32345398266E+01  0.35258707543E+02  0.47000000000E+01 0. -1.
        -13    1    6    6    0    0  0.31138365923E+02 -0.32063503956E+02  0.15987396631E+03  0.16600406989E+03  0.00000000000E+00 0.  1.
         14    1    6    6    0    0  0.50610262328E+02  0.38692346423E+02  0.13814482533E+03  0.15212655616E+03  0.00000000000E+00 0. -1.
         -5    1    3    3    0  503  0.35302814420E+02  0.24724295599E+02 -0.19914764173E+02  0.47710243459E+02  0.47000000000E+01 0.  1.
         11    1    4    4    0    0 -0.40074007840E+02 -0.20123334680E+02  0.46213965844E+02  0.64394140588E+02  0.00000000000E+00 0. -1.
        -12    1    4    4    0    0 -0.53678022837E+02 -0.37070887156E+02 -0.31153472786E+02  0.72291906026E+02  0.00000000000E+00 0.  1.
</event>
<event>
12    1  0.8406581E-002  0.1983860E+03  0.7818608E-02  0.1151316E+00
         21   -1    0    0  501  502  0.00000000000E+00  0.00000000000E+00  0.36743137617E+02  0.36743137617E+02  0.00000000000E+00 0. -1.
         21   -1    0    0  502  503 -0.00000000000E+00 -0.00000000000E+00 -0.18287748250E+04  0.18287748250E+04  0.00000000000E+00 0. -1.
         -6    2    1    2    0  503 -0.47963528260E+02  0.86924854974E+02 -0.14971761754E+04  0.15101354013E+04  0.17063411028E+03 0.  0.
        -24    2    3    3    0    0 -0.94074786770E+02  0.56849413113E+02 -0.12210697972E+04  0.12285548578E+04  0.79080135446E+02 0.  0.
          6    2    1    2  501    0  0.47963528260E+02 -0.86924854974E+02 -0.29485551201E+03  0.35538256135E+03  0.17175727494E+03 0.  0.
         24    2    5    5    0    0  0.37974241843E+02 -0.10280044353E+03 -0.12513263999E+03  0.18456170945E+03  0.79967948420E+02 0.  0.
          5    1    5    5  501    0  0.99892864169E+01  0.15875588552E+02 -0.16972287203E+03  0.17082085190E+03  0.47000000000E+01 0. -1.
        -11    1    6    6    0    0 -0.23717386571E+02 -0.37781121181E+02 -0.54613932751E+02  0.70516729887E+02  0.00000000000E+00 0.  1.
         12    1    6    6    0    0  0.61691628414E+02 -0.65019322345E+02 -0.70518707235E+02  0.11404497957E+03  0.00000000000E+00 0. -1.
         -5    1    3    3    0  503  0.46111258511E+02  0.30075441861E+02 -0.27610637818E+03  0.28158054343E+03  0.47000000000E+01 0.  1.
         11    1    4    4    0    0 -0.33742237953E+02 -0.12925292789E+02 -0.54853870745E+03  0.54972749193E+03  0.00000000000E+00 0. -1.
        -12    1    4    4    0    0 -0.60332548818E+02  0.69774705902E+02 -0.67253108976E+03  0.67882736592E+03  0.00000000000E+00 0.  1.
</event>
<event>
12    1  0.8406581E-002  0.2137557E+03  0.7818608E-02  0.1139131E+00
         21   -1    0    0  503  502  0.00000000000E+00  0.00000000000E+00  0.21975683939E+02  0.21975683939E+02  0.00000000000E+00 0.  1.
         21   -1    0    0  501  503 -0.00000000000E+00 -0.00000000000E+00 -0.34286393733E+04  0.34286393733E+04  0.00000000000E+00 0.  1.
          6    2    1    2  501    0  0.61036234410E+02 -0.10394608686E+03 -0.27895272053E+04  0.27975079210E+04  0.17337337885E+03 0.  0.
         24    2    3    3    0    0  0.12383570965E+02 -0.46379102238E+02 -0.62744437491E+03  0.63410659566E+03  0.78104782763E+02 0.  0.
         -6    2    1    2    0  502 -0.61036234410E+02  0.10394608686E+03 -0.61713648408E+03  0.65310713619E+03  0.17652558020E+03 0.  0.
        -24    2    5    5    0    0 -0.10819216371E+03  0.84457593797E+02 -0.50639019420E+03  0.53108126289E+03  0.82326481601E+02 0.  0.
          5    1    3    3  501    0  0.48652663445E+02 -0.57566984621E+02 -0.21620828303E+04  0.21634013254E+04  0.47000000000E+01 0. -1.
        -13    1    4    4    0    0 -0.29890449769E+02 -0.39644920738E+01 -0.15730658952E+03  0.16017028218E+03  0.00000000000E+00 0.  1.
         14    1    4    4    0    0  0.42274020733E+02 -0.42414610164E+02 -0.47013778539E+03  0.47393631348E+03  0.00000000000E+00 0. -1.
         -5    1    5    5    0  502  0.47155929303E+02  0.19488493062E+02 -0.11074628989E+03  0.12202587330E+03  0.47000000000E+01 0.  1.
         11    1    6    6    0    0 -0.74156356889E+02  0.82056212654E+02 -0.46221536765E+03  0.47526354099E+03  0.00000000000E+00 0. -1.
        -12    1    6    6    0    0 -0.34035806824E+02  0.24013811435E+01 -0.44174826552E+02  0.55817721903E+02  0.00000000000E+00 0.  1.
</event>
<event>
12    1  0.8406581E-002  0.2047002E+03  0.7818608E-02  0.1146218E+00
         21   -1    0    0  501  502  0.00000000000E+00  0.00000000000E+00  0.20280516207E+03  0.20280516207E+03  0.00000000000E+00 0. -1.
         21   -1    0    0  502  503 -0.00000000000E+00 -0.00000000000E+00 -0.46280186440E+03  0.46280186440E+03  0.00000000000E+00 0. -1.
         -6    2    1    2    0  503  0.10847336715E+03  0.19949132476E+02 -0.37825443887E+03  0.42920261371E+03  0.17021757791E+03 0.  0.
        -24    2    3    3    0    0  0.34491817784E+02  0.47965670339E+02 -0.31186422182E+03  0.32582008637E+03  0.73546208656E+02 0.  0.
          6    2    1    2  501    0 -0.10847336715E+03 -0.19949132476E+02  0.11825773654E+03  0.23640441276E+03  0.17244626657E+03 0.  0.
         24    2    5    5    0    0 -0.55478132571E+01  0.13748783963E+01  0.10095225052E+03  0.12977443138E+03  0.81347265668E+02 0.  0.
          5    1    5    5  501    0 -0.10292555389E+03 -0.21324010873E+02  0.17305486013E+02  0.10662998138E+03  0.47000000000E+01 0. -1.
        -11    1    6    6    0    0 -0.36151673528E+02 -0.14810919558E+02  0.80715475464E+02  0.89673267011E+02  0.00000000000E+00 0.  1.
         12    1    6    6    0    0  0.30603860271E+02  0.16185797954E+02  0.20236775060E+02  0.40101164369E+02  0.00000000000E+00 0. -1.
         -5    1    3    3    0  503  0.73981549362E+02 -0.28016537863E+02 -0.66390217048E+02  0.10338252734E+03  0.47000000000E+01 0.  1.
         11    1    4    4    0    0  0.57357295271E+02  0.28612912124E+02 -0.20044640294E+03  0.21044552386E+03  0.00000000000E+00 0. -1.
        -12    1    4    4    0    0 -0.22865477487E+02  0.19352758216E+02 -0.11141781888E+03  0.11537456251E+03  0.00000000000E+00 0.  1.
</event>
<event>
12    1  0.8406581E-002  0.1820671E+03  0.7818608E-02  0.1166473E+00
         21   -1    0    0  501  502  0.00000000000E+00  0.00000000000E+00  0.59490177794E+03  0.59490177794E+03  0.00000000000E+00 0. -1.
         21   -1    0    0  502  503 -0.00000000000E+00 -0.00000000000E+00 -0.14701267229E+03  0.14701267229E+03  0.00000000000E+00 0. -1.
         -6    2    1    2    0  503  0.39531205692E+02 -0.47285224669E+02 -0.70334979109E+02  0.19263798964E+03  0.16841548940E+03 0.  0.
        -24    2    3    3    0    0  0.50800316839E+02  0.20467913310E+02 -0.77377720911E+02  0.12343415460E+03  0.79051066802E+02 0.  0.
          6    2    1    2  501    0 -0.39531205692E+02  0.47285224669E+02  0.51822408477E+03  0.54927646059E+03  0.17131788999E+03 0.  0.
         24    2    5    5    0    0  0.16883654724E+02  0.47574633003E+02  0.45431500503E+03  0.46389976175E+03  0.79072508801E+02 0.  0.
          5    1    5    5  501    0 -0.56414860416E+02 -0.28940833439E+00  0.63909079732E+02  0.85376698842E+02  0.47000000000E+01 0. -1.
        -11    1    6    6    0    0  0.33691595681E+02 -0.79110315936E+01  0.13506790598E+03  0.13943115601E+03  0.00000000000E+00 0.  1.
         12    1    6    6    0    0 -0.16807940956E+02  0.55485664597E+02  0.31924709906E+03  0.32446860574E+03  0.00000000000E+00 0. -1.
         -5    1    3    3    0  503 -0.11269111148E+02 -0.67753137979E+02  0.70427418018E+01  0.69203835039E+02  0.47000000000E+01 0.  1.
         13    1    4    4    0    0  0.39838389035E+00 -0.25868491810E+02 -0.32634756893E+02  0.41645707291E+02  0.00000000000E+00 0. -1.
        -14    1    4    4    0    0  0.50401932949E+02  0.46336405120E+02 -0.44742964017E+02  0.81788447311E+02  0.00000000000E+00 0.  1.
</event>
<event>
12    1  0.8406581E-002  0.4201632E+03  0.7818608E-02  0.1037335E+00
         21   -1    0    0  501  502  0.00000000000E+00  0.00000000000E+00  0.66901181121E+03  0.66901181121E+03  0.00000000000E+00 0. -1.
         21   -1    0    0  502  503 -0.00000000000E+00 -0.00000000000E+00 -0.26869746628E+03  0.26869746628E+03  0.00000000000E+00 0.  1.
         -6    2    1    2    0  503  0.37316103474E+03  0.81718321046E+02  0.27827930815E+03  0.50396078844E+03  0.17495731223E+03 0.  0.
        -24    2    3    3    0    0  0.36743951809E+03  0.97357971016E+02  0.22771240176E+03  0.45051514853E+03  0.81366990657E+02 0.  0.
          6    2    1    2  501    0 -0.37316103474E+03 -0.81718321046E+02  0.12203503679E+03  0.43374848905E+03  0.16528206104E+03 0.  0.
         24    2    5    5    0    0 -0.21053314458E+03 -0.78146161409E+02  0.13923542390E+02  0.23837506147E+03  0.78725963875E+02 0.  0.
          5    1    5    5  501    0 -0.16262789016E+03 -0.35721596374E+01  0.10811149440E+03  0.19537342758E+03  0.47000000000E+01 0. -1.
        -13    1    6    6    0    0 -0.96134959538E+02  0.32507337240E+01  0.18257782565E+02  0.97907325258E+02  0.00000000000E+00 0.  1.
         14    1    6    6    0    0 -0.11439818504E+03 -0.81396895133E+02 -0.43342401748E+01  0.14046773621E+03  0.00000000000E+00 0. -1.
         -5    1    3    3    0  503  0.57215166540E+01 -0.15639649970E+02  0.50566906389E+02  0.53445639914E+02  0.47000000000E+01 0.  1.
         13    1    4    4    0    0  0.30077412698E+03  0.63824602765E+02  0.21407403869E+03  0.37465497383E+03  0.00000000000E+00 0. -1.
        -14    1    4    4    0    0  0.66665391107E+02  0.33533368251E+02  0.13638363070E+02  0.75860174696E+02  0.00000000000E+00 0.  1.
</event>
<event>
12    1  0.8406581E-002  0.1823301E+03  0.7818608E-02  0.1165757E+00
         21   -1    0    0  501  502  0.00000000000E+00  0.00000000000E+00  0.28717703156E+02  0.28717703156E+02  0.00000000000E+00 0. -1.
         21   -1    0    0  502  503 -0.00000000000E+00 -0.00000000000E+00 -0.11528939744E+04  0.11528939744E+04  0.00000000000E+00 0. -1.
         -6    2    1    2    0  503  0.17778428928E+02 -0.57459946400E+02 -0.55099267970E+03  0.58012709376E+03  0.17127986995E+03 0.  0.
        -24    2    3    3    0    0 -0.31643011084E+02 -0.25554185650E+02 -0.48024484812E+03  0.48799782601E+03  0.76501421504E+02 0.  0.
          6    2    1    2  501    0 -0.17778428928E+02  0.57459946400E+02 -0.57318359154E+03  0.60148458379E+03  0.17212366763E+03 0.  0.
         24    2    5    5    0    0  0.38318936999E+02 -0.13891277603E+02 -0.34030561677E+03  0.35150027876E+03  0.77995029576E+02 0.  0.
          5    1    5    5  501    0 -0.56097365928E+02  0.71351224003E+02 -0.23287797477E+03  0.24998430504E+03  0.47000000000E+01 0. -1.
        -13    1    6    6    0    0 -0.56366682782E+01  0.85320480910E+01 -0.23483318792E+03  0.23505572535E+03  0.00000000000E+00 0.  1.
         14    1    6    6    0    0  0.43955605277E+02 -0.22423325694E+02 -0.10547242885E+03  0.11644455340E+03  0.00000000000E+00 0. -1.
         -5    1    3    3    0  503  0.49421440012E+02 -0.31905760751E+02 -0.70747831589E+02  0.92129267752E+02  0.47000000000E+01 0.  1.
         11    1    4    4    0    0  0.20140582939E+02 -0.24608962897E+02 -0.24909675945E+03  0.25111837788E+03  0.00000000000E+00 0. -1.
        -12    1    4    4    0    0 -0.51783594022E+02 -0.94522275280E+00 -0.23114808866E+03  0.23687944813E+03  0.00000000000E+00 0.  1.
</event>
<event>
12    1  0.8406581E-002  0.2318036E+03  0.7818608E-02  0.1125843E+00
         21   -1    0    0  501  502  0.00000000000E+00  0.00000000000E+00  0.40649599118E+02  0.40649599118E+02  0.00000000000E+00 0. -1.
         21   -1    0    0  502  503 -0.00000000000E+00 -0.00000000000E+00 -0.36424248614E+04  0.36424248614E+04  0.00000000000E+00 0.  1.
         -6    2    1    2    0  503 -0.48154288308E+02  0.14737495654E+03 -0.32792718093E+04  0.32874544127E+04  0.17232151058E+03 0.  0.
        -24    2    3    3    0    0 -0.77584191397E+02  0.15193307370E+03 -0.22934010812E+04  0.23011227858E+04  0.79841033302E+02 0.  0.
          6    2    1    2  501    0  0.48154288308E+02 -0.14737495654E+03 -0.32250345293E+03  0.39562004777E+03  0.16872620350E+03 0.  0.
         24    2    5    5    0    0  0.59886680973E+02 -0.28250199793E+02 -0.19356253002E+03  0.21961945599E+03  0.79885944155E+02 0.  0.
          5    1    5    5  501    0 -0.11732392664E+02 -0.11912475674E+03 -0.12894092291E+03  0.17600059178E+03  0.47000000000E+01 0. -1.
        -13    1    6    6    0    0  0.46878804572E+01 -0.14279519039E+02 -0.14203021254E+03  0.14282318496E+03  0.00000000000E+00 0.  1.
         14    1    6    6    0    0  0.55198800515E+02 -0.13970680754E+02 -0.51532317482E+02  0.76796271030E+02  0.00000000000E+00 0. -1.
         -5    1    3    3    0  503  0.29429903089E+02 -0.45581171668E+01 -0.98587072814E+03  0.98633162690E+03  0.47000000000E+01 0.  1.
         11    1    4    4    0    0 -0.25397011837E+02  0.90045130993E+02 -0.78584048808E+03  0.79139017338E+03  0.00000000000E+00 0. -1.
        -12    1    4    4    0    0 -0.52187179560E+02  0.61887942710E+02 -0.15075605931E+04  0.15097326125E+04  0.00000000000E+00 0.  1.
</event>
<event>
12    1  0.8406581E-002  0.2077389E+03  0.7818608E-02  0.1143758E+00
         21   -1    0    0  503  502  0.00000000000E+00  0.00000000000E+00  0.16642957132E+04  0.16642957132E+04  0.00000000000E+00 0.  1.
         21   -1    0    0  501  503 -0.00000000000E+00 -0.00000000000E+00 -0.26242751672E+02  0.26242751672E+02  0.00000000000E+00 0.  1.
          6    2    1    2  501    0 -0.63738824207E+02  0.93131736493E+02  0.70011935254E+03  0.73028935388E+03  0.17441122250E+03 0.  0.
         24    2    3    3    0    0 -0.10433868397E+03  0.10062182690E+03  0.55241815202E+03  0.57685472708E+03  0.81143382015E+02 0.  0.
         -6    2    1    2    0  502  0.63738824207E+02 -0.93131736493E+02  0.93793360894E+03  0.96024911095E+03  0.17211258593E+03 0.  0.
        -24    2    5    5    0    0  0.61810298510E+02  0.16350374038E+02  0.36197305347E+03  0.37395336373E+03  0.68766118676E+02 0.  0.
          5    1    3    3  501    0  0.40599859768E+02 -0.74900904105E+01  0.14770120052E+03  0.15343462680E+03  0.47000000000E+01 0. -1.
        -13    1    4    4    0    0 -0.41550861635E+02  0.74746537852E+02  0.19331125602E+03  0.21138297171E+03  0.00000000000E+00 0.  1.
         14    1    4    4    0    0 -0.62787822340E+02  0.25875289051E+02  0.35910689600E+03  0.36547175537E+03  0.00000000000E+00 0. -1.
         -5    1    5    5    0  502  0.19285256969E+01 -0.10948211053E+03  0.57596055548E+03  0.58629574722E+03  0.47000000000E+01 0.  1.
         13    1    6    6    0    0  0.95537700095E+01  0.34193523547E+02  0.19140492908E+03  0.19466976769E+03  0.00000000000E+00 0. -1.
        -14    1    6    6    0    0  0.52256528501E+02 -0.17843149508E+02  0.17056812438E+03  0.17928359604E+03  0.00000000000E+00 0.  1.
</event>
<event>
12    1  0.8406581E-002  0.1980498E+03  0.7818608E-02  0.1152381E+00
         21   -1    0    0  503  502  0.00000000000E+00  0.00000000000E+00  0.48155260621E+03  0.48155260621E+03  0.00000000000E+00 0. -1.
         21   -1    0    0  501  503 -0.00000000000E+00 -0.00000000000E+00 -0.84391423684E+02  0.84391423684E+02  0.00000000000E+00 0.  1.
          6    2    1    2  501    0 -0.81617614292E+02  0.50315945032E+02  0.26826046873E+03  0.33344772113E+03  0.17329331885E+03 0.  0.
         24    2    3    3    0    0  0.63097411644E+01 -0.18298939090E+02  0.12162474152E+03  0.14915624370E+03  0.84144775706E+02 0.  0.
         -6    2    1    2    0  502  0.81617614292E+02 -0.50315945032E+02  0.12890071379E+03  0.23249630876E+03  0.16806549403E+03 0.  0.
        -24    2    5    5    0    0  0.76869493584E+02 -0.86512695671E+02  0.13343671589E+03  0.19540972463E+03  0.83583717184E+02 0.  0.
          5    1    3    3  501    0 -0.87927355456E+02  0.68614884122E+02  0.14663572721E+03  0.18429147744E+03  0.47000000000E+01 0. -1.
        -11    1    4    4    0    0 -0.25759927072E+02 -0.39789806653E+02  0.60432197387E+02  0.76803991024E+02  0.00000000000E+00 0.  1.
         12    1    4    4    0    0  0.32069668236E+02  0.21490867563E+02  0.61192544133E+02  0.72352252673E+02  0.00000000000E+00 0. -1.
         -5    1    5    5    0  502  0.47481207075E+01  0.36196750639E+02 -0.45360020967E+01  0.37086584126E+02  0.47000000000E+01 0.  1.
         13    1    6    6    0    0  0.77763921263E+01 -0.60601656546E+01  0.72362684777E+02  0.73031199021E+02  0.00000000000E+00 0. -1.
        -14    1    6    6    0    0  0.69093101458E+02 -0.80452530016E+02  0.61074031113E+02  0.12237852561E+03  0.00000000000E+00 0.  1.
</event>
<event>
12    1  0.8406581E-002  0.1870745E+03  0.7818608E-02  0.1161512E+00
         21   -1    0    0  501  502  0.00000000000E+00  0.00000000000E+00  0.34710603580E+03  0.34710603580E+03  0.00000000000E+00 0.  1.
         21   -1    0    0  502  503 -0.00000000000E+00 -0.00000000000E+00 -0.11171962737E+03  0.11171962737E+03  0.00000000000E+00 0.  1.
         -6    2    1    2    0  503 -0.62313270404E+02  0.36789405151E+02  0.42695011436E+02  0.19026125979E+03  0.17070465423E+03 0.  0.
        -24    2    3    3    0    0 -0.39108664099E+02  0.33597903636E+02 -0.33875877702E+02  0.11005009785E+03  0.91132552969E+02 0.  0.
          6    2    1    2  501    0  0.62313270404E+02 -0.36789405151E+02  0.19269139699E+03  0.26856440338E+03  0.17251220329E+03 0.  0.
         24    2    5    5    0    0 -0.46910961222E+01  0.17336174420E+02  0.15581317854E+03  0.17474939129E+03  0.77052279788E+02 0.  0.
          5    1    5    5  501    0  0.67004366526E+02 -0.54125579571E+02  0.36878218450E+02  0.93815012090E+02  0.47000000000E+01 0. -1.
        -13    1    6    6    0    0  0.17520141955E+02 -0.23592281564E+02  0.85545915209E+02  0.90452499868E+02  0.00000000000E+00 0.  1.
         14    1    6    6    0    0 -0.22211238077E+02  0.40928455984E+02  0.70267263334E+02  0.84296891417E+02  0.00000000000E+00 0. -1.
         -5    1    3    3    0  503 -0.23204606305E+02  0.31915015144E+01  0.76570889139E+02  0.80211161936E+02  0.47000000000E+01 0.  1.
         11    1    4    4    0    0  0.29407890881E+02  0.47384124965E+01 -0.14970906244E+02  0.33337735868E+02  0.00000000000E+00 0. -1.
        -12    1    4    4    0    0 -0.68516554980E+02  0.28859491140E+02 -0.18904971458E+02  0.76712361983E+02  0.00000000000E+00 0.  1.
</event>
<event>
12    1  0.8406581E-002  0.2596696E+03  0.7818608E-02  0.1107363E+00
         21   -1    0    0  503  502  0.00000000000E+00  0.00000000000E+00  0.25273031614E+03  0.25273031614E+03  0.00000000000E+00 0. -1.
         21   -1    0    0  501  503 -0.00000000000E+00 -0.00000000000E+00 -0.28406782548E+03  0.28406782548E+03  0.00000000000E+00 0.  1.
          6    2    1    2  501    0  0.99514587399E+02  0.16741065155E+03 -0.82109490092E+02  0.27221150708E+03  0.17154491210E+03 0.  0.
         24    2    3    3    0    0  0.11428586286E+02  0.13200779640E+02 -0.52715565503E+02  0.92139518729E+02  0.73524736638E+02 0.  0.
         -6    2    1    2    0  502 -0.99514587399E+02 -0.16741065155E+03  0.50771980750E+02  0.26458663453E+03  0.17175218713E+03 0.  0.
        -24    2    5    5    0    0  0.93213728226E+00 -0.11992571854E+03  0.50614685367E+02  0.15338196689E+03  0.81124192118E+02 0.  0.
          5    1    3    3  501    0  0.88086001114E+02  0.15420987191E+03 -0.29393924588E+02  0.18007198835E+03  0.47000000000E+01 0. -1.
        -11    1    4    4    0    0  0.23719585737E+02  0.33205408491E+02 -0.55071741702E+02  0.68542794185E+02  0.00000000000E+00 0.  1.
         12    1    4    4    0    0 -0.12290999451E+02 -0.20004628850E+02  0.23561761986E+01  0.23596724544E+02  0.00000000000E+00 0. -1.
         -5    1    5    5    0  502 -0.10044672468E+03 -0.47484933017E+02  0.15729538284E+00  0.11120466764E+03  0.47000000000E+01 0.  1.
         13    1    6    6    0    0  0.27249009686E+02 -0.81217887790E+02  0.17052817634E+01  0.85684081437E+02  0.00000000000E+00 0. -1.
        -14    1    6    6    0    0 -0.26316872404E+02 -0.38707830746E+02  0.48909403604E+02  0.67697885455E+02  0.00000000000E+00 0.  1.
</event>
<event>
12    1  0.8406581E-002  0.1978063E+03  0.7818608E-02  0.1151736E+00
         21   -1    0    0  501  502  0.00000000000E+00  0.00000000000E+00  0.38810433593E+03  0.38810433593E+03  0.00000000000E+00 0. -1.
         21   -1    0    0  502  503 -0.00000000000E+00 -0.00000000000E+00 -0.10437085355E+03  0.10437085355E+03  0.00000000000E+00 0. -1.
         -6    2    1    2    0  503  0.30582654665E+02 -0.91776503514E+02  0.94244631597E+02  0.21855303321E+03  0.17182884617E+03 0.  0.
        -24    2    3    3    0    0 -0.15473164958E+01  0.72788878826E+01  0.14712814931E+01  0.79006302318E+02  0.78641304285E+02 0.  0.
          6    2    1    2  501    0 -0.30582654665E+02  0.91776503514E+02  0.18948885078E+03  0.27392215628E+03  0.17253723588E+03 0.  0.
         24    2    5    5    0    0 -0.10740419210E+02 -0.19905629518E+02  0.97683504663E+02  0.12791898946E+03  0.79433054132E+02 0.  0.
          5    1    5    5  501    0 -0.19842235455E+02  0.11168213303E+03  0.91805346114E+02  0.14600316682E+03  0.47000000000E+01 0. -1.
        -11    1    6    6    0    0  0.33644998469E+02  0.70683925813E+00  0.39755522291E+02  0.52086342705E+02  0.00000000000E+00 0.  1.
         12    1    6    6    0    0 -0.44385417679E+02 -0.20612468776E+02  0.57927982372E+02  0.75832646751E+02  0.00000000000E+00 0. -1.
         -5    1    3    3    0  503  0.32129971161E+02 -0.99055391397E+02  0.92773350104E+02  0.13954673089E+03  0.47000000000E+01 0.  1.
         13    1    4    4    0    0 -0.19061535618E+02  0.27213865769E+01 -0.34063276096E+02  0.39128696163E+02  0.00000000000E+00 0. -1.
        -14    1    4    4    0    0  0.17514219122E+02  0.45575013057E+01  0.35534557589E+02  0.39877606155E+02  0.00000000000E+00 0.  1.
</event>
<event>
12    1  0.8406581E-002  0.3412948E+03  0.7818608E-02  0.1066252E+00
         21   -1    0    0  501  502  0.00000000000E+00  0.00000000000E+00  0.11271520690E+03  0.11271520690E+03  0.00000000000E+00 0. -1.
         21   -1    0    0  502  503 -0.00000000000E+00 -0.00000000000E+00 -0.16163082087E+04  0.16163082087E+04  0.00000000000E+00 0.  1.
         -6    2    1    2    0  503 -0.19159818936E+03  0.22260132093E+03 -0.12710809419E+04  0.13161036781E+04  0.17384164183E+03 0.  0.
        -24    2    3    3    0    0 -0.13824153896E+03  0.13712243538E+03 -0.56491479043E+03  0.60276904732E+03  0.79300180159E+02 0.  0.
          6    2    1    2  501    0  0.19159818936E+03 -0.22260132093E+03 -0.23251205993E+03  0.41291973751E+03  0.17372287519E+03 0.  0.
         24    2    5    5    0    0  0.18898942708E+03 -0.11953295807E+03 -0.14480206645E+03  0.27747592621E+03  0.77589429452E+02 0.  0.
          5    1    5    5  501    0  0.26087622804E+01 -0.10306836286E+03 -0.87709993475E+02  0.13544381130E+03  0.47000000000E+01 0. -1.
        -11    1    6    6    0    0  0.13479192349E+03 -0.67766016712E+02 -0.13394016181E+03  0.20174504357E+03  0.00000000000E+00 0.  1.
         12    1    6    6    0    0  0.54197503594E+02 -0.51766941355E+02 -0.10861904645E+02  0.75730882641E+02  0.00000000000E+00 0. -1.
         -5    1    3    3    0  503 -0.53356650399E+02  0.85478885552E+02 -0.70616615147E+03  0.71333463080E+03  0.47000000000E+01 0.  1.
         13    1    4    4    0    0 -0.25515344386E+02  0.79789889031E+02 -0.22685311661E+03  0.24182596160E+03  0.00000000000E+00 0. -1.
        -14    1    4    4    0    0 -0.11272619457E+03  0.57332546349E+02 -0.33806167382E+03  0.36094308571E+03  0.00000000000E+00 0.  1.
</event>
<event>
12    1  0.8406581E-002  0.2154202E+03  0.7818608E-02  0.1139326E+00
         21   -1    0    0  501  502  0.00000000000E+00  0.00000000000E+00  0.86127297245E+03  0.86127297245E+03  0.00000000000E+00 0. -1.
         21   -1    0    0  502  503 -0.00000000000E+00 -0.00000000000E+00 -0.40530248122E+03  0.40530248122E+03  0.00000000000E+00 0.  1.
         -6    2    1    2    0  503  0.82973257019E+02 -0.99471832879E+02 -0.36446641003E+03  0.41832869189E+03  0.15932333007E+03 0.  0.
        -24    2    3    3    0    0  0.54564035761E+02 -0.13006444139E+03 -0.30434557839E+03  0.34498296301E+03  0.80579282508E+02 0.  0.
          6    2    1    2  501    0 -0.82973257019E+02  0.99471832879E+02  0.82043690125E+03  0.84824676178E+03  0.17212394668E+03 0.  0.
         24    2    5    5    0    0  0.42502210255E+00  0.24342596737E+02  0.53927577743E+03  0.54547070158E+03  0.78276302270E+02 0.  0.
          5    1    5    5  501    0 -0.83398279121E+02  0.75129236141E+02  0.28116112382E+03  0.30277606020E+03  0.47000000000E+01 0. -1.
        -11    1    6    6    0    0 -0.24175297547E+01 -0.57333574388E+01  0.94573912682E+00  0.62936682572E+01  0.00000000000E+00 0.  1.
         12    1    6    6    0    0  0.28425518572E+01  0.30075954176E+02  0.53833003830E+03  0.53917703332E+03  0.00000000000E+00 0. -1.
         -5    1    3    3    0  503  0.28409221257E+02  0.30592608515E+02 -0.60120831639E+02  0.73345728882E+02  0.47000000000E+01 0.  1.
         11    1    4    4    0    0 -0.21267833556E+02 -0.25210463164E+02 -0.58240366716E+02  0.66931521067E+02  0.00000000000E+00 0. -1.
        -12    1    4    4    0    0  0.75831869318E+02 -0.10485397823E+03 -0.24610521167E+03  0.27805144194E+03  0.00000000000E+00 0.  1.
</event>
<event>
12    1  0.8406581E-002  0.2012522E+03  0.7818608E-02  0.1148711E+00
         21   -1    0    0  503  502  0.00000000000E+00  0.00000000000E+00  0.82745497739E+02  0.82745497739E+02  0.00000000000E+00 0.  1.
         21   -1    0    0  501  503 -0.00000000000E+00 -0.00000000000E+00 -0.84835232171E+03  0.84835232171E+03  0.00000000000E+00 0.  1.
          6    2    1    2  501    0  0.88169981365E+02  0.58266776191E+02 -0.68565122152E+03  0.71454443981E+03  0.17113502292E+03 0.  0.
         24    2    3    3    0    0  0.95046075529E+02 -0.17310664210E+02 -0.43967482158E+03  0.45708432737E+03  0.79238362110E+02 0.  0.
         -6    2    1    2    0  502 -0.88169981365E+02 -0.58266776191E+02 -0.79955602448E+02  0.21655337964E+03  0.17127026901E+03 0.  0.
        -24    2    5    5    0    0  0.89424751258E+01 -0.59623794665E+01 -0.67843976026E+02  0.10548871101E+03  0.80059635506E+02 0.  0.
          5    1    3    3  501    0 -0.68760941633E+01  0.75577440401E+02 -0.24597639994E+03  0.25746011244E+03  0.47000000000E+01 0. -1.
        -13    1    4    4    0    0  0.10326590107E+02  0.24061411200E+02 -0.15519038751E+03  0.15738375504E+03  0.00000000000E+00 0.  1.
         14    1    4    4    0    0  0.84719485422E+02 -0.41372075411E+02 -0.28448443406E+03  0.29970057234E+03  0.00000000000E+00 0. -1.
         -5    1    5    5    0  502 -0.97112456491E+02 -0.52304396724E+02 -0.12111626423E+02  0.11106466863E+03  0.47000000000E+01 0.  1.
         13    1    6    6    0    0 -0.21937276788E+02  0.80288154943E+01 -0.67667979547E+02  0.71586740722E+02  0.00000000000E+00 0. -1.
        -14    1    6    6    0    0  0.30879751914E+02 -0.13991194961E+02 -0.17599647865E+00  0.33901970289E+02  0.00000000000E+00 0.  1.
</event>
<event>
12    1  0.8406581E-002  0.1817505E+03  0.7818608E-02  0.1169094E+00
         21   -1    0    0  501  502  0.00000000000E+00  0.00000000000E+00  0.38365242356E+03  0.38365242356E+03  0.00000000000E+00 0. -1.
         21   -1    0    0  502  503 -0.00000000000E+00 -0.00000000000E+00 -0.93187123500E+02  0.93187123500E+02  0.00000000000E+00 0. -1.
         -6    2    1    2    0  503 -0.24216748502E+01  0.20635234766E+02  0.61624845898E+02  0.19191369759E+03  0.18055904372E+03 0.  0.
        -24    2    3    3    0    0 -0.72124076773E+02  0.28026887351E+02  0.42966802135E+02  0.11922756440E+03  0.79885400175E+02 0.  0.
          6    2    1    2  501    0  0.24216748502E+01 -0.20635234766E+02  0.22884045416E+03  0.28492584947E+03  0.16847287263E+03 0.  0.
         24    2    5    5    0    0  0.60200596227E+02 -0.30732358496E+02  0.18084369445E+03  0.20899078111E+03  0.80025715399E+02 0.  0.
          5    1    5    5  501    0 -0.57778921377E+02  0.10097123730E+02  0.47996759719E+02  0.75935068359E+02  0.47000000000E+01 0. -1.
        -13    1    6    6    0    0  0.73939724125E+02 -0.50441555581E+01  0.14464330465E+03  0.16252449627E+03  0.00000000000E+00 0.  1.
         14    1    6    6    0    0 -0.13739127897E+02 -0.25688202938E+02  0.36200389796E+02  0.46466284841E+02  0.00000000000E+00 0. -1.
         -5    1    3    3    0  503  0.69702401923E+02 -0.73916525846E+01  0.18658043763E+02  0.72686133195E+02  0.47000000000E+01 0.  1.
         13    1    4    4    0    0 -0.17809009872E+02  0.37757082852E+02 -0.97973457553E+01  0.42880603097E+02  0.00000000000E+00 0. -1.
        -14    1    4    4    0    0 -0.54315066901E+02 -0.97301955015E+01  0.52764147890E+02  0.76346961298E+02  0.00000000000E+00 0.  1.
</event>
<event>
12    1  0.8406581E-002  0.2391565E+03  0.7818608E-02  0.1120389E+00
         21   -1    0    0  501  502  0.00000000000E+00  0.00000000000E+00  0.37373277402E+03  0.37373277402E+03  0.00000000000E+00 0.  1.
         21   -1    0    0  502  503 -0.00000000000E+00 -0.00000000000E+00 -0.20331614037E+03  0.20331614037E+03  0.00000000000E+00 0.  1.
         -6    2    1    2    0  503  0.68398989578E+02 -0.15043703713E+03 -0.58475938986E+02  0.24600865125E+03  0.17260097664E+03 0.  0.
        -24    2    3    3    0    0  0.19867325212E+02 -0.14231278631E+03  0.70756589508E+01  0.16390854230E+03  0.78538560800E+02 0.  0.
          6    2    1    2  501    0 -0.68398989578E+02  0.15043703713E+03  0.22889257264E+03  0.33104026314E+03  0.17287603100E+03 0.  0.
         24    2    5    5    0    0 -0.54421734308E+02  0.16745439031E+03  0.23785134228E+03  0.30680591710E+03  0.80956233502E+02 0.  0.
          5    1    5    5  501    0 -0.13977255269E+02 -0.17017353185E+02 -0.89587696466E+01  0.24234346037E+02  0.47000000000E+01 0. -1.
        -13    1    6    6    0    0  0.20786768880E+02  0.25629527340E+02  0.46791546775E+02  0.57257412461E+02  0.00000000000E+00 0.  1.
         14    1    6    6    0    0 -0.75208503188E+02  0.14182486297E+03  0.19105979551E+03  0.24954850464E+03  0.00000000000E+00 0. -1.
         -5    1    3    3    0  503  0.48531664366E+02 -0.81242508201E+01 -0.65551597937E+02  0.82100108950E+02  0.47000000000E+01 0.  1.
         11    1    4    4    0    0  0.46362589199E+02 -0.57513434911E+02  0.12400331101E+02  0.74906962853E+02  0.00000000000E+00 0. -1.
        -12    1    4    4    0    0 -0.26495263987E+02 -0.84799351396E+02 -0.53246721497E+01  0.89001579449E+02  0.00000000000E+00 0.  1.
</event>
<event>
12    1  0.8406581E-002  0.1916260E+03  0.7818608E-02  0.1158021E+00
         21   -1    0    0  501  502  0.00000000000E+00  0.00000000000E+00  0.16651924481E+03  0.16651924481E+03  0.00000000000E+00 0.  1.
         21   -1    0    0  502  503 -0.00000000000E+00 -0.00000000000E+00 -0.24754663370E+03  0.24754663370E+03  0.00000000000E+00 0.  1.
         -6    2    1    2    0  503 -0.68079506118E+02  0.26236341609E+02 -0.11473853786E+03  0.21949724808E+03  0.17231060637E+03 0.  0.
        -24    2    3    3    0    0 -0.57794612572E+02  0.42628640697E+02 -0.43035144157E+01  0.10728106872E+03  0.79581965422E+02 0.  0.
          6    2    1    2  501    0  0.68079506118E+02 -0.26236341609E+02  0.33711148977E+02  0.19456863043E+03  0.17719296151E+03 0.  0.
         24    2    5    5    0    0  0.47856955890E+02 -0.14250179106E+02 -0.51600173286E+02  0.10595299222E+03  0.77910864744E+02 0.  0.
          5    1    5    5  501    0  0.20222550228E+02 -0.11986162503E+02  0.85311322264E+02  0.88615638212E+02  0.47000000000E+01 0. -1.
        -13    1    6    6    0    0  0.40668338741E+02  0.26377595689E+02 -0.14842062295E+02  0.50694951854E+02  0.00000000000E+00 0.  1.
         14    1    6    6    0    0  0.71886171496E+01 -0.40627774795E+02 -0.36758110991E+02  0.55258040365E+02  0.00000000000E+00 0. -1.
         -5    1    3    3    0  503 -0.10284893546E+02 -0.16392299088E+02 -0.11043502345E+03  0.11221617935E+03  0.47000000000E+01 0.  1.
         13    1    4    4    0    0 -0.34915614729E+02 -0.79674759086E+01  0.25780053421E+02  0.44126998296E+02  0.00000000000E+00 0. -1.
        -14    1    4    4    0    0 -0.22878997843E+02  0.50596116606E+02 -0.30083567837E+02  0.63154070428E+02  0.00000000000E+00 0.  1.
</event>
<event>
12    1  0.8406581E-002  0.1812427E+03  0.7818608E-02  0.1168257E+00
         21   -1    0    0  501  502  0.00000000000E+00  0.00000000000E+00  0.12999301448E+03  0.12999301448E+03  0.00000000000E+00 0. -1.
         21   -1    0    0  502  503 -0.00000000000E+00 -0.00000000000E+00 -0.24899626845E+03  0.24899626845E+03  0.00000000000E+00 0.  1.
         -6    2    1    2    0  503 -0.55101557548E+02 -0.10289808352E+02 -0.32143390605E+02  0.18407096693E+03  0.17235678550E+03 0.  0.
        -24    2    3    3    0    0 -0.79870123477E+02 -0.36646884309E+02  0.20317578090E+02  0.12017714448E+03  0.79419842115E+02 0.  0.
          6    2    1    2  501    0  0.55101557548E+02  0.10289808352E+02 -0.86859863364E+02  0.19491831600E+03  0.16524664066E+03 0.  0.
         24    2    5    5    0    0  0.51677186966E+02  0.67289724653E+02 -0.50551209131E+02  0.12708672200E+03  0.79982319717E+02 0.  0.
          5    1    5    5  501    0  0.34243705813E+01 -0.56999916301E+02 -0.36308654233E+02  0.67831593999E+02  0.47000000000E+01 0. -1.
        -13    1    6    6    0    0  0.45539444924E+02  0.10169817826E+02 -0.51678286308E+02  0.69626945318E+02  0.00000000000E+00 0.  1.
         14    1    6    6    0    0  0.61377420424E+01  0.57119906826E+02  0.11270771775E+01  0.57459776681E+02  0.00000000000E+00 0. -1.
         -5    1    3    3    0  503  0.24768565929E+02  0.26357075958E+02 -0.52460968695E+02  0.63893822453E+02  0.47000000000E+01 0.  1.
         11    1    4    4    0    0 -0.52960276025E+02 -0.61898809254E+02  0.16042164543E+02  0.83027733119E+02  0.00000000000E+00 0. -1.
        -12    1    4    4    0    0 -0.26909847452E+02  0.25251924944E+02  0.42754135468E+01  0.37149411358E+02  0.00000000000E+00 0.  1.
</event>
<event>
12    1  0.8406581E-002  0.1727227E+03  0.7818608E-02  0.1175388E+00
         21   -1    0    0  501  502  0.00000000000E+00  0.00000000000E+00  0.32806906684E+03  0.32806906684E+03  0.00000000000E+00 0. -1.
         21   -1    0    0  502  503 -0.00000000000E+00 -0.00000000000E+00 -0.35150202443E+03  0.35150202443E+03  0.00000000000E+00 0. -1.
         -6    2    1    2    0  503 -0.95040777828E+01 -0.17434293534E+01 -0.30465613711E+03  0.34954138985E+03  0.17108610201E+03 0.  0.
        -24    2    3    3    0    0 -0.21287593286E+02 -0.39068476829E+02 -0.29174382085E+03  0.30805852209E+03  0.88352071390E+02 0.  0.
          6    2    1    2  501    0  0.95040777828E+01  0.17434293534E+01  0.28122317952E+03  0.33002970141E+03  0.17245219648E+03 0.  0.
         24    2    5    5    0    0  0.57561030997E+02  0.31880793388E+01  0.25981934114E+03  0.27719247908E+03  0.77499317998E+02 0.  0.
          5    1    5    5  501    0 -0.48056953214E+02 -0.14446499855E+01  0.21403838382E+02  0.52837222328E+02  0.47000000000E+01 0. -1.
        -13    1    6    6    0    0 -0.16743107870E+01  0.18182025827E+02  0.11760242520E+02  0.21718487146E+02  0.00000000000E+00 0.  1.
         14    1    6    6    0    0  0.59235341784E+02 -0.14993946488E+02  0.24805909862E+03  0.25547399194E+03  0.00000000000E+00 0. -1.
         -5    1    3    3    0  503  0.11783515503E+02  0.37325047476E+02 -0.12912316262E+02  0.41482867764E+02  0.47000000000E+01 0.  1.
         11    1    4    4    0    0  0.20248900299E+02 -0.18263300055E+02 -0.22553504074E+03  0.22717750921E+03  0.00000000000E+00 0. -1.
        -12    1    4    4    0    0 -0.41536493585E+02 -0.20805176774E+02 -0.66208780112E+02  0.80881012876E+02  0.00000000000E+00 0.  1.
</event>
<event>
12    1  0.8406581E-002  0.2347202E+03  0.7818608E-02  0.1123380E+00
         21   -1    0    0  503  502  0.00000000000E+00  0.00000000000E+00  0.23816627538E+03  0.23816627538E+03  0.00000000000E+00 0.  1.
         21   -1    0    0  501  503 -0.00000000000E+00 -0.00000000000E+00 -0.24810938979E+03  0.24810938979E+03  0.00000000000E+00 0. -1.
          6    2    1    2  501    0  0.14361387500E+03 -0.68886472035E+02  0.58477360121E+02  0.24178653073E+03  0.17225223851E+03 0.  0.
         24    2    3    3    0    0  0.67478411088E+02 -0.53661381543E+02  0.99845869355E+02  0.15368513572E+03  0.78848230690E+02 0.  0.
         -6    2    1    2    0  502 -0.14361387500E+03  0.68886472035E+02 -0.68420474530E+02  0.24448913443E+03  0.17240442105E+03 0.  0.
        -24    2    5    5    0    0 -0.62035355548E+02 -0.20931665938E+02 -0.65881460193E+02  0.12303589512E+03  0.80690425171E+02 0.  0.
          5    1    3    3  501    0  0.76135463916E+02 -0.15225090492E+02 -0.41368509233E+02  0.88101395009E+02  0.47000000000E+01 0. -1.
        -11    1    4    4    0    0 -0.56350013169E+01 -0.34334938131E+02  0.56960995231E+02  0.66747256079E+02  0.00000000000E+00 0.  1.
         12    1    4    4    0    0  0.73113412404E+02 -0.19326443412E+02  0.42884874123E+02  0.86937879644E+02  0.00000000000E+00 0. -1.
         -5    1    5    5    0  502 -0.81578519456E+02  0.89818137973E+02 -0.25390143361E+01  0.12145323931E+03  0.47000000000E+01 0.  1.
         13    1    6    6    0    0 -0.13134289610E+02  0.24267490902E+02 -0.45823346624E+02  0.53490183904E+02  0.00000000000E+00 0. -1.
        -14    1    6    6    0    0 -0.48901065938E+02 -0.45199156840E+02 -0.20058113570E+02  0.69545711218E+02  0.00000000000E+00 0.  1.
</event>
<event>
12    1  0.8406581E-002  0.1844456E+03  0.7818608E-02  0.1163584E+00
         21   -1    0    0  503  502  0.00000000000E+00  0.00000000000E+00  0.32971925413E+03  0.32971925413E+03  0.00000000000E+00 0.  1.
         21   -1    0    0  501  503 -0.00000000000E+00 -0.00000000000E+00 -0.38630833076E+03  0.38630833076E+03  0.00000000000E+00 0.  1.
          6    2    1    2  501    0  0.43737302878E+02  0.50052066995E+02 -0.33481207050E+03  0.38225556384E+03  0.17205241196E+03 0.  0.
         24    2    3    3    0    0  0.47801071801E+02  0.58991383899E+02 -0.34795304152E+03  0.36519095943E+03  0.80797227110E+02 0.  0.
         -6    2    1    2    0  502 -0.43737302878E+02 -0.50052066995E+02  0.27822299388E+03  0.33377202105E+03  0.17198129736E+03 0.  0.
        -24    2    5    5    0    0 -0.89433530264E+02 -0.12336434817E+02  0.22141287681E+03  0.25155223323E+03  0.78130148256E+02 0.  0.
          5    1    3    3  501    0 -0.40637689223E+01 -0.89393169040E+01  0.13140971015E+02  0.17064604413E+02  0.47000000000E+01 0. -1.
        -13    1    4    4    0    0  0.58482588744E+02  0.11905577672E+02 -0.15005582015E+03  0.16148902478E+03  0.00000000000E+00 0.  1.
         14    1    4    4    0    0 -0.10681516943E+02  0.47085806226E+02 -0.19789722137E+03  0.20370193465E+03  0.00000000000E+00 0. -1.
         -5    1    5    5    0  502  0.45696227385E+02 -0.37715632177E+02  0.56810117064E+02  0.82219787817E+02  0.47000000000E+01 0.  1.
         13    1    6    6    0    0 -0.43920914833E+02  0.19890244900E+02  0.16629453366E+03  0.17314312151E+03  0.00000000000E+00 0. -1.
        -14    1    6    6    0    0 -0.45512615431E+02 -0.32226679718E+02  0.55118343157E+02  0.78409111724E+02  0.00000000000E+00 0.  1.
</event>
<event>
12    1  0.8406581E-002  0.1969132E+03  0.7818608E-02  0.1152389E+00
         21   -1    0    0  501  502  0.00000000000E+00  0.00000000000E+00  0.14200675775E+03  0.14200675775E+03  0.00000000000E+00 0.  1.
         21   -1    0    0  502  503 -0.00000000000E+00 -0.00000000000E+00 -0.29251489774E+03  0.29251489774E+03  0.00000000000E+00 0. -1.
         -6    2    1    2    0  503 -0.96974648342E+02  0.33782009447E+01 -0.13146417938E+03  0.23668971883E+03  0.17124163593E+03 0.  0.
        -24    2    3    3    0    0 -0.11212704105E+03 -0.44739311705E+02 -0.84374003237E+02  0.16751989364E+03  0.79811421457E+02 0.  0.
          6    2    1    2  501    0  0.96974648342E+02 -0.33782009447E+01 -0.19043960604E+02  0.19783193666E+03  0.17134558081E+03 0.  0.
         24    2    5    5    0    0  0.13070731105E+03 -0.26485834724E+02 -0.88732922693E+01  0.15543632643E+03  0.79346176074E+02 0.  0.
          5    1    5    5  501    0 -0.33732662705E+02  0.23107633779E+02 -0.10170668335E+02  0.42395610226E+02  0.47000000000E+01 0. -1.
        -13    1    6    6    0    0  0.44693806202E+02 -0.25538217592E+02 -0.38692101377E+02  0.64395772995E+02  0.00000000000E+00 0.  1.
         14    1    6    6    0    0  0.86013504845E+02 -0.94761713205E+00  0.29818809108E+02  0.91040553440E+02  0.00000000000E+00 0. -1.
         -5    1    3    3    0  503  0.15152392707E+02  0.48117512650E+02 -0.47090176143E+02  0.69169825195E+02  0.47000000000E+01 0.  1.
         13    1    4    4    0    0 -0.54816986184E+02  0.15637093578E+02 -0.55091167785E+02  0.79274569931E+02  0.00000000000E+00 0. -1.
        -14    1    4    4    0    0 -0.57310054865E+02 -0.60376405283E+02 -0.29282835452E+02  0.88245323704E+02  0.00000000000E+00 0.  1.
</event>
<event>
12    1  0.8406581E-002  0.1872813E+03  0.7818608E-02  0.1161389E+00
         21   -1    0    0  501  502  0.00000000000E+00  0.00000000000E+00  0.60637740936E+02  0.60637740936E+02  0.00000000000E+00 0.  1.
         21   -1    0    0  502  503 -0.00000000000E+00 -0.00000000000E+00 -0.61636128636E+03  0.61636128636E+03  0.00000000000E+00 0.  1.
         -6    2    1    2    0  503 -0.46354421028E+02 -0.52433954582E+02 -0.36691842942E+03  0.41106356655E+03  0.17159857213E+03 0.  0.
        -24    2    3    3    0    0 -0.35954049151E+01 -0.66298062871E+02 -0.11472234318E+03  0.15484978302E+03  0.80055475759E+02 0.  0.
          6    2    1    2  501    0  0.46354421028E+02  0.52433954582E+02 -0.18880511600E+03  0.26593546075E+03  0.17371311266E+03 0.  0.
         24    2    5    5    0    0  0.61930670064E+02  0.13069660990E+01 -0.18705412358E+03  0.21225357870E+03  0.78900066335E+02 0.  0.
          5    1    5    5  501    0 -0.15576249036E+02  0.51126988483E+02 -0.17509924235E+01  0.53681882045E+02  0.47000000000E+01 0. -1.
        -11    1    6    6    0    0  0.39412629267E+02 -0.46335858690E+01 -0.21625747437E+02  0.45194008629E+02  0.00000000000E+00 0.  1.
         12    1    6    6    0    0  0.22518040798E+02  0.59405519680E+01 -0.16542837614E+03  0.16705957007E+03  0.00000000000E+00 0. -1.
         -5    1    3    3    0  503 -0.42759016113E+02  0.13864108289E+02 -0.25219608624E+03  0.25621378353E+03  0.47000000000E+01 0.  1.
         11    1    4    4    0    0 -0.26315713004E+02 -0.59377341269E+02 -0.39613355689E+02  0.76074985087E+02  0.00000000000E+00 0. -1.
        -12    1    4    4    0    0  0.22720308089E+02 -0.69207216019E+01 -0.75108987490E+02  0.78774797930E+02  0.00000000000E+00 0.  1.
</event>
<event>
12    1  0.8406581E-002  0.2187094E+03  0.7818608E-02  0.1134958E+00
         21   -1    0    0  503  502  0.00000000000E+00  0.00000000000E+00  0.30234851643E+02  0.30234851643E+02  0.00000000000E+00 0.  1.
         21   -1    0    0  501  503 -0.00000000000E+00 -0.00000000000E+00 -0.19183413426E+04  0.19183413426E+04  0.00000000000E+00 0.  1.
          6    2    1    2  501    0  0.31736152922E+02 -0.12830536997E+03 -0.13555370680E+04  0.13730675739E+04  0.17425374731E+03 0.  0.
         24    2    3    3    0    0  0.88456003223E+02 -0.10172785745E+03 -0.98998726495E+03  0.10021602349E+04  0.77957233536E+02 0.  0.
         -6    2    1    2    0  502 -0.31736152922E+02  0.12830536997E+03 -0.53256942302E+03  0.57550862039E+03  0.17352386131E+03 0.  0.
        -24    2    5    5    0    0  0.38533839660E+02  0.12020044693E+03 -0.34396001175E+03  0.37401628392E+03  0.75144439025E+02 0.  0.
          5    1    3    3  501    0 -0.56719850301E+02 -0.26577512520E+02 -0.36554980303E+03  0.37090733895E+03  0.47000000000E+01 0. -1.
        -13    1    4    4    0    0  0.41379538294E+02 -0.21661956188E+02 -0.15128806601E+03  0.15833377862E+03  0.00000000000E+00 0.  1.
         14    1    4    4    0    0  0.47076464929E+02 -0.80065901258E+02 -0.83869919894E+03  0.84382645633E+03  0.00000000000E+00 0. -1.
         -5    1    5    5    0  502 -0.70269992582E+02  0.81049230372E+01 -0.18860941127E+03  0.20149233647E+03  0.47000000000E+01 0.  1.
         11    1    6    6    0    0  0.14696508178E+02  0.97305155232E+02 -0.16571089601E+03  0.19272877741E+03  0.00000000000E+00 0. -1.
        -12    1    6    6    0    0  0.23837331483E+02  0.22895291697E+02 -0.17824911574E+03  0.18128750651E+03  0.00000000000E+00 0.  1.
</event>
<event>
12    1  0.8406581E-002  0.1780805E+03  0.7818608E-02  0.1169779E+00
         21   -1    0    0  501  502  0.00000000000E+00  0.00000000000E+00  0.56701547472E+03  0.56701547472E+03  0.00000000000E+00 0. -1.
         21   -1    0    0  502  503 -0.00000000000E+00 -0.00000000000E+00 -0.55913556423E+02  0.55913556423E+02  0.00000000000E+00 0. -1.
         -6    2    1    2    0  503 -0.43187350263E+02 -0.45927753107E+01  0.26957827084E+03  0.32285180644E+03  0.17226318239E+03 0.  0.
        -24    2    3    3    0    0  0.17275074636E+02 -0.33281587569E+02  0.22696466955E+03  0.24337374791E+03  0.79446382379E+02 0.  0.
          6    2    1    2  501    0  0.43187350263E+02  0.45927753107E+01  0.24152364746E+03  0.30007722470E+03  0.17270329381E+03 0.  0.
         24    2    5    5    0    0  0.70862627947E+02  0.35398307973E+02  0.23014925692E+03  0.25687573633E+03  0.82109142029E+02 0.  0.
          5    1    5    5  501    0 -0.27675277685E+02 -0.30805532662E+02  0.11374390536E+02  0.43201488372E+02  0.47000000000E+01 0. -1.
        -11    1    6    6    0    0  0.74605235939E+01  0.19420159350E+01  0.14653318811E+03  0.14673583766E+03  0.00000000000E+00 0.  1.
         12    1    6    6    0    0  0.63402104353E+02  0.33456292038E+02  0.83616068816E+02  0.11013989866E+03  0.00000000000E+00 0. -1.
         -5    1    3    3    0  503 -0.60462424899E+02  0.28688812258E+02  0.42613601286E+02  0.79478058532E+02  0.47000000000E+01 0.  1.
         11    1    4    4    0    0  0.39423780640E+02 -0.52227144339E+01  0.18006317301E+03  0.18440243355E+03  0.00000000000E+00 0. -1.
        -12    1    4    4    0    0 -0.22148706004E+02 -0.28058873135E+02  0.46901496538E+02  0.58971314355E+02  0.00000000000E+00 0.  1.
</event>
<event>
12    1  0.8406581E-002  0.1842369E+03  0.7818608E-02  0.1164062E+00
         21   -1    0    0  501  502  0.00000000000E+00  0.00000000000E+00  0.49135404005E+03  0.49135404005E+03  0.00000000000E+00 0. -1.
         21   -1    0    0  502  503 -0.00000000000E+00 -0.00000000000E+00 -0.19467640247E+03  0.19467640247E+03  0.00000000000E+00 0. -1.
         -6    2    1    2    0  503 -0.52325467493E+01  0.63081468284E+02 -0.12787206687E+03  0.22322846140E+03  0.17167710770E+03 0.  0.
        -24    2    3    3    0    0 -0.61300388345E+02  0.56849885779E+02 -0.12241353782E+03  0.16635737014E+03  0.75498696891E+02 0.  0.
          6    2    1    2  501    0  0.52325467493E+01 -0.63081468284E+02  0.42454970445E+03  0.46280198112E+03  0.17302188012E+03 0.  0.
         24    2    5    5    0    0 -0.17118362112E+02 -0.10254523217E+03  0.25605805353E+03  0.28824975909E+03  0.81936767555E+02 0.  0.
          5    1    5    5  501    0  0.22350908861E+02  0.39463763888E+02  0.16849165092E+03  0.17455222203E+03  0.47000000000E+01 0. -1.
        -13    1    6    6    0    0  0.29968804309E+02 -0.57972993371E+02  0.10183744950E+03  0.12095397188E+03  0.00000000000E+00 0.  1.
         14    1    6    6    0    0 -0.47087166421E+02 -0.44572238801E+02  0.15422060403E+03  0.16729578721E+03  0.00000000000E+00 0. -1.
         -5    1    3    3    0  503  0.56067841596E+02  0.62315825053E+01 -0.54585290426E+01  0.56871091260E+02  0.47000000000E+01 0.  1.
         13    1    4    4    0    0 -0.57567850232E+02  0.69719330585E+02 -0.76206649976E+02  0.11824675868E+03  0.00000000000E+00 0. -1.
        -14    1    4    4    0    0 -0.37325381136E+01 -0.12869444806E+02 -0.46206887848E+02  0.48110611459E+02  0.00000000000E+00 0.  1.
</event>
<event>
12    1  0.8406581E-002  0.2151667E+03  0.7818608E-02  0.1140743E+00
         21   -1    0    0  503  502  0.00000000000E+00  0.00000000000E+00  0.45369287647E+02  0.45369287647E+02  0.00000000000E+00 0.  1.
         21   -1    0    0  501  503 -0.00000000000E+00 -0.00000000000E+00 -0.10649710303E+04  0.10649710303E+04  0.00000000000E+00 0. -1.
          6    2    1    2  501    0  0.97900537803E+02  0.14362890316E+02 -0.67783947938E+03  0.70648621835E+03  0.17281669187E+03 0.  0.
         24    2    3    3    0    0  0.12806479873E+03  0.42632232718E+02 -0.50690356230E+03  0.53055948330E+03  0.79523857469E+02 0.  0.
         -6    2    1    2    0  502 -0.97900537803E+02 -0.14362890316E+02 -0.34176226324E+03  0.40385409956E+03  0.19106512303E+03 0.  0.
        -24    2    5    5    0    0 -0.14357683910E+03 -0.93463817727E+01 -0.29669108914E+03  0.33931736125E+03  0.80056265768E+02 0.  0.
          5    1    3    3  501    0 -0.30164260926E+02 -0.28269342401E+02 -0.17093591708E+03  0.17592673505E+03  0.47000000000E+01 0. -1.
        -13    1    4    4    0    0  0.65847797217E+02 -0.13071408932E+02 -0.15555757890E+03  0.16942536553E+03  0.00000000000E+00 0.  1.
         14    1    4    4    0    0  0.62217001512E+02  0.55703641649E+02 -0.35134598340E+03  0.36113411777E+03  0.00000000000E+00 0. -1.
         -5    1    5    5    0  502  0.45676301296E+02 -0.50165085437E+01 -0.45071174095E+02  0.64536738315E+02  0.47000000000E+01 0.  1.
         13    1    6    6    0    0 -0.25540247103E+02  0.30718069740E+02 -0.68341805934E+02  0.79161268743E+02  0.00000000000E+00 0. -1.
        -14    1    6    6    0    0 -0.11803659200E+03 -0.40064451512E+02 -0.22834928321E+03  0.26015609250E+03  0.00000000000E+00 0.  1.
</event>
<event>
12    1  0.8406581E-002  0.2332587E+03  0.7818608E-02  0.1124789E+00
         21   -1    0    0  503  502  0.00000000000E+00  0.00000000000E+00  0.41516909148E+03  0.41516909148E+03  0.00000000000E+00 0. -1.
         21   -1    0    0  501  503 -0.00000000000E+00 -0.00000000000E+00 -0.71023520186E+03  0.71023520186E+03  0.00000000000E+00 0. -1.
          6    2    1    2  501    0  0.74902561871E+02  0.13412415805E+03 -0.65612935809E+03  0.69554818554E+03  0.17228424279E+03 0.  0.
         24    2    3    3    0    0  0.23911184397E+02 -0.15556087916E+01 -0.31384669971E+03  0.32381087515E+03  0.76023465386E+02 0.  0.
         -6    2    1    2    0  502 -0.74902561871E+02 -0.13412415805E+03  0.36106324771E+03  0.42985610780E+03  0.17552755061E+03 0.  0.
        -24    2    5    5    0    0 -0.48595977867E-01 -0.87745033338E+02  0.30116711277E+03  0.32325509280E+03  0.78057875767E+02 0.  0.
          5    1    3    3  501    0  0.50991377473E+02  0.13567976684E+03 -0.34228265838E+03  0.37173731039E+03  0.47000000000E+01 0. -1.
        -13    1    4    4    0    0 -0.10727676129E+02  0.14795467035E+02 -0.18549801297E+02  0.26040046238E+02  0.00000000000E+00 0.  1.
         14    1    4    4    0    0  0.34638860527E+02 -0.16351075827E+02 -0.29529689841E+03  0.29777082891E+03  0.00000000000E+00 0. -1.
         -5    1    5    5    0  502 -0.74853965893E+02 -0.46379124715E+02  0.59896134935E+02  0.10660101500E+03  0.47000000000E+01 0.  1.
         11    1    6    6    0    0 -0.18905491139E+02 -0.11063001747E+02  0.15395035224E+02  0.26773395608E+02  0.00000000000E+00 0. -1.
        -12    1    6    6    0    0  0.18856895161E+02 -0.76682031591E+02  0.28577207755E+03  0.29648169719E+03  0.00000000000E+00 0.  1.
</event>
<event>
12    1  0.8406581E-002  0.1838927E+03  0.7818608E-02  0.1164313E+00
         21   -1    0    0  503  502  0.00000000000E+00  0.00000000000E+00  0.15937411835E+03  0.15937411835E+03  0.00000000000E+00 0.  1.
         21   -1    0    0  501  503 -0.00000000000E+00 -0.00000000000E+00 -0.40382378955E+03  0.40382378955E+03  0.00000000000E+00 0.  1.
          6    2    1    2  501    0 -0.61952126332E+02 -0.18670179530E+02 -0.31660280310E+03  0.36565652506E+03  0.17111609458E+03 0.  0.
         24    2    3    3    0    0  0.25665670398E+02  0.81687711157E+00 -0.20695182779E+03  0.22387482642E+03  0.81433930002E+02 0.  0.
         -6    2    1    2    0  502  0.61952126332E+02  0.18670179530E+02  0.72153131909E+02  0.19754138284E+03  0.17213332603E+03 0.  0.
        -24    2    5    5    0    0  0.99445594370E+02  0.11757050407E+02  0.16170196297E+02  0.12964638612E+03  0.80740669507E+02 0.  0.
          5    1    3    3  501    0 -0.87617796730E+02 -0.19487056642E+02 -0.10965097531E+03  0.14178169863E+03  0.47000000000E+01 0. -1.
        -11    1    4    4    0    0 -0.29209501404E+02 -0.67407396709E+01 -0.70594476190E+02  0.76695584046E+02  0.00000000000E+00 0.  1.
         12    1    4    4    0    0  0.54875171801E+02  0.75576167825E+01 -0.13635735160E+03  0.14717924238E+03  0.00000000000E+00 0. -1.
         -5    1    5    5    0  502 -0.37493468038E+02  0.69131291230E+01  0.55982935612E+02  0.67894996720E+02  0.47000000000E+01 0.  1.
         13    1    6    6    0    0  0.19067724385E+02 -0.24034299144E+02 -0.17637930967E+02  0.35388165499E+02  0.00000000000E+00 0. -1.
        -14    1    6    6    0    0  0.80377869985E+02  0.35791349551E+02  0.33808127264E+02  0.94258220623E+02  0.00000000000E+00 0.  1.
</event>
<event>
12    1  0.8406581E-002  0.2259908E+03  0.7818608E-02  0.1129542E+00
         21   -1    0    0  503  502  0.00000000000E+00  0.00000000000E+00  0.13526876122E+03  0.13526876122E+03  0.00000000000E+00 0. -1.
         21   -1    0    0  501  503 -0.00000000000E+00 -0.00000000000E+00 -0.38390533360E+03  0.38390533360E+03  0.00000000000E+00 0. -1.
          6    2    1    2  501    0 -0.94745647088E+02 -0.11177008040E+03 -0.89851144900E+02  0.24319756958E+03  0.17205389010E+03 0.  0.
         24    2    3    3    0    0 -0.10661641381E+03 -0.56608740641E+02 -0.10065945230E+02  0.14536374827E+03  0.80359733988E+02 0.  0.
         -6    2    1    2    0  502  0.94745647088E+02  0.11177008040E+03 -0.15878542749E+03  0.27597652524E+03  0.17170015138E+03 0.  0.
        -24    2    5    5    0    0  0.48789004244E+02  0.14483357967E+03 -0.95543511165E+02  0.19096571424E+03  0.63104744321E+02 0.  0.
          5    1    3    3  501    0  0.11870766724E+02 -0.55161339758E+02 -0.79785199670E+02  0.97833821314E+02  0.47000000000E+01 0. -1.
        -13    1    4    4    0    0 -0.25392430250E+01  0.81690038379E+01  0.17709081496E+02  0.19667026879E+02  0.00000000000E+00 0.  1.
         14    1    4    4    0    0 -0.10407717079E+03 -0.64777744479E+02 -0.27775026725E+02  0.12569672139E+03  0.00000000000E+00 0. -1.
         -5    1    5    5    0  502  0.45956642844E+02 -0.33063499270E+02 -0.63241916324E+02  0.85010810993E+02  0.47000000000E+01 0.  1.
         11    1    6    6    0    0  0.32902535696E+02  0.62600178602E+02 -0.78199402292E+02  0.10543484118E+03  0.00000000000E+00 0. -1.
        -12    1    6    6    0    0  0.15886468547E+02  0.82233401067E+02 -0.17344108873E+02  0.85530873061E+02  0.00000000000E+00 0.  1.
</event>
<event>
12    1  0.8406581E-002  0.2326529E+03  0.7818608E-02  0.1125076E+00
         21   -1    0    0  501  502  0.00000000000E+00  0.00000000000E+00  0.18662537436E+04  0.18662537436E+04  0.00000000000E+00 0.  1.
         21   -1    0    0  502  503 -0.00000000000E+00 -0.00000000000E+00 -0.43354556863E+02  0.43354556863E+02  0.00000000000E+00 0.  1.
         -6    2    1    2    0  503 -0.21531418599E+01  0.15286766642E+03  0.36033279475E+03  0.42891386331E+03  0.17536881056E+03 0.  0.
        -24    2    3    3    0    0  0.51695264191E+02  0.15042900579E+03  0.26565818576E+03  0.31986814131E+03  0.80250047003E+02 0.  0.
          6    2    1    2  501    0  0.21531418599E+01 -0.15286766642E+03  0.14625663920E+04  0.14806944371E+04  0.17315428312E+03 0.  0.
         24    2    5    5    0    0  0.87634041400E+01 -0.16208180277E+03  0.14550974572E+04  0.14663253431E+04  0.80337375036E+02 0.  0.
          5    1    5    5  501    0 -0.66102622801E+01  0.92141363480E+01  0.74689347336E+01  0.14369093990E+02  0.47000000000E+01 0. -1.
        -13    1    6    6    0    0  0.12487200476E+02 -0.16595547204E+03  0.12350766600E+04  0.12462389438E+04  0.00000000000E+00 0.  1.
         14    1    6    6    0    0 -0.37237963359E+01  0.38736692663E+01  0.22002079724E+03  0.22008639938E+03  0.00000000000E+00 0. -1.
         -5    1    3    3    0  503 -0.53848406051E+02  0.24386606331E+01  0.94674608986E+02  0.10904572200E+03  0.47000000000E+01 0.  1.
         13    1    4    4    0    0  0.88223478679E+01  0.20020789006E+02  0.11073831933E+03  0.11287887837E+03  0.00000000000E+00 0. -1.
        -14    1    4    4    0    0  0.42872916323E+02  0.13040821678E+03  0.15491986643E+03  0.20698926294E+03  0.00000000000E+00 0.  1.
</event>
<event>
12    1  0.8406581E-002  0.2382525E+03  0.7818608E-02  0.1121341E+00
         21   -1    0    0  501  502  0.00000000000E+00  0.00000000000E+00  0.64492832583E+03  0.64492832583E+03  0.00000000000E+00 0. -1.
         21   -1    0    0  502  503 -0.00000000000E+00 -0.00000000000E+00 -0.10026689716E+03  0.10026689716E+03  0.00000000000E+00 0.  1.
         -6    2    1    2    0  503 -0.72792859780E+02 -0.14659151829E+03  0.13889414731E+03  0.27578219275E+03  0.17313682455E+03 0.  0.
        -24    2    3    3    0    0  0.53780872563E+01 -0.36764849671E+02  0.10974759432E+03  0.13778144764E+03  0.74556118870E+02 0.  0.
          6    2    1    2  501    0  0.72792859780E+02  0.14659151829E+03  0.40576728137E+03  0.46941303025E+03  0.17004009135E+03 0.  0.
         24    2    5    5    0    0  0.11859827591E+02  0.24684422754E+02  0.77535516455E+02  0.11398039830E+03  0.78929073527E+02 0.  0.
          5    1    5    5  501    0  0.60933032189E+02  0.12190709554E+03  0.32823176491E+03  0.35543263194E+03  0.47000000000E+01 0. -1.
        -11    1    6    6    0    0  0.27612191433E+02  0.21472831163E+02  0.18744716763E+00  0.34979290020E+02  0.00000000000E+00 0.  1.
         12    1    6    6    0    0 -0.15752363842E+02  0.32115915908E+01  0.77348069287E+02  0.79001108281E+02  0.00000000000E+00 0. -1.
         -5    1    3    3    0  503 -0.78170947037E+02 -0.10982666862E+03  0.29146552988E+02  0.13800074511E+03  0.47000000000E+01 0.  1.
         13    1    4    4    0    0  0.91580760966E+01 -0.57079758973E+02  0.98613215955E+02  0.11430894805E+03  0.00000000000E+00 0. -1.
        -14    1    4    4    0    0 -0.37799888403E+01  0.20314909303E+02  0.11134378363E+02  0.23472499593E+02  0.00000000000E+00 0.  1.
</event>
<event>
12    1  0.8406581E-002  0.1972281E+03  0.7818608E-02  0.1152496E+00
         21   -1    0    0  501  502  0.00000000000E+00  0.00000000000E+00  0.59819891546E+03  0.59819891546E+03  0.00000000000E+00 0. -1.
         21   -1    0    0  502  503 -0.00000000000E+00 -0.00000000000E+00 -0.10004840788E+03  0.10004840788E+03  0.00000000000E+00 0.  1.
         -6    2    1    2    0  503 -0.68906816547E+02 -0.63308516999E+02  0.41492045448E+02  0.20154531035E+03  0.17361683270E+03 0.  0.
        -24    2    3    3    0    0  0.73542178381E+01 -0.18996815120E+02 -0.30060387266E+02  0.87874237002E+02  0.80020566990E+02 0.  0.
          6    2    1    2  501    0  0.68906816547E+02  0.63308516999E+02  0.45665846213E+03  0.49670201299E+03  0.17152207142E+03 0.  0.
         24    2    5    5    0    0  0.90569000303E+01  0.52782341670E+02  0.87535209633E+02  0.12258053752E+03  0.67049028502E+02 0.  0.
          5    1    5    5  501    0  0.59849916517E+02  0.10526175330E+02  0.36912325249E+03  0.37412147547E+03  0.47000000000E+01 0. -1.
        -11    1    6    6    0    0  0.19211500275E+02  0.63706923263E+02  0.53363119945E+02  0.85295230726E+02  0.00000000000E+00 0.  1.
         12    1    6    6    0    0 -0.10154600244E+02 -0.10924581593E+02  0.34172089688E+02  0.37285306795E+02  0.00000000000E+00 0. -1.
         -5    1    3    3    0  503 -0.76261034386E+02 -0.44311701879E+02  0.71552432714E+02  0.11367107335E+03  0.47000000000E+01 0.  1.
         11    1    4    4    0    0  0.41779353038E+02 -0.22903334167E+02 -0.13809749928E+02  0.49606312595E+02  0.00000000000E+00 0. -1.
        -12    1    4    4    0    0 -0.34425135200E+02  0.39065190464E+01 -0.16250637338E+02  0.38267924407E+02  0.00000000000E+00 0.  1.
</event>
<event>
12    1  0.8406581E-002  0.1970821E+03  0.7818608E-02  0.1152233E+00
         21   -1    0    0  501  502  0.00000000000E+00  0.00000000000E+00  0.23711785586E+03  0.23711785586E+03  0.00000000000E+00 0.  1.
         21   -1    0    0  502  503 -0.00000000000E+00 -0.00000000000E+00 -0.16664897819E+03  0.16664897819E+03  0.00000000000E+00 0.  1.
         -6    2    1    2    0  503  0.20481910331E+02  0.93347950343E+02  0.87134961853E+01  0.19723577124E+03  0.17231562888E+03 0.  0.
        -24    2    3    3    0    0 -0.46990902948E+02  0.47298408580E+02  0.36367165242E+02  0.11086473304E+03  0.80765920469E+02 0.  0.
          6    2    1    2  501    0 -0.20481910331E+02 -0.93347950343E+02  0.61755381483E+02  0.20653106281E+03  0.17236010061E+03 0.  0.
         24    2    5    5    0    0  0.54062441652E+02 -0.67852559698E+02  0.35898447030E+02  0.12347959434E+03  0.80198467965E+02 0.  0.
          5    1    5    5  501    0 -0.74544351983E+02 -0.25495390645E+02  0.25856934453E+02  0.83051468476E+02  0.47000000000E+01 0. -1.
        -13    1    6    6    0    0 -0.77819030624E+01 -0.33337296059E+02  0.39862586829E+02  0.52544829931E+02  0.00000000000E+00 0.  1.
         14    1    6    6    0    0  0.61844344715E+02 -0.34515263638E+02 -0.39641397982E+01  0.70934764407E+02  0.00000000000E+00 0. -1.
         -5    1    3    3    0  503  0.67472813279E+02  0.46049541763E+02 -0.27653669057E+02  0.86371038206E+02  0.47000000000E+01 0.  1.
         13    1    4    4    0    0  0.18322819159E+02 -0.71779156552E+01  0.66177119045E+01  0.20761557888E+02  0.00000000000E+00 0. -1.
        -14    1    4    4    0    0 -0.65313722108E+02  0.54476324235E+02  0.29749453338E+02  0.90103175147E+02  0.00000000000E+00 0.  1.
</event>
<event>
12    1  0.8406581E-002  0.2020324E+03  0.7818608E-02  0.1148224E+00
         21   -1    0    0  501  502  0.00000000000E+00  0.00000000000E+00  0.10173328300E+03  0.10173328300E+03  0.00000000000E+00 0. -1.
         21   -1    0    0  502  503 -0.00000000000E+00 -0.00000000000E+00 -0.43684273697E+03  0.43684273697E+03  0.00000000000E+00 0. -1.
         -6    2    1    2    0  503 -0.29373884033E+01 -0.10579068760E+03 -0.24670576761E+03  0.31887429640E+03  0.17209527390E+03 0.  0.
        -24    2    3    3    0    0 -0.25080177756E+02 -0.42161188650E+01 -0.16145254199E+03  0.18434586590E+03  0.85262441814E+02 0.  0.
          6    2    1    2  501    0  0.29373884033E+01  0.10579068760E+03 -0.88403686358E+02  0.21970172357E+03  0.17103607147E+03 0.  0.
         24    2    5    5    0    0 -0.17198677844E+02  0.13021008047E+03 -0.10254030416E+03  0.18472027313E+03  0.79728324657E+02 0.  0.
          5    1    5    5  501    0  0.20136066247E+02 -0.24419392868E+02  0.14136617804E+02  0.34981450440E+02  0.47000000000E+01 0. -1.
        -13    1    6    6    0    0 -0.39851748573E+02  0.63933465436E+02 -0.82813712521E+02  0.11195428017E+03  0.00000000000E+00 0.  1.
         14    1    6    6    0    0  0.22653070730E+02  0.66276615033E+02 -0.19726591641E+02  0.72765992960E+02  0.00000000000E+00 0. -1.
         -5    1    3    3    0  503  0.22142789353E+02 -0.10157456874E+03 -0.85253225620E+02  0.13452843050E+03  0.47000000000E+01 0.  1.
         11    1    4    4    0    0 -0.52905465236E+02 -0.20244867854E+02 -0.96760863510E+02  0.11212273469E+03  0.00000000000E+00 0. -1.
        -12    1    4    4    0    0  0.27825287480E+02  0.16028748988E+02 -0.64691678484E+02  0.72223131215E+02  0.00000000000E+00 0.  1.
</event>
<event>
12    1  0.8406581E-002  0.3019635E+03  0.7818608E-02  0.1084527E+00
         21   -1    0    0  503  502  0.00000000000E+00  0.00000000000E+00  0.60444201177E+02  0.60444201177E+02  0.00000000000E+00 0.  1.
         21   -1    0    0  501  503 -0.00000000000E+00 -0.00000000000E+00 -0.15133950817E+04  0.15133950817E+04  0.00000000000E+00 0. -1.
          6    2    1    2  501    0  0.18561424411E+03  0.16233409513E+03 -0.80854986476E+03  0.86309609354E+03  0.17428992173E+03 0.  0.
         24    2    3    3    0    0  0.10955961907E+03  0.93512474672E+02 -0.67463331756E+03  0.69434641784E+03  0.78986972108E+02 0.  0.
         -6    2    1    2    0  502 -0.18561424411E+03 -0.16233409513E+03 -0.64440101576E+03  0.71074318933E+03  0.17058196275E+03 0.  0.
        -24    2    5    5    0    0 -0.46610153373E+02 -0.54698061363E+02 -0.13488885485E+03  0.17173262810E+03  0.78311608828E+02 0.  0.
          5    1    3    3  501    0  0.76054625040E+02  0.68821620456E+02 -0.13391654720E+03  0.16874967569E+03  0.47000000000E+01 0. -1.
        -13    1    4    4    0    0  0.48908892884E+02 -0.26008526897E+01 -0.25095933607E+03  0.25569402144E+03  0.00000000000E+00 0.  1.
         14    1    4    4    0    0  0.60650726189E+02  0.96113327361E+02 -0.42367398148E+03  0.43865239640E+03  0.00000000000E+00 0. -1.
         -5    1    5    5    0  502 -0.13900409074E+03 -0.10763603376E+03 -0.50951216091E+03  0.53901056123E+03  0.47000000000E+01 0.  1.
         13    1    6    6    0    0 -0.15946733493E+02 -0.73105773508E+01  0.71088781455E+01  0.18928259264E+02  0.00000000000E+00 0. -1.
        -14    1    6    6    0    0 -0.30663419880E+02 -0.47387484013E+02 -0.14199773299E+03  0.15280436883E+03  0.00000000000E+00 0.  1.
</event>
<event>
12    1  0.8406581E-002  0.2057409E+03  0.7818608E-02  0.1145121E+00
         21   -1    0    0  503  502  0.00000000000E+00  0.00000000000E+00  0.15924704452E+04  0.15924704452E+04  0.00000000000E+00 0.  1.
         21   -1    0    0  501  503 -0.00000000000E+00 -0.00000000000E+00 -0.86002067278E+02  0.86002067278E+02  0.00000000000E+00 0. -1.
          6    2    1    2  501    0  0.16791378712E+02  0.11028215483E+03  0.54756217992E+02  0.21225373234E+03  0.17207352908E+03 0.  0.
         24    2    3    3    0    0  0.20477818797E+02 -0.10000261269E+02  0.16561281449E+02  0.85911369529E+02  0.81161204298E+02 0.  0.
         -6    2    1    2    0  502 -0.16791378712E+02 -0.11028215483E+03  0.14517121599E+04  0.14662187802E+04  0.17287339839E+03 0.  0.
        -24    2    5    5    0    0 -0.50367250666E+02 -0.35293396861E+02  0.44898021440E+03  0.46011535723E+03  0.79626787180E+02 0.  0.
          5    1    3    3  501    0 -0.36864400853E+01  0.12028241610E+03  0.38194936543E+02  0.12634236281E+03  0.47000000000E+01 0. -1.
        -13    1    4    4    0    0 -0.23291562407E+01  0.29768207001E+02  0.25425962588E+02  0.39217989371E+02  0.00000000000E+00 0.  1.
         14    1    4    4    0    0  0.22806975038E+02 -0.39768468270E+02 -0.88646811386E+01  0.46693380158E+02  0.00000000000E+00 0. -1.
         -5    1    5    5    0  502  0.33575871955E+02 -0.74988757968E+02  0.10027319455E+04  0.10061034229E+04  0.47000000000E+01 0.  1.
         13    1    6    6    0    0 -0.20501502803E+02 -0.36776150140E+02  0.84483858798E+02  0.94394487306E+02  0.00000000000E+00 0. -1.
        -14    1    6    6    0    0 -0.29865747863E+02  0.14827532792E+01  0.36449635560E+03  0.36572086993E+03  0.00000000000E+00 0.  1.
</event>
<event>
12    1  0.8406581E-002  0.1964859E+03  0.7818608E-02  0.1152971E+00
         21   -1    0    0  503  502  0.00000000000E+00  0.00000000000E+00  0.69240521856E+02  0.69240521856E+02  0.00000000000E+00 0.  1.
         21   -1    0    0  501  503 -0.00000000000E+00 -0.00000000000E+00 -0.57150025359E+03  0.57150025359E+03  0.00000000000E+00 0.  1.
          6    2    1    2  501    0 -0.77132328531E+02  0.55855021703E+02 -0.19658246620E+03  0.27794132417E+03  0.17186487166E+03 0.  0.
         24    2    3    3    0    0 -0.11647995434E+03  0.18908164217E+02 -0.13105443556E+03  0.19291592364E+03  0.78206074439E+02 0.  0.
         -6    2    1    2    0  502  0.77132328531E+02 -0.55855021703E+02 -0.30567726553E+03  0.36279945127E+03  0.17063314926E+03 0.  0.
        -24    2    5    5    0    0 -0.15499568706E+02 -0.58528349852E+02 -0.12836215749E+03  0.16267310966E+03  0.79497753194E+02 0.  0.
          5    1    3    3  501    0  0.39347625810E+02  0.36946857486E+02 -0.65528030647E+02  0.85025400531E+02  0.47000000000E+01 0. -1.
        -13    1    4    4    0    0  0.20519696328E+01 -0.78337790363E+01  0.57557207655E+01  0.99351393998E+01  0.00000000000E+00 0.  1.
         14    1    4    4    0    0 -0.11853192397E+03  0.26741943253E+02 -0.13681015632E+03  0.18298078424E+03  0.00000000000E+00 0. -1.
         -5    1    5    5    0  502  0.92631897236E+02  0.26733281484E+01 -0.17731510804E+03  0.20012634162E+03  0.47000000000E+01 0.  1.
         11    1    6    6    0    0 -0.49309822577E+00 -0.65337062275E+02 -0.49139943821E+02  0.81755176786E+02  0.00000000000E+00 0. -1.
        -12    1    6    6    0    0 -0.15006470480E+02  0.68087124234E+01 -0.79222213671E+02  0.80917932871E+02  0.00000000000E+00 0.  1.
</event>
<event>
12    1  0.8406581E-002  0.2609214E+03  0.7818608E-02  0.1106764E+00
         21   -1    0    0  503  502  0.00000000000E+00  0.00000000000E+00  0.15080828711E+03  0.15080828711E+03  0.00000000000E+00 0. -1.
         21   -1    0    0  501  503 -0.00000000000E+00 -0.00000000000E+00 -0.64507074090E+03  0.64507074090E+03  0.00000000000E+00 0.  1.
          6    2    1    2  501    0  0.58448770178E+02  0.18529850366E+03 -0.46666023936E+03  0.53465105079E+03  0.17414985764E+03 0.  0.
         24    2    3    3    0    0  0.90884093152E+02  0.14982781593E+03 -0.43828029115E+03  0.47863559467E+03  0.79335528318E+02 0.  0.
         -6    2    1    2    0  502 -0.58448770178E+02 -0.18529850366E+03 -0.27602214437E+02  0.26122797722E+03  0.17241339753E+03 0.  0.
        -24    2    5    5    0    0  0.18766742154E+02 -0.70550782667E+02 -0.54302772609E+02  0.12028726407E+03  0.78680564550E+02 0.  0.
          5    1    3    3  501    0 -0.32435322974E+02  0.35470687728E+02 -0.28379948203E+02  0.56015456120E+02  0.47000000000E+01 0. -1.
        -13    1    4    4    0    0  0.16163796771E+02  0.28827094297E+02 -0.18704972661E+03  0.18994701871E+03  0.00000000000E+00 0.  1.
         14    1    4    4    0    0  0.74720296381E+02  0.12100072163E+03 -0.25123056454E+03  0.28868857595E+03  0.00000000000E+00 0. -1.
         -5    1    5    5    0  502 -0.77215512332E+02 -0.11474772099E+03  0.26700558172E+02  0.14094071315E+03  0.47000000000E+01 0.  1.
         13    1    6    6    0    0 -0.18837522361E+02 -0.61588768475E+02 -0.17101124578E+02  0.66636905036E+02  0.00000000000E+00 0. -1.
        -14    1    6    6    0    0  0.37604264514E+02 -0.89620141928E+01 -0.37201648031E+02  0.53650359032E+02  0.00000000000E+00 0.  1.
</event>
<event>
12    1  0.8406581E-002  0.1734418E+03  0.7818608E-02  0.1174506E+00
         21   -1    0    0  503  502  0.00000000000E+00  0.00000000000E+00  0.14340239955E+03  0.14340239955E+03  0.00000000000E+00 0.  1.
         21   -1    0    0  501  503 -0.00000000000E+00 -0.00000000000E+00 -0.26800528059E+03  0.26800528059E+03  0.00000000000E+00 0.  1.
          6    2    1    2  501    0 -0.13482589414E+02 -0.81530445373E+01 -0.15907550105E+03  0.23534457508E+03  0.17272464107E+03 0.  0.
         24    2    3    3    0    0 -0.55721332818E+02 -0.16587700190E+01 -0.16497974112E+03  0.19194829532E+03  0.80735460924E+02 0.  0.
         -6    2    1    2    0  502  0.13482589414E+02  0.81530445373E+01  0.34472620004E+02  0.17606310506E+03  0.17193488035E+03 0.  0.
        -24    2    5    5    0    0 -0.58200820851E+02  0.90269004973E+01  0.31671262335E+02  0.10416586912E+03  0.79866381858E+02 0.  0.
          5    1    3    3  501    0  0.42238743404E+02 -0.64942745183E+01  0.59042400692E+01  0.43396279756E+02  0.47000000000E+01 0. -1.
        -13    1    4    4    0    0 -0.13240594651E+02 -0.24526288510E+02 -0.99655046197E+01  0.29600058397E+02  0.00000000000E+00 0.  1.
         14    1    4    4    0    0 -0.42480738167E+02  0.22867518491E+02 -0.15501423650E+03  0.16234823693E+03  0.00000000000E+00 0. -1.
         -5    1    5    5    0  502  0.71683410265E+02 -0.87385595996E+00  0.28013576688E+01  0.71897235943E+02  0.47000000000E+01 0.  1.
         13    1    6    6    0    0 -0.22046577151E+02 -0.26209700910E+02 -0.13119041684E+02  0.36675730948E+02  0.00000000000E+00 0. -1.
        -14    1    6    6    0    0 -0.36154243701E+02  0.35236601407E+02  0.44790304019E+02  0.67490138172E+02  0.00000000000E+00 0.  1.
</event>
<event>
12    1  0.8406581E-002  0.2939879E+03  0.7818608E-02  0.1088398E+00
         21   -1    0    0  503  502  0.00000000000E+00  0.00000000000E+00  0.98939509764E+02  0.98939509764E+02  0.00000000000E+00 0.  1.
         21   -1    0    0  501  503 -0.00000000000E+00 -0.00000000000E+00 -0.12236258523E+04  0.12236258523E+04  0.00000000000E+00 0.  1.
          6    2    1    2  501    0  0.22364361973E+03 -0.81216851575E+02 -0.91795574947E+03  0.96388361582E+03  0.17267374217E+03 0.  0.
         24    2    3    3    0    0  0.12503805023E+03 -0.16830801013E+02 -0.70504298129E+03  0.72052676118E+03  0.78456473598E+02 0.  0.
         -6    2    1    2    0  502 -0.22364361973E+03  0.81216851575E+02 -0.20673059307E+03  0.35868174625E+03  0.17117947118E+03 0.  0.
        -24    2    5    5    0    0 -0.73537568572E+02  0.22959226494E+01 -0.21478293607E+02  0.10748293241E+03  0.75353954179E+02 0.  0.
          5    1    3    3  501    0  0.98605569503E+02 -0.64386050562E+02 -0.21291276818E+03  0.24335685463E+03  0.47000000000E+01 0. -1.
        -13    1    4    4    0    0  0.24332888917E+02  0.21512285727E+02 -0.28648627892E+03  0.28832144549E+03  0.00000000000E+00 0.  1.
         14    1    4    4    0    0  0.10070516131E+03 -0.38343086739E+02 -0.41855670237E+03  0.43220531569E+03  0.00000000000E+00 0. -1.
         -5    1    5    5    0  502 -0.15010605116E+03  0.78920928925E+02 -0.18525229947E+03  0.25119881384E+03  0.47000000000E+01 0.  1.
         11    1    6    6    0    0 -0.51990119692E+02 -0.27589617427E+02 -0.34716972722E+02  0.68333211035E+02  0.00000000000E+00 0. -1.
        -12    1    6    6    0    0 -0.21547448880E+02  0.29885540076E+02  0.13238679115E+02  0.39149721373E+02  0.00000000000E+00 0.  1.
</event>
<event>
12    1  0.8406581E-002  0.2073198E+03  0.7818608E-02  0.1143901E+00
         21   -1    0    0  503  502  0.00000000000E+00  0.00000000000E+00  0.25493081169E+03  0.25493081169E+03  0.00000000000E+00 0.  1.
         21   -1    0    0  501  503 -0.00000000000E+00 -0.00000000000E+00 -0.17329674005E+03  0.17329674005E+03  0.00000000000E+00 0.  1.
          6    2    1    2  501    0 -0.11107302297E+03 -0.35089082701E+01  0.26543052739E+01  0.20637327209E+03  0.17387740862E+03 0.  0.
         24    2    3    3    0    0 -0.19651125979E+02  0.53710198445E+02 -0.36654391805E+01  0.98234386429E+02  0.79784754580E+02 0.  0.
         -6    2    1    2    0  502  0.11107302297E+03  0.35089082701E+01  0.78979766362E+02  0.22185427966E+03  0.17501996754E+03 0.  0.
        -24    2    5    5    0    0  0.13098640708E+02 -0.50882456085E+02  0.32139205072E+02  0.10030787585E+03  0.79171603054E+02 0.  0.
          5    1    3    3  501    0 -0.91421896987E+02 -0.57219106715E+02  0.63197444544E+01  0.10813888566E+03  0.47000000000E+01 0. -1.
        -13    1    4    4    0    0  0.46866192332E+01 -0.16735650052E+02  0.13193362986E+02  0.21819972717E+02  0.00000000000E+00 0.  1.
         14    1    4    4    0    0 -0.24337745212E+02  0.70445848497E+02 -0.16858802166E+02  0.76414413712E+02  0.00000000000E+00 0. -1.
         -5    1    5    5    0  502  0.97974382257E+02  0.54391364355E+02  0.46840561290E+02  0.12154640380E+03  0.47000000000E+01 0.  1.
         13    1    6    6    0    0  0.89174839823E+00 -0.23616539992E+02  0.56831951925E+02  0.61550036036E+02  0.00000000000E+00 0. -1.
        -14    1    6    6    0    0  0.12206892310E+02 -0.27265916093E+02 -0.24692746853E+02  0.38757839819E+02  0.00000000000E+00 0.  1.
</event>
<event>
12    1  0.8406581E-002  0.1878283E+03  0.7818608E-02  0.1161004E+00
         21   -1    0    0  501  502  0.00000000000E+00  0.00000000000E+00  0.45396646056E+03  0.45396646056E+03  0.00000000000E+00 0.  1.
         21   -1    0    0  502  503 -0.00000000000E+00 -0.00000000000E+00 -0.10251099092E+03  0.10251099092E+03  0.00000000000E+00 0.  1.
         -6    2    1    2    0  503 -0.38309978953E+02 -0.64906549176E+02  0.35229848351E+02  0.18867573772E+03  0.16934248485E+03 0.  0.
        -24    2    3    3    0    0 -0.31178510575E+02 -0.17406459141E+02  0.82064750062E+02  0.12142460827E+03  0.82062341840E+02 0.  0.
          6    2    1    2  501    0  0.38309978953E+02  0.64906549176E+02  0.31622562129E+03  0.36780171375E+03  0.17204343192E+03 0.  0.
         24    2    5    5    0    0 -0.28149613121E+02  0.38534165118E+02  0.26777564838E+03  0.28130391092E+03  0.71769142640E+02 0.  0.
          5    1    5    5  501    0  0.66459592073E+02  0.26372384057E+02  0.48449972908E+02  0.86497802829E+02  0.47000000000E+01 0. -1.
        -11    1    6    6    0    0 -0.35142801824E+02  0.49496658955E+02  0.13654342335E+03  0.14942905416E+03  0.00000000000E+00 0.  1.
         12    1    6    6    0    0  0.69931887034E+01 -0.10962493836E+02  0.13123222503E+03  0.13187485676E+03  0.00000000000E+00 0. -1.
         -5    1    3    3    0  503 -0.71314683775E+01 -0.47500090034E+02 -0.46834901711E+02  0.67251129454E+02  0.47000000000E+01 0.  1.
         13    1    4    4    0    0 -0.74643238110E+01  0.30497905307E+02  0.12737344912E+02  0.33883304347E+02  0.00000000000E+00 0. -1.
        -14    1    4    4    0    0 -0.23714186764E+02 -0.47904364448E+02  0.69327405150E+02  0.87541303919E+02  0.00000000000E+00 0.  1.
</event>
<event>
12    1  0.8406581E-002  0.2033031E+03  0.7818608E-02  0.1147042E+00
         21   -1    0    0  503  502  0.00000000000E+00  0.00000000000E+00  0.84860883796E+03  0.84860883796E+03  0.00000000000E+00 0. -1.
         21   -1    0    0  501  503 -0.00000000000E+00 -0.00000000000E+00 -0.10252140021E+03  0.10252140021E+03  0.00000000000E+00 0. -1.
          6    2    1    2  501    0 -0.10456281238E+03  0.22147472478E+02  0.28142028354E+02  0.20495482463E+03  0.17259957737E+03 0.  0.
         24    2    3    3    0    0 -0.13037615072E+03  0.38094982451E+02  0.52062147427E+02  0.16603293353E+03  0.80045608608E+02 0.  0.
         -6    2    1    2    0  502  0.10456281238E+03 -0.22147472478E+02  0.71794540940E+03  0.74617541354E+03  0.17294000296E+03 0.  0.
        -24    2    5    5    0    0  0.43546475592E+02 -0.34042917497E+02  0.63745891813E+03  0.64436843812E+03  0.76168208394E+02 0.  0.
          5    1    3    3  501    0  0.25813338334E+02 -0.15947509974E+02 -0.23920119073E+02  0.38921891100E+02  0.47000000000E+01 0. -1.
        -13    1    4    4    0    0  0.56471961685E+01  0.16387145660E+02  0.16133896592E+02  0.23679780123E+02  0.00000000000E+00 0.  1.
         14    1    4    4    0    0 -0.13602334689E+03  0.21707836792E+02  0.35928250835E+02  0.14235315341E+03  0.00000000000E+00 0. -1.
         -5    1    5    5    0  502  0.61016336792E+02  0.11895445019E+02  0.80486491267E+02  0.10180697542E+03  0.47000000000E+01 0.  1.
         11    1    6    6    0    0  0.38898087218E+02 -0.17447250664E+02  0.13407619517E+03  0.14069077388E+03  0.00000000000E+00 0. -1.
        -12    1    6    6    0    0  0.46483883735E+01 -0.16595666833E+02  0.50338272297E+03  0.50367766424E+03  0.00000000000E+00 0.  1.
</event>
<event>
12    1  0.8406581E-002  0.1846725E+03  0.7818608E-02  0.1163421E+00
         21   -1    0    0  501  502  0.00000000000E+00  0.00000000000E+00  0.47065638864E+03  0.47065638864E+03  0.00000000000E+00 0.  1.
         21   -1    0    0  502  503 -0.00000000000E+00 -0.00000000000E+00 -0.17557866949E+03  0.17557866949E+03  0.00000000000E+00 0.  1.
         -6    2    1    2    0  503  0.42355642244E+02 -0.51312661938E+02 -0.10017032161E+03  0.21009051886E+03  0.17226997149E+03 0.  0.
        -24    2    3    3    0    0 -0.31061709864E+02 -0.84090639501E+01 -0.89859073598E+02  0.12430451681E+03  0.79633018380E+02 0.  0.
          6    2    1    2  501    0 -0.42355642244E+02  0.51312661938E+02  0.39524804077E+03  0.43614453928E+03  0.17197108974E+03 0.  0.
         24    2    5    5    0    0 -0.36577073926E+02  0.64054761621E+02  0.12425555063E+03  0.16475041137E+03  0.79135082981E+02 0.  0.
          5    1    5    5  501    0 -0.57785683182E+01 -0.12742099682E+02  0.27099249013E+03  0.27139412791E+03  0.47000000000E+01 0. -1.
        -13    1    6    6    0    0 -0.56120228867E+02  0.67871451868E+02  0.10509414937E+03  0.13711598849E+03  0.00000000000E+00 0.  1.
         14    1    6    6    0    0  0.19543154941E+02 -0.38166902469E+01  0.19161401259E+02  0.27634422876E+02  0.00000000000E+00 0. -1.
         -5    1    3    3    0  503  0.73417352108E+02 -0.42903597988E+02 -0.10311248015E+02  0.85786002043E+02  0.47000000000E+01 0.  1.
         13    1    4    4    0    0  0.16652777921E+02  0.19014163016E+01  0.51110643825E+01  0.17522938554E+02  0.00000000000E+00 0. -1.
        -14    1    4    4    0    0 -0.47714487785E+02 -0.10310480252E+02 -0.94970137980E+02  0.10678157826E+03  0.00000000000E+00 0.  1.
</event>
<event>
12    1  0.8406581E-002  0.2670347E+03  0.7818608E-02  0.1103151E+00
         21   -1    0    0  503  502  0.00000000000E+00  0.00000000000E+00  0.46841415533E+03  0.46841415533E+03  0.00000000000E+00 0.  1.
         21   -1    0    0  501  503 -0.00000000000E+00 -0.00000000000E+00 -0.28022573161E+03  0.28022573161E+03  0.00000000000E+00 0. -1.
          6    2    1    2  501    0 -0.15702905927E+03 -0.12852793911E+03 -0.15961647358E+03  0.31014724892E+03  0.17186139994E+03 0.  0.
         24    2    3    3    0    0 -0.49454099449E+02 -0.45233440699E+02 -0.13618143238E+03  0.17201095173E+03  0.80935856591E+02 0.  0.
         -6    2    1    2    0  502  0.15702905927E+03  0.12852793911E+03  0.34780489730E+03  0.43849263801E+03  0.17357992514E+03 0.  0.
        -24    2    5    5    0    0  0.87981571186E+01  0.31114056124E+02  0.86673734275E+02  0.12278163209E+03  0.80731040557E+02 0.  0.
          5    1    3    3  501    0 -0.10757495982E+03 -0.83294498410E+02 -0.23435041207E+02  0.13813629719E+03  0.47000000000E+01 0. -1.
        -13    1    4    4    0    0 -0.64187193601E+01 -0.45146520604E+02 -0.23308705455E+02  0.51212342564E+02  0.00000000000E+00 0.  1.
         14    1    4    4    0    0 -0.43035380089E+02 -0.86920095502E-01 -0.11287272692E+03  0.12079860917E+03  0.00000000000E+00 0. -1.
         -5    1    5    5    0  502  0.14823090215E+03  0.97413882985E+02  0.26113116303E+03  0.31571100591E+03  0.47000000000E+01 0.  1.
         11    1    6    6    0    0 -0.24481958922E+02 -0.85763872814E+01  0.58095847415E+02  0.63624273813E+02  0.00000000000E+00 0. -1.
        -12    1    6    6    0    0  0.33280116041E+02  0.39690443405E+02  0.28577886860E+02  0.59157358281E+02  0.00000000000E+00 0.  1.
</event>
<event>
12    1  0.8406581E-002  0.1803067E+03  0.7818608E-02  0.1170001E+00
         21   -1    0    0  503  502  0.00000000000E+00  0.00000000000E+00  0.11522670039E+03  0.11522670039E+03  0.00000000000E+00 0. -1.
         21   -1    0    0  501  503 -0.00000000000E+00 -0.00000000000E+00 -0.46005974985E+03  0.46005974985E+03  0.00000000000E+00 0. -1.
          6    2    1    2  501    0 -0.23050074841E+02  0.43776177475E+01 -0.36171572582E+03  0.40416427243E+03  0.17877366504E+03 0.  0.
         24    2    3    3    0    0 -0.38172924729E+02  0.55110412196E+02 -0.13577220535E+03  0.17205420917E+03  0.81695957264E+02 0.  0.
         -6    2    1    2    0  502  0.23050074841E+02 -0.43776177475E+01  0.16882676360E+02  0.17112217780E+03  0.16866329028E+03 0.  0.
        -24    2    5    5    0    0  0.43850431058E+02 -0.58968274081E+02  0.18419473537E+02  0.11249414421E+03  0.83159712746E+02 0.  0.
          5    1    3    3  501    0  0.15122849887E+02 -0.50732794449E+02 -0.22594352047E+03  0.23211006326E+03  0.47000000000E+01 0. -1.
        -13    1    4    4    0    0 -0.53169836622E+02  0.64787128469E+02 -0.90281101528E+02  0.12318717805E+03  0.00000000000E+00 0.  1.
         14    1    4    4    0    0  0.14996911894E+02 -0.96767162728E+01 -0.45491103819E+02  0.48867031124E+02  0.00000000000E+00 0. -1.
         -5    1    5    5    0  502 -0.20800356217E+02  0.54590656334E+02 -0.15367971778E+01  0.58628033595E+02  0.47000000000E+01 0.  1.
         13    1    6    6    0    0 -0.16619848824E+02 -0.22005288253E+02  0.29925342118E+02  0.40693711884E+02  0.00000000000E+00 0. -1.
        -14    1    6    6    0    0  0.60470279882E+02 -0.36962985828E+02 -0.11505868581E+02  0.71800432326E+02  0.00000000000E+00 0.  1.
</event>
<event>
12    1  0.8406581E-002  0.1820105E+03  0.7818608E-02  0.1165970E+00
         21   -1    0    0  501  502  0.00000000000E+00  0.00000000000E+00  0.17706194714E+03  0.17706194714E+03  0.00000000000E+00 0. -1.
         21   -1    0    0  502  503 -0.00000000000E+00 -0.00000000000E+00 -0.32661350430E+03  0.32661350430E+03  0.00000000000E+00 0. -1.
         -6    2    1    2    0  503  0.55707644716E+02  0.15044833133E+02 -0.23966790478E+03  0.30094603094E+03  0.17262132045E+03 0.  0.
        -24    2    3    3    0    0  0.22884880156E+02  0.76478518500E+02 -0.15222535135E+03  0.18905446860E+03  0.78716916703E+02 0.  0.
          6    2    1    2  501    0 -0.55707644716E+02 -0.15044833133E+02  0.90116347617E+02  0.20272942050E+03  0.17218761031E+03 0.  0.
         24    2    5    5    0    0 -0.17975540559E+02  0.22165440729E+02 -0.16069433019E+02  0.83961469541E+02  0.77310250735E+02 0.  0.
          5    1    5    5  501    0 -0.37732104157E+02 -0.37210273862E+02  0.10618578064E+03  0.11876795096E+03  0.47000000000E+01 0. -1.
        -13    1    6    6    0    0 -0.45396774985E+02  0.19324093337E+02 -0.24562972508E+02  0.55114674823E+02  0.00000000000E+00 0.  1.
         14    1    6    6    0    0  0.27421234426E+02  0.28413473912E+01  0.84935394896E+01  0.28846794718E+02  0.00000000000E+00 0. -1.
         -5    1    3    3    0  503  0.32822764560E+02 -0.61433685367E+02 -0.87442553434E+02  0.11189156234E+03  0.47000000000E+01 0.  1.
         11    1    4    4    0    0 -0.87484574350E+01  0.61068803890E+02 -0.13788591020E+03  0.15105779870E+03  0.00000000000E+00 0. -1.
        -12    1    4    4    0    0  0.31633337591E+02  0.15409714610E+02 -0.14339441145E+02  0.37996669905E+02  0.00000000000E+00 0.  1.
</event>
<event>
12    1  0.8406581E-002  0.2913612E+03  0.7818608E-02  0.1089644E+00
         21   -1    0    0  503  502  0.00000000000E+00  0.00000000000E+00  0.70697907992E+02  0.70697907992E+02  0.00000000000E+00 0.  1.
         21   -1    0    0  501  503 -0.00000000000E+00 -0.00000000000E+00 -0.15869320832E+04  0.15869320832E+04  0.00000000000E+00 0. -1.
          6    2    1    2  501    0  0.11981493212E+03 -0.20246385226E+03 -0.11670652846E+04  0.12028851730E+04  0.17188406441E+03 0.  0.
         24    2    3    3    0    0  0.10851451575E+01 -0.87023455790E+02 -0.62430029850E+03  0.63540022384E+03  0.80051997763E+02 0.  0.
         -6    2    1    2    0  502 -0.11981493212E+03  0.20246385226E+03 -0.34916889058E+03  0.45474481811E+03  0.17183336702E+03 0.  0.
        -24    2    5    5    0    0 -0.38624353106E+02  0.14038417576E+03 -0.12055408768E+03  0.20428002126E+03  0.77443408860E+02 0.  0.
          5    1    3    3  501    0  0.11872978696E+03 -0.11544039647E+03 -0.54276498608E+03  0.56748494920E+03  0.47000000000E+01 0. -1.
        -13    1    4    4    0    0 -0.12206617835E+02 -0.11924879682E+02 -0.19932700425E+02  0.26239604049E+02  0.00000000000E+00 0.  1.
         14    1    4    4    0    0  0.13291762992E+02 -0.75098576109E+02 -0.60436759807E+03  0.60916061979E+03  0.00000000000E+00 0. -1.
         -5    1    5    5    0  502 -0.81190579015E+02  0.62079676503E+02 -0.22861480290E+03  0.25046479685E+03  0.47000000000E+01 0.  1.
         13    1    6    6    0    0  0.38786973109E+01  0.81360666777E+01 -0.45512004582E+02  0.46395931232E+02  0.00000000000E+00 0. -1.
        -14    1    6    6    0    0 -0.42503050417E+02  0.13224810908E+03 -0.75042083097E+02  0.15788409003E+03  0.00000000000E+00 0.  1.
</event>
<event>
12    1  0.8406581E-002  0.1928825E+03  0.7818608E-02  0.1156445E+00
         21   -1    0    0  501  502  0.00000000000E+00  0.00000000000E+00  0.12614483134E+04  0.12614483134E+04  0.00000000000E+00 0.  1.
         21   -1    0    0  502  503 -0.00000000000E+00 -0.00000000000E+00 -0.36043178682E+02  0.36043178682E+02  0.00000000000E+00 0.  1.
         -6    2    1    2    0  503 -0.84680096957E+02  0.17020518718E+02  0.32495029260E+03  0.37661007900E+03  0.16965271017E+03 0.  0.
        -24    2    3    3    0    0 -0.53027359750E+02  0.19783455037E+02  0.32935829279E+03  0.34419017685E+03  0.82381471422E+02 0.  0.
          6    2    1    2  501    0  0.84680096957E+02 -0.17020518718E+02  0.90045484212E+03  0.92088141309E+03  0.17246227815E+03 0.  0.
         24    2    5    5    0    0  0.19888256210E+02 -0.63559054157E+02  0.63293845467E+03  0.64168448354E+03  0.81930415131E+02 0.  0.
          5    1    5    5  501    0  0.64791840747E+02  0.46538535439E+02  0.26751638746E+03  0.27919692954E+03  0.47000000000E+01 0. -1.
        -11    1    6    6    0    0  0.34311356102E+02 -0.50358728129E+02  0.60206384266E+03  0.60513977005E+03  0.00000000000E+00 0.  1.
         12    1    6    6    0    0 -0.14423099892E+02 -0.13200326028E+02  0.30874612002E+02  0.36544713489E+02  0.00000000000E+00 0. -1.
         -5    1    3    3    0  503 -0.31652737207E+02 -0.27629363191E+01 -0.44080001939E+01  0.32419902151E+02  0.47000000000E+01 0.  1.
         11    1    4    4    0    0  0.19653568378E+02 -0.92005410151E+01  0.72508537448E+02  0.75686198926E+02  0.00000000000E+00 0. -1.
        -12    1    4    4    0    0 -0.72680928128E+02  0.28983996053E+02  0.25684975534E+03  0.26850397792E+03  0.00000000000E+00 0.  1.
</event>
<event>
12    1  0.8406581E-002  0.2188740E+03  0.7818608E-02  0.1136272E+00
         21   -1    0    0  501  502  0.00000000000E+00  0.00000000000E+00  0.12160892090E+03  0.12160892090E+03  0.00000000000E+00 0.  1.
         21   -1    0    0  502  503 -0.00000000000E+00 -0.00000000000E+00 -0.41166961872E+03  0.41166961872E+03  0.00000000000E+00 0.  1.
         -6    2    1    2    0  503 -0.10483225518E+03  0.69055299258E+02 -0.22203990033E+03  0.31178123794E+03  0.17929692387E+03 0.  0.
        -24    2    3    3    0    0  0.83397507879E+01  0.48179643838E+02 -0.56621177163E+02  0.11021452467E+03  0.80934876423E+02 0.  0.
          6    2    1    2  501    0  0.10483225518E+03 -0.69055299258E+02 -0.68020797494E+02  0.22149730168E+03  0.16933927388E+03 0.  0.
         24    2    5    5    0    0  0.13379983061E+02  0.15747850046E+02 -0.30302283626E+02  0.91113757868E+02  0.83405453971E+02 0.  0.
          5    1    5    5  501    0  0.91452272116E+02 -0.84803149305E+02 -0.37718513868E+02  0.13038354381E+03  0.47000000000E+01 0. -1.
        -11    1    6    6    0    0 -0.22093083328E+02 -0.21201129918E+02  0.17854662665E+01  0.30672139321E+02  0.00000000000E+00 0.  1.
         12    1    6    6    0    0  0.35473066389E+02  0.36948979964E+02 -0.32087749892E+02  0.60441618547E+02  0.00000000000E+00 0. -1.
         -5    1    3    3    0  503 -0.11317200596E+03  0.20875655421E+02 -0.16541872317E+03  0.20156671327E+03  0.47000000000E+01 0.  1.
         11    1    4    4    0    0 -0.14355630025E+02  0.55231213704E+02 -0.10070429715E+02  0.57948120205E+02  0.00000000000E+00 0. -1.
        -12    1    4    4    0    0  0.22695380813E+02 -0.70515698662E+01 -0.46550747448E+02  0.52266404466E+02  0.00000000000E+00 0.  1.
</event>
<event>
12    1  0.8406581E-002  0.2410174E+03  0.7818608E-02  0.1119843E+00
         21   -1    0    0  503  502  0.00000000000E+00  0.00000000000E+00  0.62532180224E+02  0.62532180224E+02  0.00000000000E+00 0. -1.
         21   -1    0    0  501  503 -0.00000000000E+00 -0.00000000000E+00 -0.93009188851E+03  0.93009188851E+03  0.00000000000E+00 0. -1.
          6    2    1    2  501    0  0.11381446914E+03 -0.11601825845E+03 -0.49854834372E+03  0.55187610935E+03  0.17205469876E+03 0.  0.
         24    2    3    3    0    0  0.80329285111E+02 -0.13366761605E+00 -0.27944143905E+03  0.30171531782E+03  0.80571727289E+02 0.  0.
         -6    2    1    2    0  502 -0.11381446914E+03  0.11601825845E+03 -0.36901136456E+03  0.44074795938E+03  0.17797586029E+03 0.  0.
        -24    2    5    5    0    0 -0.12435346232E+03  0.25591805792E+02 -0.23042769184E+03  0.27486987746E+03  0.79610327551E+02 0.  0.
          5    1    3    3  501    0  0.33485184024E+02 -0.11588459083E+03 -0.21910690468E+03  0.25016079153E+03  0.47000000000E+01 0. -1.
        -13    1    4    4    0    0  0.64168404654E+01  0.59523695793E+01  0.33418573497E+01  0.93688075928E+01  0.00000000000E+00 0.  1.
         14    1    4    4    0    0  0.73912444646E+02 -0.60860371953E+01 -0.28278329640E+03  0.29234651023E+03  0.00000000000E+00 0. -1.
         -5    1    5    5    0  502  0.10538993184E+02  0.90426452656E+02 -0.13858367272E+03  0.16587808192E+03  0.47000000000E+01 0.  1.
         11    1    6    6    0    0 -0.68816292739E+02  0.26596911218E+02 -0.58390922756E+02  0.94088137898E+02  0.00000000000E+00 0. -1.
        -12    1    6    6    0    0 -0.55537169580E+02 -0.10051054260E+01 -0.17203676908E+03  0.18078173956E+03  0.00000000000E+00 0.  1.
</event>
<event>
12    1  0.8406581E-002  0.3989478E+03  0.7818608E-02  0.1044298E+00
         21   -1    0    0  503  502  0.00000000000E+00  0.00000000000E+00  0.89332386291E+03  0.89332386291E+03  0.00000000000E+00 0.  1.
         21   -1    0    0  501  503 -0.00000000000E+00 -0.00000000000E+00 -0.40563891012E+03  0.40563891012E+03  0.00000000000E+00 0.  1.
          6    2    1    2  501    0  0.41502458648E+02  0.35570190097E+03 -0.24312585872E+03  0.46719327023E+03  0.17582113678E+03 0.  0.
         24    2    3    3    0    0  0.17238509589E+02  0.35608917474E+03 -0.19699712006E+03  0.41485934494E+03  0.78763850819E+02 0.  0.
         -6    2    1    2    0  502 -0.41502458648E+02 -0.35570190097E+03  0.73081081152E+03  0.83176950280E+03  0.17178407124E+03 0.  0.
        -24    2    5    5    0    0  0.81740461411E+01 -0.12758319964E+03  0.37662231476E+03  0.40753197705E+03  0.88846251906E+02 0.  0.
          5    1    3    3  501    0  0.24263949059E+02 -0.38727376869E+00 -0.46128738663E+02  0.52333925283E+02  0.47000000000E+01 0. -1.
        -11    1    4    4    0    0 -0.20364259450E+01  0.15179700136E+03 -0.12738034013E+03  0.19817221729E+03  0.00000000000E+00 0.  1.
         12    1    4    4    0    0  0.19274935534E+02  0.20429217338E+03 -0.69616779925E+02  0.21668712766E+03  0.00000000000E+00 0. -1.
         -5    1    5    5    0  502 -0.49676504789E+02 -0.22811870133E+03  0.35418849675E+03  0.42423752575E+03  0.47000000000E+01 0.  1.
         11    1    6    6    0    0  0.36932203554E+02 -0.15649074360E+02  0.95590291875E+02  0.10366477265E+03  0.00000000000E+00 0. -1.
        -12    1    6    6    0    0 -0.28758157413E+02 -0.11193412528E+03  0.28103202289E+03  0.30386720440E+03  0.00000000000E+00 0.  1.
</event>
<event>
12    1  0.8406581E-002  0.2049956E+03  0.7818608E-02  0.1148125E+00
         21   -1    0    0  503  502  0.00000000000E+00  0.00000000000E+00  0.16433195056E+03  0.16433195056E+03  0.00000000000E+00 0.  1.
         21   -1    0    0  501  503 -0.00000000000E+00 -0.00000000000E+00 -0.24754467268E+03  0.24754467268E+03  0.00000000000E+00 0. -1.
          6    2    1    2  501    0  0.39198235888E+02 -0.80341434593E+02 -0.73960074545E+02  0.20667231657E+03  0.17103247060E+03 0.  0.
         24    2    3    3    0    0  0.51619333071E+02 -0.97504590094E+02 -0.10267401314E+03  0.17068012531E+03  0.80112742828E+02 0.  0.
         -6    2    1    2    0  502 -0.39198235888E+02  0.80341434593E+02 -0.92526475786E+01  0.20520430667E+03  0.18447750047E+03 0.  0.
        -24    2    5    5    0    0 -0.67967954440E+02  0.10435448870E+03  0.29808457404E+02  0.15087030815E+03  0.79773451754E+02 0.  0.
          5    1    3    3  501    0 -0.12421097184E+02  0.17163155501E+02  0.28713938597E+02  0.35992191261E+02  0.47000000000E+01 0. -1.
        -11    1    4    4    0    0  0.71014359831E+02 -0.55715831915E+02 -0.66920115539E+02  0.11236367336E+03  0.00000000000E+00 0.  1.
         12    1    4    4    0    0 -0.19395026760E+02 -0.41788758179E+02 -0.35753897603E+02  0.58316451941E+02  0.00000000000E+00 0. -1.
         -5    1    5    5    0  502  0.28769718552E+02 -0.24013054111E+02 -0.39061104982E+02  0.54333998525E+02  0.47000000000E+01 0.  1.
         13    1    6    6    0    0 -0.67977747444E+02  0.11571485971E+03  0.19659885998E+02  0.13563706729E+03  0.00000000000E+00 0. -1.
        -14    1    6    6    0    0  0.97930049463E-02 -0.11360371010E+02  0.10148571406E+02  0.15233240856E+02  0.00000000000E+00 0.  1.
</event>
<event>
12    1  0.8406581E-002  0.2047309E+03  0.7818608E-02  0.1145814E+00
         21   -1    0    0  501  502  0.00000000000E+00  0.00000000000E+00  0.40396488115E+02  0.40396488115E+02  0.00000000000E+00 0. -1.
         21   -1    0    0  502  503 -0.00000000000E+00 -0.00000000000E+00 -0.16016584939E+04  0.16016584939E+04  0.00000000000E+00 0. -1.
         -6    2    1    2    0  503 -0.52243179023E+02  0.97930290274E+02 -0.12679729261E+04  0.12843948277E+04  0.17203209149E+03 0.  0.
        -24    2    3    3    0    0 -0.26289785935E+02  0.15349799761E+02 -0.27223155287E+03  0.28488690454E+03  0.78254461876E+02 0.  0.
          6    2    1    2  501    0  0.52243179023E+02 -0.97930290274E+02 -0.29328907963E+03  0.35766015430E+03  0.17199595993E+03 0.  0.
         24    2    5    5    0    0  0.29247553101E+02 -0.22969260954E+01 -0.21720970987E+03  0.23322262114E+03  0.79699671997E+02 0.  0.
          5    1    5    5  501    0  0.22995625921E+02 -0.95633364179E+02 -0.76079369762E+02  0.12443753316E+03  0.47000000000E+01 0. -1.
        -11    1    6    6    0    0  0.18463035583E+02 -0.40770494439E+02 -0.10644569219E+03  0.11547208444E+03  0.00000000000E+00 0.  1.
         12    1    6    6    0    0  0.10784517518E+02  0.38473568344E+02 -0.11076401768E+03  0.11775053670E+03  0.00000000000E+00 0. -1.
         -5    1    3    3    0  503 -0.25953393088E+02  0.82580490513E+02 -0.99574137328E+03  0.99950792318E+03  0.47000000000E+01 0.  1.
         13    1    4    4    0    0 -0.41744217054E+02 -0.23238702115E+01 -0.24663637009E+03  0.25015491017E+03  0.00000000000E+00 0. -1.
        -14    1    4    4    0    0  0.15454431119E+02  0.17673669973E+02 -0.25595182780E+02  0.34731994372E+02  0.00000000000E+00 0.  1.
</event>
<event>
12    1  0.8406581E-002  0.2303666E+03  0.7818608E-02  0.1126496E+00
         21   -1    0    0  503  502  0.00000000000E+00  0.00000000000E+00  0.21697397150E+03  0.21697397150E+03  0.00000000000E+00 0.  1.
         21   -1    0    0  501  503 -0.00000000000E+00 -0.00000000000E+00 -0.29461961498E+03  0.29461961498E+03  0.00000000000E+00 0.  1.
          6    2    1    2  501    0  0.35325942449E+02 -0.14812447256E+03 -0.14500370497E+03  0.27220367518E+03  0.17285827938E+03 0.  0.
         24    2    3    3    0    0  0.71030568944E+02 -0.14907796022E+03 -0.83937293447E+02  0.20130285637E+03  0.78789534877E+02 0.  0.
         -6    2    1    2    0  502 -0.35325942449E+02  0.14812447256E+03  0.67358061486E+02  0.23938991130E+03  0.17199313825E+03 0.  0.
        -24    2    5    5    0    0 -0.20807865315E+01  0.10157922606E+03  0.10881257367E+03  0.16859254593E+03  0.79123962946E+02 0.  0.
          5    1    3    3  501    0 -0.35704626495E+02  0.95348765917E+00 -0.61066411522E+02  0.70900818811E+02  0.47000000000E+01 0. -1.
        -13    1    4    4    0    0  0.73162887332E+02 -0.10052685176E+03 -0.88318662940E+02  0.15250784318E+03  0.00000000000E+00 0.  1.
         14    1    4    4    0    0 -0.21323183878E+01 -0.48551108455E+02  0.43813694934E+01  0.48795013193E+02  0.00000000000E+00 0. -1.
         -5    1    5    5    0  502 -0.33245155918E+02  0.46545246497E+02 -0.41454512188E+02  0.70797365376E+02  0.47000000000E+01 0.  1.
         13    1    6    6    0    0 -0.36586174513E+02  0.63146720789E+02  0.84053958007E+02  0.11131542736E+03  0.00000000000E+00 0. -1.
        -14    1    6    6    0    0  0.34505387982E+02  0.38432505272E+02  0.24758615667E+02  0.57277118564E+02  0.00000000000E+00 0.  1.
</event>
<event>
12    1  0.8406581E-002  0.1921489E+03  0.7818608E-02  0.1157141E+00
         21   -1    0    0  501  502  0.00000000000E+00  0.00000000000E+00  0.55347926590E+03  0.55347926590E+03  0.00000000000E+00 0.  1.
         21   -1    0    0  502  503 -0.00000000000E+00 -0.00000000000E+00 -0.20311811857E+03  0.20311811857E+03  0.00000000000E+00 0.  1.
         -6    2    1    2    0  503 -0.81087187869E+02  0.11068361214E+02 -0.13629280440E+03  0.23338303049E+03  0.17086330716E+03 0.  0.
        -24    2    3    3    0    0  0.16560631389E+02  0.21331209522E+02 -0.94236567882E+02  0.12646605479E+03  0.79899044285E+02 0.  0.
          6    2    1    2  501    0  0.81087187869E+02 -0.11068361214E+02  0.48665395173E+03  0.52321435399E+03  0.17384921866E+03 0.  0.
         24    2    5    5    0    0  0.85456574609E+02 -0.67435800265E+02  0.33618207361E+03  0.36240311113E+03  0.80418996741E+02 0.  0.
          5    1    5    5  501    0 -0.43693867400E+01  0.56367439050E+02  0.15047187812E+03  0.16081124286E+03  0.47000000000E+01 0. -1.
        -13    1    6    6    0    0  0.31626155121E+02  0.15984650203E+02  0.10450912846E+03  0.11035343521E+03  0.00000000000E+00 0.  1.
         14    1    6    6    0    0  0.53830419489E+02 -0.83420450468E+02  0.23167294515E+03  0.25204967592E+03  0.00000000000E+00 0. -1.
         -5    1    3    3    0  503 -0.97647819258E+02 -0.10262848307E+02 -0.42056236516E+02  0.10691697569E+03  0.47000000000E+01 0.  1.
         11    1    4    4    0    0  0.23451549713E+02 -0.11529700521E+02  0.31036233172E+00  0.26134373971E+02  0.00000000000E+00 0. -1.
        -12    1    4    4    0    0 -0.68909183245E+01  0.32860910043E+02 -0.94546930213E+02  0.10033168082E+03  0.00000000000E+00 0.  1.
</event>
<event>
12    1  0.8406581E-002  0.1823511E+03  0.7818608E-02  0.1165577E+00
         21   -1    0    0  501  502  0.00000000000E+00  0.00000000000E+00  0.38355035298E+03  0.38355035298E+03  0.00000000000E+00 0.  1.
         21   -1    0    0  502  503 -0.00000000000E+00 -0.00000000000E+00 -0.13161594572E+03  0.13161594572E+03  0.00000000000E+00 0.  1.
         -6    2    1    2    0  503  0.57490280173E+02 -0.18923874838E+02  0.27657807507E+03  0.33128137964E+03  0.17201359114E+03 0.  0.
        -24    2    3    3    0    0 -0.35082908336E+02 -0.26312163724E+02  0.13535549432E+03  0.16219474694E+03  0.77864534142E+02 0.  0.
          6    2    1    2  501    0 -0.57490280173E+02  0.18923874838E+02 -0.24643667801E+02  0.18388491906E+03  0.17188108605E+03 0.  0.
         24    2    5    5    0    0 -0.57287176779E+02  0.68091814311E+02 -0.44692728036E+02  0.13057842471E+03  0.84468747251E+02 0.  0.
          5    1    5    5  501    0 -0.20310339358E+00 -0.49167939474E+02  0.20049060235E+02  0.53306494345E+02  0.47000000000E+01 0. -1.
        -11    1    6    6    0    0 -0.77355350078E+02  0.48734955948E+02 -0.46624420778E+02  0.10262934634E+03  0.00000000000E+00 0.  1.
         12    1    6    6    0    0  0.20068173299E+02  0.19356858363E+02  0.19316927419E+01  0.27949078376E+02  0.00000000000E+00 0. -1.
         -5    1    3    3    0  503  0.92573188508E+02  0.73882888866E+01  0.14122258075E+03  0.16908663270E+03  0.47000000000E+01 0.  1.
         13    1    4    4    0    0 -0.19181921061E+02  0.19565475609E+02  0.12547179925E+02  0.30136118786E+02  0.00000000000E+00 0. -1.
        -14    1    4    4    0    0 -0.15900987274E+02 -0.45877639333E+02  0.12280831439E+03  0.13205862816E+03  0.00000000000E+00 0.  1.
</event>
<event>
12    1  0.8406581E-002  0.1819618E+03  0.7818608E-02  0.1166044E+00
         21   -1    0    0  503  502  0.00000000000E+00  0.00000000000E+00  0.96742878330E+02  0.96742878330E+02  0.00000000000E+00 0. -1.
         21   -1    0    0  501  503 -0.00000000000E+00 -0.00000000000E+00 -0.18162700407E+04  0.18162700407E+04  0.00000000000E+00 0. -1.
          6    2    1    2  501    0  0.89103625523E+01 -0.54971562147E+02 -0.17219768217E+04  0.17315641078E+04  0.17323053428E+03 0.  0.
         24    2    3    3    0    0 -0.31870804108E+02 -0.92686567453E+02 -0.12221682679E+04  0.12286563572E+04  0.79338649027E+02 0.  0.
         -6    2    1    2    0  502 -0.89103625523E+01  0.54971562147E+02  0.24496593341E+01  0.18144881115E+03  0.17267426858E+03 0.  0.
        -24    2    5    5    0    0  0.72961973892E-01  0.54849998661E+02 -0.62697573203E+02  0.11551727996E+03  0.80029548344E+02 0.  0.
          5    1    3    3  501    0  0.40781166660E+02  0.37715005306E+02 -0.49980855379E+03  0.50290775061E+03  0.47000000000E+01 0. -1.
        -13    1    4    4    0    0 -0.69733624059E+01 -0.99259872991E+02 -0.90852295625E+03  0.91395574959E+03  0.00000000000E+00 0.  1.
         14    1    4    4    0    0 -0.24897441702E+02  0.65733055381E+01 -0.31364531163E+03  0.31470060765E+03  0.00000000000E+00 0. -1.
         -5    1    5    5    0  502 -0.89833245261E+01  0.12156348586E+00  0.65147232537E+02  0.65931531185E+02  0.47000000000E+01 0.  1.
         11    1    6    6    0    0 -0.21893635482E+02 -0.97922608073E+01 -0.18335503299E+01  0.24053722230E+02  0.00000000000E+00 0. -1.
        -12    1    6    6    0    0  0.21966597456E+02  0.64642259469E+02 -0.60864022873E+02  0.91463557733E+02  0.00000000000E+00 0.  1.
</event>
<event>
12    1  0.8406581E-002  0.2280832E+03  0.7818608E-02  0.1128104E+00
         21   -1    0    0  503  502  0.00000000000E+00  0.00000000000E+00  0.11238427132E+03  0.11238427132E+03  0.00000000000E+00 0. -1.
         21   -1    0    0  501  503 -0.00000000000E+00 -0.00000000000E+00 -0.51296117653E+03  0.51296117653E+03  0.00000000000E+00 0. -1.
          6    2    1    2  501    0 -0.14213663217E+03  0.44587239129E+02 -0.29940084954E+03  0.37638120913E+03  0.17271682542E+03 0.  0.
         24    2    3    3    0    0 -0.13078987816E+02  0.12401949322E+02 -0.59931708327E+02  0.10241163411E+03  0.81064572213E+02 0.  0.
         -6    2    1    2    0  502  0.14213663217E+03 -0.44587239129E+02 -0.10117605567E+03  0.24896423872E+03  0.17191786941E+03 0.  0.
        -24    2    5    5    0    0  0.13999105488E+03  0.15564482752E+02 -0.49949371112E+02  0.16978661336E+03  0.80577948802E+02 0.  0.
          5    1    3    3  501    0 -0.12905764436E+03  0.32185289807E+02 -0.23946914121E+03  0.27396957502E+03  0.47000000000E+01 0. -1.
        -13    1    4    4    0    0 -0.15336381886E+02  0.46098654776E+02 -0.41743205579E+02  0.64052992073E+02  0.00000000000E+00 0.  1.
         14    1    4    4    0    0  0.22573940707E+01 -0.33696705453E+02 -0.18188502747E+02  0.38358642033E+02  0.00000000000E+00 0. -1.
         -5    1    5    5    0  502  0.21455772966E+01 -0.60151721881E+02 -0.51226684554E+02  0.79177625359E+02  0.47000000000E+01 0.  1.
         11    1    6    6    0    0  0.12323371641E+02 -0.78248680790E+01  0.18087014772E+02  0.23242937689E+02  0.00000000000E+00 0. -1.
        -12    1    6    6    0    0  0.12766768324E+03  0.23389350831E+02 -0.68036385884E+02  0.14654367567E+03  0.00000000000E+00 0.  1.
</event>
<event>
12    1  0.8406581E-002  0.1824524E+03  0.7818608E-02  0.1165479E+00
         21   -1    0    0  501  502  0.00000000000E+00  0.00000000000E+00  0.16014881003E+03  0.16014881003E+03  0.00000000000E+00 0. -1.
         21   -1    0    0  502  503 -0.00000000000E+00 -0.00000000000E+00 -0.28072727568E+03  0.28072727568E+03  0.00000000000E+00 0. -1.
         -6    2    1    2    0  503 -0.57155966596E+02  0.18419721182E+02 -0.17268473769E+03  0.25112904648E+03  0.17216180967E+03 0.  0.
        -24    2    3    3    0    0  0.29714373171E+02 -0.14139289056E+02 -0.70262805995E+02  0.11285798237E+03  0.81958518839E+02 0.  0.
          6    2    1    2  501    0  0.57155966596E+02 -0.18419721182E+02  0.52106272039E+02  0.18974703924E+03  0.17228692541E+03 0.  0.
         24    2    5    5    0    0  0.95605645302E+02  0.16861776957E+02  0.56374848406E+02  0.13717829712E+03  0.78835288624E+02 0.  0.
          5    1    5    5  501    0 -0.38449678706E+02 -0.35281498139E+02 -0.42685763668E+01  0.52568742116E+02  0.47000000000E+01 0. -1.
        -11    1    6    6    0    0 -0.87784156033E+01 -0.99554054040E+01 -0.37171891162E+01  0.13783619706E+02  0.00000000000E+00 0.  1.
         12    1    6    6    0    0  0.10438406090E+03  0.26817182361E+02  0.60092037522E+02  0.12339467741E+03  0.00000000000E+00 0. -1.
         -5    1    3    3    0  503 -0.86870339767E+02  0.32559010238E+02 -0.10242193169E+03  0.13827106411E+03  0.47000000000E+01 0.  1.
         13    1    4    4    0    0  0.16615329927E+02  0.34312791883E+02 -0.29913195279E+02  0.48458602200E+02  0.00000000000E+00 0. -1.
        -14    1    4    4    0    0  0.13099043244E+02 -0.48452080940E+02 -0.40349610716E+02  0.64399380170E+02  0.00000000000E+00 0.  1.
</event>
<event>
12    1  0.8406581E-002  0.2685255E+03  0.7818608E-02  0.1102158E+00
         21   -1    0    0  503  502  0.00000000000E+00  0.00000000000E+00  0.12617083754E+04  0.12617083754E+04  0.00000000000E+00 0. -1.
         21   -1    0    0  501  503 -0.00000000000E+00 -0.00000000000E+00 -0.19868741997E+03  0.19868741997E+03  0.00000000000E+00 0. -1.
          6    2    1    2  501    0  0.14844898643E+03  0.14310397749E+03 -0.84828314325E+02  0.28160577663E+03  0.17201779145E+03 0.  0.
         24    2    3    3    0    0  0.10904881521E+03  0.57306596890E+02  0.10596307721E+02  0.14728707911E+03  0.80034441273E+02 0.  0.
         -6    2    1    2    0  502 -0.14844898643E+03 -0.14310397749E+03  0.11478492697E+04  0.11787900187E+04  0.17167443682E+03 0.  0.
        -24    2    5    5    0    0 -0.14032460780E+03 -0.42844071428E+02  0.68811403493E+03  0.70815573351E+03  0.80355509012E+02 0.  0.
          5    1    3    3  501    0  0.39400171215E+02  0.85797380605E+02 -0.95424622046E+02  0.13431869752E+03  0.47000000000E+01 0. -1.
        -11    1    4    4    0    0  0.10556010385E+03  0.70576271782E+02 -0.42764649519E+01  0.12705209096E+03  0.00000000000E+00 0.  1.
         12    1    4    4    0    0  0.34887113602E+01 -0.13269674892E+02  0.14872772673E+02  0.20234988156E+02  0.00000000000E+00 0. -1.
         -5    1    5    5    0  502 -0.81243786329E+01 -0.10025990607E+03  0.45973523482E+03  0.47063428522E+03  0.47000000000E+01 0.  1.
         13    1    6    6    0    0 -0.71894224688E+02 -0.55242612283E+02  0.28461984911E+03  0.29871220976E+03  0.00000000000E+00 0. -1.
        -14    1    6    6    0    0 -0.68430383108E+02  0.12398540855E+02  0.40349418582E+03  0.40944352375E+03  0.00000000000E+00 0.  1.
</event>
<event>
12    1  0.8406581E-002  0.1757228E+03  0.7818608E-02  0.1172652E+00
         21   -1    0    0  501  502  0.00000000000E+00  0.00000000000E+00  0.87153243389E+02  0.87153243389E+02  0.00000000000E+00 0.  1.
         21   -1    0    0  502  503 -0.00000000000E+00 -0.00000000000E+00 -0.39265438004E+03  0.39265438004E+03  0.00000000000E+00 0.  1.
         -6    2    1    2    0  503  0.18193098655E+02  0.11461900056E+02 -0.23359237950E+03  0.29230788379E+03  0.17440222239E+03 0.  0.
        -24    2    3    3    0    0  0.61771547210E+01  0.71842657958E+02 -0.10805867306E+03  0.15241142106E+03  0.79705957759E+02 0.  0.
          6    2    1    2  501    0 -0.18193098655E+02 -0.11461900056E+02 -0.71908757153E+02  0.18749973964E+03  0.17182234726E+03 0.  0.
         24    2    5    5    0    0 -0.13690331132E+02 -0.73813798821E+02 -0.58524614144E+02  0.12339623366E+03  0.78521321671E+02 0.  0.
          5    1    5    5  501    0 -0.45027675230E+01  0.62351898765E+02 -0.13384143009E+02  0.64103505981E+02  0.47000000000E+01 0. -1.
        -11    1    6    6    0    0 -0.21513804288E+02 -0.32220446343E+02  0.12507320264E+02  0.40711595372E+02  0.00000000000E+00 0.  1.
         12    1    6    6    0    0  0.78234731564E+01 -0.41593352478E+02 -0.71031934407E+02  0.82684638284E+02  0.00000000000E+00 0. -1.
         -5    1    3    3    0  503  0.12015943934E+02 -0.60380757902E+02 -0.12553370644E+03  0.13989646273E+03  0.47000000000E+01 0.  1.
         11    1    4    4    0    0 -0.12412308972E+02  0.82540794799E+02 -0.97980014621E+02  0.12871336949E+03  0.00000000000E+00 0. -1.
        -12    1    4    4    0    0  0.18589463692E+02 -0.10698136840E+02 -0.10078658440E+02  0.23698051569E+02  0.00000000000E+00 0.  1.
</event>
<event>
12    1  0.8406581E-002  0.2520532E+03  0.7818608E-02  0.1112617E+00
         21   -1    0    0  501  502  0.00000000000E+00  0.00000000000E+00  0.65282720439E+03  0.65282720439E+03  0.00000000000E+00 0.  1.
         21   -1    0    0  502  503 -0.00000000000E+00 -0.00000000000E+00 -0.12878789370E+03  0.12878789370E+03  0.00000000000E+00 0. -1.
         -6    2    1    2    0  503  0.26431754967E+01 -0.18401120872E+03  0.65861325063E+02  0.26051586432E+03  0.17223150150E+03 0.  0.
        -24    2    3    3    0    0 -0.53498195529E+02 -0.15656201049E+03  0.73712884811E+02  0.19735694559E+03  0.78373812794E+02 0.  0.
          6    2    1    2  501    0 -0.26431754967E+01  0.18401120872E+03  0.45817798562E+03  0.52109923377E+03  0.16658401369E+03 0.  0.
         24    2    5    5    0    0  0.61242960628E+02  0.10186885696E+03  0.23559137260E+03  0.27534387851E+03  0.78632005861E+02 0.  0.
          5    1    5    5  501    0 -0.63886136125E+02  0.82142351763E+02  0.22258661302E+03  0.24575535526E+03  0.47000000000E+01 0. -1.
        -13    1    6    6    0    0  0.21185377796E+02  0.97191358798E+02  0.19007471274E+03  0.21453059660E+03  0.00000000000E+00 0.  1.
         14    1    6    6    0    0  0.40057582832E+02  0.46774981638E+01  0.45516659863E+02  0.60813281909E+02  0.00000000000E+00 0. -1.
         -5    1    3    3    0  503  0.56141371026E+02 -0.27449198235E+02 -0.78515597472E+01  0.63158918728E+02  0.47000000000E+01 0.  1.
         11    1    4    4    0    0 -0.13264731582E+02 -0.12755610022E+03  0.31087334900E+02  0.13195807743E+03  0.00000000000E+00 0. -1.
        -12    1    4    4    0    0 -0.40233463947E+02 -0.29005910271E+02  0.42625549911E+02  0.65398868163E+02  0.00000000000E+00 0.  1.
</event>
<event>
12    1  0.8406581E-002  0.1811743E+03  0.7818608E-02  0.1166942E+00
         21   -1    0    0  501  502  0.00000000000E+00  0.00000000000E+00  0.20729703176E+03  0.20729703176E+03  0.00000000000E+00 0.  1.
         21   -1    0    0  502  503 -0.00000000000E+00 -0.00000000000E+00 -0.20804501837E+03  0.20804501837E+03  0.00000000000E+00 0.  1.
         -6    2    1    2    0  503 -0.53717498144E+02  0.83137309682E+01 -0.10287671664E+03  0.20834529778E+03  0.17282782343E+03 0.  0.
        -24    2    3    3    0    0  0.38315443068E+02  0.85076691785E+01 -0.45871425630E+02  0.99985743136E+02  0.79702619335E+02 0.  0.
          6    2    1    2  501    0  0.53717498144E+02 -0.83137309682E+01  0.10212873002E+03  0.20699675235E+03  0.17164699315E+03 0.  0.
         24    2    5    5    0    0  0.50360932487E+02  0.48363998986E+02  0.10445693498E+03  0.14997796471E+03  0.81895291155E+02 0.  0.
          5    1    5    5  501    0  0.33565656573E+01 -0.56677729954E+02 -0.23282049596E+01  0.57018787641E+02  0.47000000000E+01 0. -1.
        -11    1    6    6    0    0  0.76873260900E+01  0.15174533139E+02  0.93222924951E+02  0.94762203303E+02  0.00000000000E+00 0.  1.
         12    1    6    6    0    0  0.42673606397E+02  0.33189465847E+02  0.11234010029E+02  0.55215761404E+02  0.00000000000E+00 0. -1.
         -5    1    3    3    0  503 -0.92032941213E+02 -0.19393821038E+00 -0.57005291008E+02  0.10835955465E+03  0.47000000000E+01 0.  1.
         13    1    4    4    0    0  0.29793072086E+02 -0.12913967484E+02 -0.63261089820E+02  0.71108109142E+02  0.00000000000E+00 0. -1.
        -14    1    4    4    0    0  0.85223709821E+01  0.21421636663E+02  0.17389664190E+02  0.28877633994E+02  0.00000000000E+00 0.  1.
</event>
<event>
12    1  0.8406581E-002  0.2519066E+03  0.7818608E-02  0.1112221E+00
         21   -1    0    0  503  502  0.00000000000E+00  0.00000000000E+00  0.20026730184E+03  0.20026730184E+03  0.00000000000E+00 0.  1.
         21   -1    0    0  501  503 -0.00000000000E+00 -0.00000000000E+00 -0.11472976996E+04  0.11472976996E+04  0.00000000000E+00 0.  1.
          6    2    1    2  501    0  0.17079005429E+03 -0.67022334199E+02 -0.10472617434E+04  0.10771323383E+04  0.17261424917E+03 0.  0.
         24    2    3    3    0    0  0.15093469052E+03  0.77585820043E+01 -0.79729473135E+03  0.81542254094E+03  0.79959710162E+02 0.  0.
         -6    2    1    2    0  502 -0.17079005429E+03  0.67022334199E+02  0.10023134571E+03  0.27043266312E+03  0.17154086013E+03 0.  0.
        -24    2    5    5    0    0 -0.11842397388E+03 -0.22923298236E+01  0.80609521149E+01  0.14368803609E+03  0.80943068880E+02 0.  0.
          5    1    3    3  501    0  0.19855363771E+02 -0.74780916203E+02 -0.24996701209E+03  0.26170979736E+03  0.47000000000E+01 0. -1.
        -11    1    4    4    0    0  0.12672328407E+03  0.43548477897E+01 -0.45740888537E+03  0.47465844966E+03  0.00000000000E+00 0.  1.
         12    1    4    4    0    0  0.24211406451E+02  0.34037342146E+01 -0.33988584598E+03  0.34076409128E+03  0.00000000000E+00 0. -1.
         -5    1    5    5    0  502 -0.52366080407E+02  0.69314664022E+02  0.92170393595E+02  0.12674462703E+03  0.47000000000E+01 0.  1.
         11    1    6    6    0    0 -0.90264767974E+02  0.25974765337E+02  0.29424967787E+02  0.98428885501E+02  0.00000000000E+00 0. -1.
        -12    1    6    6    0    0 -0.28159205906E+02 -0.28267095160E+02 -0.21364015672E+02  0.45259150585E+02  0.00000000000E+00 0.  1.
</event>
<event>
12    1  0.8406581E-002  0.1897047E+03  0.7818608E-02  0.1162741E+00
         21   -1    0    0  503  502  0.00000000000E+00  0.00000000000E+00  0.63502022831E+02  0.63502022831E+02  0.00000000000E+00 0.  1.
         21   -1    0    0  501  503 -0.00000000000E+00 -0.00000000000E+00 -0.52864666634E+03  0.52864666634E+03  0.00000000000E+00 0.  1.
          6    2    1    2  501    0 -0.72936098704E+02  0.29974583087E+02 -0.19996788610E+03  0.27563567404E+03  0.17253903677E+03 0.  0.
         24    2    3    3    0    0 -0.60461109149E+02 -0.17205233866E+02 -0.20083507808E+03  0.22660096681E+03  0.84033944208E+02 0.  0.
         -6    2    1    2    0  502  0.72936098704E+02 -0.29974583087E+02 -0.26517675741E+03  0.31651301513E+03  0.15376483977E+03 0.  0.
        -24    2    5    5    0    0  0.35703707309E+02  0.19703124759E+02 -0.75388681442E+02  0.11677386172E+03  0.79307714943E+02 0.  0.
          5    1    3    3  501    0 -0.12474989555E+02  0.47179816953E+02  0.86719197779E+00  0.49034707240E+02  0.47000000000E+01 0. -1.
        -13    1    4    4    0    0 -0.10703700322E+02  0.30757134487E+02 -0.92836603573E+02  0.98382953226E+02  0.00000000000E+00 0.  1.
         14    1    4    4    0    0 -0.49757408827E+02 -0.47962368353E+02 -0.10799847450E+03  0.12821801358E+03  0.00000000000E+00 0. -1.
         -5    1    5    5    0  502  0.37232391395E+02 -0.49677707847E+02 -0.18978807597E+03  0.19973915342E+03  0.47000000000E+01 0.  1.
         13    1    6    6    0    0  0.83425523547E+01  0.28914811454E+02 -0.81834709899E+02  0.87192799276E+02  0.00000000000E+00 0. -1.
        -14    1    6    6    0    0  0.27361154954E+02 -0.92116866950E+01  0.64460284570E+01  0.29581062440E+02  0.00000000000E+00 0.  1.
</event>
<event>
12    1  0.8406581E-002  0.1746794E+03  0.7818608E-02  0.1173237E+00
         21   -1    0    0  503  502  0.00000000000E+00  0.00000000000E+00  0.30481959760E+03  0.30481959760E+03  0.00000000000E+00 0. -1.
         21   -1    0    0  501  503 -0.00000000000E+00 -0.00000000000E+00 -0.14065581566E+03  0.14065581566E+03  0.00000000000E+00 0. -1.
          6    2    1    2  501    0  0.38520480203E+01  0.25637983983E+02 -0.38249912977E+02  0.17811013982E+03  0.17201169020E+03 0.  0.
         24    2    3    3    0    0 -0.40344804170E+02  0.67600254870E+02 -0.17252351436E+02  0.11347902106E+03  0.79889591985E+02 0.  0.
         -6    2    1    2    0  502 -0.38520480203E+01 -0.25637983983E+02  0.20241369492E+03  0.26736527344E+03  0.17274472800E+03 0.  0.
        -24    2    5    5    0    0 -0.23744050581E+02 -0.68996216009E+02  0.18887625408E+03  0.21755583302E+03  0.79574137531E+02 0.  0.
          5    1    3    3  501    0  0.44196852191E+02 -0.41962270887E+02 -0.20997561540E+02  0.64631118760E+02  0.47000000000E+01 0. -1.
        -11    1    4    4    0    0 -0.43617000182E+01  0.67032669879E+02 -0.32221261294E+02  0.74502435783E+02  0.00000000000E+00 0.  1.
         12    1    4    4    0    0 -0.35983104152E+02  0.56758499062E+00  0.14968909858E+02  0.38976585272E+02  0.00000000000E+00 0. -1.
         -5    1    5    5    0  502  0.19892002561E+02  0.43358232027E+02  0.13537440839E+02  0.49809440419E+02  0.47000000000E+01 0.  1.
         11    1    6    6    0    0 -0.49347109775E+02 -0.65266959405E+02  0.14981517435E+03  0.17070295750E+03  0.00000000000E+00 0. -1.
        -12    1    6    6    0    0  0.25603059194E+02 -0.37292566047E+01  0.39061079733E+02  0.46852875524E+02  0.00000000000E+00 0.  1.
</event>
<event>
12    1  0.8406581E-002  0.1743221E+03  0.7818608E-02  0.1173495E+00
         21   -1    0    0  501  502  0.00000000000E+00  0.00000000000E+00  0.61489563915E+03  0.61489563915E+03  0.00000000000E+00 0.  1.
         21   -1    0    0  502  503 -0.00000000000E+00 -0.00000000000E+00 -0.82612295681E+02  0.82612295681E+02  0.00000000000E+00 0.  1.
         -6    2    1    2    0  503 -0.16261454841E+02  0.19435032093E+02  0.48765172036E+03  0.51787294535E+03  0.17247037938E+03 0.  0.
        -24    2    3    3    0    0 -0.35394071411E+02 -0.69127899559E+01  0.47229523575E+03  0.48156624675E+03  0.86848910979E+02 0.  0.
          6    2    1    2  501    0  0.16261454841E+02 -0.19435032093E+02  0.44631623106E+02  0.17963498948E+03  0.17214700776E+03 0.  0.
         24    2    5    5    0    0 -0.12977295725E+02  0.43433257509E+02  0.51157924140E+02  0.10983521171E+03  0.85975475959E+02 0.  0.
          5    1    5    5  501    0  0.29238750566E+02 -0.62868289602E+02 -0.65263010349E+01  0.69799777774E+02  0.47000000000E+01 0. -1.
        -13    1    6    6    0    0 -0.22185558658E+02  0.25761211364E+02  0.72842051726E+02  0.80385343960E+02  0.00000000000E+00 0.  1.
         14    1    6    6    0    0  0.92082629329E+01  0.17672046145E+02 -0.21684127586E+02  0.29449867748E+02  0.00000000000E+00 0. -1.
         -5    1    3    3    0  503  0.19132616570E+02  0.26347822049E+02  0.15356484610E+02  0.36306698598E+02  0.47000000000E+01 0.  1.
         11    1    4    4    0    0 -0.45574772406E+02  0.15574255612E+02  0.42926688124E+03  0.43196026744E+03  0.00000000000E+00 0. -1.
        -12    1    4    4    0    0  0.10180700995E+02 -0.22487045568E+02  0.43028354507E+02  0.49605979304E+02  0.00000000000E+00 0.  1.
</event>
<event>
12    1  0.8406581E-002  0.2178848E+03  0.7818608E-02  0.1135606E+00
         21   -1    0    0  503  502  0.00000000000E+00  0.00000000000E+00  0.20719026590E+03  0.20719026590E+03  0.00000000000E+00 0.  1.
         21   -1    0    0  501  503 -0.00000000000E+00 -0.00000000000E+00 -0.24435443486E+03  0.24435443486E+03  0.00000000000E+00 0.  1.
          6    2    1    2  501    0 -0.69394358221E+02 -0.11555293888E+03 -0.76284767615E+02  0.23017571687E+03  0.17027459067E+03 0.  0.
         24    2    3    3    0    0  0.25705635434E+02 -0.74123690524E+02 -0.33924736017E+02  0.11802914452E+03  0.81393427574E+02 0.  0.
         -6    2    1    2    0  502  0.69394358221E+02  0.11555293888E+03  0.39120598649E+02  0.22136898389E+03  0.17118921447E+03 0.  0.
        -24    2    5    5    0    0 -0.27243268648E+02  0.74956575795E+02  0.23110804538E+02  0.11523087042E+03  0.79895934003E+02 0.  0.
          5    1    3    3  501    0 -0.95099993655E+02 -0.41429248360E+02 -0.42360031598E+02  0.11214657235E+03  0.47000000000E+01 0. -1.
        -11    1    4    4    0    0 -0.17819842214E+02 -0.62743842950E+02 -0.70017734843E+01  0.65600010950E+02  0.00000000000E+00 0.  1.
         12    1    4    4    0    0  0.43525477648E+02 -0.11379847574E+02 -0.26922962533E+02  0.52429133570E+02  0.00000000000E+00 0. -1.
         -5    1    5    5    0  502  0.96637626868E+02  0.40596363089E+02  0.16009794111E+02  0.10613811347E+03  0.47000000000E+01 0.  1.
         13    1    6    6    0    0 -0.30465195081E+02  0.30260693953E+02 -0.24834420765E+02  0.49604295828E+02  0.00000000000E+00 0. -1.
        -14    1    6    6    0    0  0.32219264339E+01  0.44695881842E+02  0.47945225303E+02  0.65626574594E+02  0.00000000000E+00 0.  1.
</event>
<event>
12    1  0.8406581E-002  0.1858884E+03  0.7818608E-02  0.1162439E+00
         21   -1    0    0  501  502  0.00000000000E+00  0.00000000000E+00  0.46145626186E+02  0.46145626186E+02  0.00000000000E+00 0.  1.
         21   -1    0    0  502  503 -0.00000000000E+00 -0.00000000000E+00 -0.74508262950E+03  0.74508262950E+03  0.00000000000E+00 0.  1.
         -6    2    1    2    0  503  0.65336270470E+02 -0.21695774992E+02 -0.34793470689E+03  0.39404175003E+03  0.17167063119E+03 0.  0.
        -24    2    3    3    0    0  0.10521838350E+03  0.92949822440E+01 -0.25206365013E+03  0.28557811788E+03  0.82834007353E+02 0.  0.
          6    2    1    2  501    0 -0.65336270470E+02  0.21695774992E+02 -0.35100229642E+03  0.39718650566E+03  0.17267012854E+03 0.  0.
         24    2    5    5    0    0 -0.53968434855E+01  0.69997342979E+02 -0.17526902346E+03  0.20527493851E+03  0.80559393328E+02 0.  0.
          5    1    5    5  501    0 -0.59939426984E+02 -0.48301567987E+02 -0.17573327296E+03  0.19191156714E+03  0.47000000000E+01 0. -1.
        -13    1    6    6    0    0 -0.52118005811E+01 -0.16762183461E+02 -0.49193322140E+02  0.52231375655E+02  0.00000000000E+00 0.  1.
         14    1    6    6    0    0 -0.18504290447E+00  0.86759526440E+02 -0.12607570132E+03  0.15304356286E+03  0.00000000000E+00 0. -1.
         -5    1    3    3    0  503 -0.39882113033E+02 -0.30990757236E+02 -0.95871056755E+02  0.10846363214E+03  0.47000000000E+01 0.  1.
         11    1    4    4    0    0 -0.43079530092E+01 -0.18191744410E+02 -0.19305110524E+02  0.26873505840E+02  0.00000000000E+00 0. -1.
        -12    1    4    4    0    0  0.10952633651E+03  0.27486726654E+02 -0.23275853961E+03  0.25870461204E+03  0.00000000000E+00 0.  1.
</event>
<event>
12    1  0.8406581E-002  0.1807090E+03  0.7818608E-02  0.1168401E+00
         21   -1    0    0  501  502  0.00000000000E+00  0.00000000000E+00  0.21598860214E+03  0.21598860214E+03  0.00000000000E+00 0. -1.
         21   -1    0    0  502  503 -0.00000000000E+00 -0.00000000000E+00 -0.14783235802E+03  0.14783235802E+03  0.00000000000E+00 0. -1.
         -6    2    1    2    0  503 -0.19725876376E+02 -0.21783114915E+02  0.49508136680E+02  0.18736807399E+03  0.17830346396E+03 0.  0.
        -24    2    3    3    0    0 -0.47425147195E+02  0.48084123529E+02  0.57063870451E+02  0.11168544901E+03  0.68235816745E+02 0.  0.
          6    2    1    2  501    0  0.19725876376E+02  0.21783114915E+02  0.18648107445E+02  0.17645288617E+03  0.17298628510E+03 0.  0.
         24    2    5    5    0    0  0.19961721611E+02 -0.32301066636E+02  0.60752084102E+02  0.10775070886E+03  0.80483354186E+02 0.  0.
          5    1    5    5  501    0 -0.23584523466E+00  0.54084181551E+02 -0.42103976658E+02  0.68702177312E+02  0.47000000000E+01 0. -1.
        -13    1    6    6    0    0 -0.31131782649E+02 -0.77547556668E+01  0.18328669703E+02  0.36949482533E+02  0.00000000000E+00 0.  1.
         14    1    6    6    0    0  0.51093504260E+02 -0.24546310969E+02  0.42423414400E+02  0.70801226325E+02  0.00000000000E+00 0. -1.
         -5    1    3    3    0  503  0.27699270818E+02 -0.69867238444E+02 -0.75557337713E+01  0.75682624984E+02  0.47000000000E+01 0.  1.
         13    1    4    4    0    0 -0.21744854541E+02  0.38908658622E+02  0.68816532294E+02  0.81990472201E+02  0.00000000000E+00 0. -1.
        -14    1    4    4    0    0 -0.25680292654E+02  0.91754649069E+01 -0.11752661843E+02  0.29694976805E+02  0.00000000000E+00 0.  1.
</event>
<event>
12    1  0.8406581E-002  0.2010688E+03  0.7818608E-02  0.1148912E+00
         21   -1    0    0  501  502  0.00000000000E+00  0.00000000000E+00  0.53493104644E+02  0.53493104644E+02  0.00000000000E+00 0. -1.
         21   -1    0    0  502  503 -0.00000000000E+00 -0.00000000000E+00 -0.77831066718E+03  0.77831066718E+03  0.00000000000E+00 0. -1.
         -6    2    1    2    0  503 -0.10582509140E+03 -0.48756664035E+01 -0.43546179120E+03  0.47964113978E+03  0.17089742330E+03 0.  0.
        -24    2    3    3    0    0 -0.10393135839E+03 -0.56425690961E+02 -0.26012626777E+03  0.29681437197E+03  0.80296390726E+02 0.  0.
          6    2    1    2  501    0  0.10582509140E+03  0.48756664035E+01 -0.28935577134E+03  0.35216263204E+03  0.17049643663E+03 0.  0.
         24    2    5    5    0    0  0.38360507268E+02  0.65117549538E+02 -0.15741081456E+03  0.19212477334E+03  0.80137009032E+02 0.  0.
          5    1    5    5  501    0  0.67464584135E+02 -0.60241883134E+02 -0.13194495679E+03  0.16003785870E+03  0.47000000000E+01 0. -1.
        -13    1    6    6    0    0  0.11978854287E+02 -0.18640653246E+02 -0.36288216435E+02  0.42518249676E+02  0.00000000000E+00 0.  1.
         14    1    6    6    0    0  0.26381652981E+02  0.83758202784E+02 -0.12112259812E+03  0.14960652367E+03  0.00000000000E+00 0. -1.
         -5    1    3    3    0  503 -0.18937330137E+01  0.51550024558E+02 -0.17533552342E+03  0.18282676782E+03  0.47000000000E+01 0.  1.
         13    1    4    4    0    0 -0.74856405880E+02  0.30954735665E+01 -0.11454869129E+03  0.13687390596E+03  0.00000000000E+00 0. -1.
        -14    1    4    4    0    0 -0.29074952509E+02 -0.59521164528E+02 -0.14557757649E+03  0.15994046601E+03  0.00000000000E+00 0.  1.
</event>
<event>
12    1  0.8406581E-002  0.1931823E+03  0.7818608E-02  0.1155695E+00
         21   -1    0    0  503  502  0.00000000000E+00  0.00000000000E+00  0.36281314121E+02  0.36281314121E+02  0.00000000000E+00 0.  1.
         21   -1    0    0  501  503 -0.00000000000E+00 -0.00000000000E+00 -0.10798347039E+04  0.10798347039E+04  0.00000000000E+00 0.  1.
          6    2    1    2  501    0  0.78901696056E+02  0.31246277372E+02 -0.64582320214E+03  0.67409717814E+03  0.17354420089E+03 0.  0.
         24    2    3    3    0    0  0.11340254937E+03 -0.10730292603E+02 -0.47825122044E+03  0.49787345568E+03  0.78603248252E+02 0.  0.
         -6    2    1    2    0  502 -0.78901696056E+02 -0.31246277372E+02 -0.39773018763E+03  0.44201883987E+03  0.17317489761E+03 0.  0.
        -24    2    5    5    0    0  0.22920053709E+02  0.10102330888E+02 -0.16153092088E+03  0.18146258924E+03  0.78797505941E+02 0.  0.
          5    1    3    3  501    0 -0.34500853315E+02  0.41976569975E+02 -0.16757198170E+03  0.17622372245E+03  0.47000000000E+01 0. -1.
        -11    1    4    4    0    0  0.37174611999E+02  0.33273684411E+02 -0.15338420480E+03  0.16129415406E+03  0.00000000000E+00 0.  1.
         12    1    4    4    0    0  0.76227937372E+02 -0.44003977014E+02 -0.32486701564E+03  0.33657930162E+03  0.00000000000E+00 0. -1.
         -5    1    5    5    0  502 -0.10182174976E+03 -0.41348608260E+02 -0.23619926675E+03  0.26055625063E+03  0.47000000000E+01 0.  1.
         13    1    6    6    0    0 -0.26829356953E+02  0.16227493441E+02 -0.77712777404E+02  0.83799890869E+02  0.00000000000E+00 0. -1.
        -14    1    6    6    0    0  0.49749410662E+02 -0.61251625530E+01 -0.83818143479E+02  0.97662698375E+02  0.00000000000E+00 0.  1.
</event>
<event>
12    1  0.8406581E-002  0.2596165E+03  0.7818608E-02  0.1107478E+00
         21   -1    0    0  501  502  0.00000000000E+00  0.00000000000E+00  0.66511415318E+03  0.66511415318E+03  0.00000000000E+00 0.  1.
         21   -1    0    0  502  503 -0.00000000000E+00 -0.00000000000E+00 -0.10426737364E+03  0.10426737364E+03  0.00000000000E+00 0. -1.
         -6    2    1    2    0  503  0.39400490428E+02 -0.18914707714E+03  0.21267302372E+03  0.33507095156E+03  0.17237665772E+03 0.  0.
        -24    2    3    3    0    0  0.46674330957E+02 -0.20829432151E+03  0.15957440264E+03  0.27796509124E+03  0.78965716758E+02 0.  0.
          6    2    1    2  501    0 -0.39400490428E+02  0.18914707714E+03  0.34817375583E+03  0.43431057526E+03  0.17341192606E+03 0.  0.
         24    2    5    5    0    0 -0.63691545198E+02  0.20094804834E+03  0.33545879543E+03  0.40409338676E+03  0.79511827607E+02 0.  0.
          5    1    5    5  501    0  0.24291054769E+02 -0.11800971200E+02  0.12714960399E+02  0.30217188503E+02  0.47000000000E+01 0. -1.
        -11    1    6    6    0    0 -0.30351028627E+02  0.11786196450E+02  0.60236909146E+02  0.68473239948E+02  0.00000000000E+00 0.  1.
         12    1    6    6    0    0 -0.33340516571E+02  0.18916185189E+03  0.27522188628E+03  0.33562014681E+03  0.00000000000E+00 0. -1.
         -5    1    3    3    0  503 -0.72738405286E+01  0.19147244375E+02  0.53098621078E+02  0.57105860326E+02  0.47000000000E+01 0.  1.
         13    1    4    4    0    0  0.21652235785E+02 -0.82967958043E+02  0.18706145749E+02  0.87763439227E+02  0.00000000000E+00 0. -1.
        -14    1    4    4    0    0  0.25022095172E+02 -0.12532636347E+03  0.14086825689E+03  0.19020165201E+03  0.00000000000E+00 0.  1.
</event>
<event>
12    1  0.8406581E-002  0.2542513E+03  0.7818608E-02  0.1111791E+00
         21   -1    0    0  501  502  0.00000000000E+00  0.00000000000E+00  0.14748069833E+04  0.14748069833E+04  0.00000000000E+00 0. -1.
         21   -1    0    0  502  503 -0.00000000000E+00 -0.00000000000E+00 -0.75924417608E+02  0.75924417608E+02  0.00000000000E+00 0.  1.
         -6    2    1    2    0  503 -0.11440512227E+03  0.14818208944E+03  0.19137504722E+03  0.31822653896E+03  0.17203853570E+03 0.  0.
        -24    2    3    3    0    0 -0.70929476706E+02  0.12606031296E+03  0.20963814770E+03  0.26592801517E+03  0.76468052860E+02 0.  0.
          6    2    1    2  501    0  0.11440512227E+03 -0.14818208944E+03  0.12075075185E+04  0.12325048619E+04  0.16108185473E+03 0.  0.
         24    2    5    5    0    0  0.61922734163E+02 -0.13518091145E+03  0.10937206393E+04  0.11064375166E+04  0.76621390560E+02 0.  0.
          5    1    5    5  501    0  0.52482388108E+02 -0.13001177994E+02  0.11378687920E+03  0.12606734537E+03  0.47000000000E+01 0. -1.
        -11    1    6    6    0    0 -0.46478454446E+01 -0.55264121089E+02  0.23575910919E+03  0.24219430859E+03  0.00000000000E+00 0.  1.
         12    1    6    6    0    0  0.66570579607E+02 -0.79916790361E+02  0.85796153008E+03  0.86424320799E+03  0.00000000000E+00 0. -1.
         -5    1    3    3    0  503 -0.43475645565E+02  0.22121776484E+02 -0.18263100481E+02  0.52298523796E+02  0.47000000000E+01 0.  1.
         13    1    4    4    0    0 -0.44834478999E+02  0.57994606050E+02  0.16474300721E+03  0.18031573215E+03  0.00000000000E+00 0. -1.
        -14    1    4    4    0    0 -0.26094997708E+02  0.68065706910E+02  0.44895140495E+02  0.85612283012E+02  0.00000000000E+00 0.  1.
</event>
<event>
12    1  0.8406581E-002  0.2260217E+03  0.7818608E-02  0.1129560E+00
         21   -1    0    0  501  502  0.00000000000E+00  0.00000000000E+00  0.39833473741E+03  0.39833473741E+03  0.00000000000E+00 0. -1.
         21   -1    0    0  502  503 -0.00000000000E+00 -0.00000000000E+00 -0.15017237880E+03  0.15017237880E+03  0.00000000000E+00 0. -1.
         -6    2    1    2    0  503 -0.12703723112E+03 -0.71833817180E+02  0.22941506409E+03  0.32170930293E+03  0.17195071555E+03 0.  0.
        -24    2    3    3    0    0 -0.83997035845E+02 -0.10331013079E+03  0.21699945337E+03  0.26675974317E+03  0.79646171666E+02 0.  0.
          6    2    1    2  501    0  0.12703723112E+03  0.71833817180E+02  0.18747294525E+02  0.22679781328E+03  0.17258977859E+03 0.  0.
         24    2    5    5    0    0  0.97163744623E+02  0.11448822491E+03  0.23457647144E+02  0.17429923123E+03  0.85332373029E+02 0.  0.
          5    1    5    5  501    0  0.29873486499E+02 -0.42654407732E+02 -0.47103526187E+01  0.52498582041E+02  0.47000000000E+01 0. -1.
        -13    1    6    6    0    0  0.28026306533E+02 -0.91829350272E+01  0.12996186750E+02  0.32228884927E+02  0.00000000000E+00 0.  1.
         14    1    6    6    0    0  0.69137438090E+02  0.12367115994E+03  0.10461460394E+02  0.14207034631E+03  0.00000000000E+00 0. -1.
         -5    1    3    3    0  503 -0.43040195277E+02  0.31476313606E+02  0.12415610713E+02  0.54949559753E+02  0.47000000000E+01 0.  1.
         13    1    4    4    0    0 -0.55414162417E+02 -0.24222660196E+02  0.45263094334E+02  0.75539488826E+02  0.00000000000E+00 0. -1.
        -14    1    4    4    0    0 -0.28582873428E+02 -0.79087470590E+02  0.17173635904E+03  0.19122025435E+03  0.00000000000E+00 0.  1.
</event>
<event>
12    1  0.8406581E-002  0.2060653E+03  0.7818608E-02  0.1144844E+00
         21   -1    0    0  501  502  0.00000000000E+00  0.00000000000E+00  0.17762286836E+03  0.17762286836E+03  0.00000000000E+00 0.  1.
         21   -1    0    0  502  503 -0.00000000000E+00 -0.00000000000E+00 -0.70354569104E+03  0.70354569104E+03  0.00000000000E+00 0. -1.
         -6    2    1    2    0  503 -0.10929597399E+03 -0.30940445515E+02 -0.62135312746E+03  0.65463168017E+03  0.17193023753E+03 0.  0.
        -24    2    3    3    0    0 -0.10310736257E+02  0.26929388779E+02 -0.32132700839E+03  0.33340783745E+03  0.84132255917E+02 0.  0.
          6    2    1    2  501    0  0.10929597399E+03  0.30940445515E+02  0.95430304780E+02  0.22653687923E+03  0.17119898796E+03 0.  0.
         24    2    5    5    0    0  0.55444207472E+02  0.75617041782E+02  0.18205560761E+02  0.12222119440E+03  0.76253398404E+02 0.  0.
          5    1    5    5  501    0  0.53851766522E+02 -0.44676596267E+02  0.77224744019E+02  0.10431568482E+03  0.47000000000E+01 0. -1.
        -11    1    6    6    0    0  0.13012797229E+02  0.31794270152E+01  0.34227801353E+02  0.36755734700E+02  0.00000000000E+00 0.  1.
         12    1    6    6    0    0  0.42431410243E+02  0.72437614767E+02 -0.16022240593E+02  0.85465459701E+02  0.00000000000E+00 0. -1.
         -5    1    3    3    0  503 -0.98985237737E+02 -0.57869834293E+02 -0.30002611907E+03  0.32122384272E+03  0.47000000000E+01 0.  1.
         11    1    4    4    0    0 -0.44465822584E+02  0.28392387826E+01 -0.12562952049E+03  0.13329683820E+03  0.00000000000E+00 0. -1.
        -12    1    4    4    0    0  0.34155086326E+02  0.24090149996E+02 -0.19569748790E+03  0.20011099925E+03  0.00000000000E+00 0.  1.
</event>
<event>
12    1  0.8406581E-002  0.2267372E+03  0.7818608E-02  0.1129134E+00
         21   -1    0    0  501  502  0.00000000000E+00  0.00000000000E+00  0.23379191324E+03  0.23379191324E+03  0.00000000000E+00 0. -1.
         21   -1    0    0  502  503 -0.00000000000E+00 -0.00000000000E+00 -0.34250514989E+03  0.34250514989E+03  0.00000000000E+00 0. -1.
         -6    2    1    2    0  503 -0.13047358009E+03  0.70474118965E+02 -0.22750083751E+03  0.32119523133E+03  0.17152197824E+03 0.  0.
        -24    2    3    3    0    0 -0.11335231000E+03  0.11169509249E+03 -0.15814817656E+03  0.23858658694E+03  0.81167566504E+02 0.  0.
          6    2    1    2  501    0  0.13047358009E+03 -0.70474118965E+02  0.11878760086E+03  0.25510183180E+03  0.17022483346E+03 0.  0.
         24    2    5    5    0    0  0.15830185505E+03 -0.64057054287E+02  0.79366359743E+02  0.20619665971E+03  0.83995594532E+02 0.  0.
          5    1    5    5  501    0 -0.27828274961E+02 -0.64170646776E+01  0.39421241114E+02  0.48905172091E+02  0.47000000000E+01 0. -1.
        -11    1    6    6    0    0  0.30066600076E+02 -0.13290369916E+02 -0.17899229814E+02  0.37430158970E+02  0.00000000000E+00 0.  1.
         12    1    6    6    0    0  0.12823525497E+03 -0.50766684371E+02  0.97265589557E+02  0.16876650074E+03  0.00000000000E+00 0. -1.
         -5    1    3    3    0  503 -0.17121270086E+02 -0.41220973521E+02 -0.69352660949E+02  0.82608644391E+02  0.47000000000E+01 0.  1.
         13    1    4    4    0    0 -0.54134972225E+02  0.22302337458E+01 -0.47181468462E+02  0.71844694492E+02  0.00000000000E+00 0. -1.
        -14    1    4    4    0    0 -0.59217337774E+02  0.10946485874E+03 -0.11096670809E+03  0.16674189245E+03  0.00000000000E+00 0.  1.
</event>
<event>
12    1  0.8406581E-002  0.1788815E+03  0.7818608E-02  0.1170127E+00
         21   -1    0    0  503  502  0.00000000000E+00  0.00000000000E+00  0.51714057967E+03  0.51714057967E+03  0.00000000000E+00 0.  1.
         21   -1    0    0  501  503 -0.00000000000E+00 -0.00000000000E+00 -0.65707938118E+02  0.65707938118E+02  0.00000000000E+00 0.  1.
          6    2    1    2  501    0  0.36692973512E+01 -0.20203706762E+02  0.13811759055E+03  0.22206477259E+03  0.17266916602E+03 0.  0.
         24    2    3    3    0    0  0.24417046287E+02 -0.11647359091E+02  0.14780515114E+01  0.83514659631E+02  0.78997851957E+02 0.  0.
         -6    2    1    2    0  502 -0.36692973512E+01  0.20203706762E+02  0.31331505100E+03  0.36078374520E+03  0.17769900424E+03 0.  0.
        -24    2    5    5    0    0 -0.61702940966E+02  0.22024675518E+02  0.26698158999E+03  0.28635190169E+03  0.80161729989E+02 0.  0.
          5    1    3    3  501    0 -0.20747748936E+02 -0.85563476705E+01  0.13663953904E+03  0.13855011296E+03  0.47000000000E+01 0. -1.
        -13    1    4    4    0    0  0.21996420658E+02  0.10025194577E+02  0.35592771974E+02  0.43025486224E+02  0.00000000000E+00 0.  1.
         14    1    4    4    0    0  0.24206256297E+01 -0.21672553668E+02 -0.34114720462E+02  0.40489173407E+02  0.00000000000E+00 0. -1.
         -5    1    5    5    0  502  0.58033643615E+02 -0.18209687566E+01  0.46333461014E+02  0.74431843508E+02  0.47000000000E+01 0.  1.
         13    1    6    6    0    0  0.97376758892E+01  0.29999072283E+02  0.87452331326E+02  0.92965998751E+02  0.00000000000E+00 0. -1.
        -14    1    6    6    0    0 -0.71440616856E+02 -0.79743967646E+01  0.17952925866E+03  0.19338590294E+03  0.00000000000E+00 0.  1.
</event>
<event>
12    1  0.8406581E-002  0.1930043E+03  0.7818608E-02  0.1155970E+00
         21   -1    0    0  501  502  0.00000000000E+00  0.00000000000E+00  0.20222595521E+03  0.20222595521E+03  0.00000000000E+00 0.  1.
         21   -1    0    0  502  503 -0.00000000000E+00 -0.00000000000E+00 -0.18507458198E+03  0.18507458198E+03  0.00000000000E+00 0. -1.
         -6    2    1    2    0  503  0.10632709256E+02  0.85716953813E+02  0.27121509368E+02  0.19490057143E+03  0.17259839454E+03 0.  0.
        -24    2    3    3    0    0  0.48471158405E+02  0.43195258804E+00 -0.16997207931E+02  0.91586337740E+02  0.75825539254E+02 0.  0.
          6    2    1    2  501    0 -0.10632709256E+02 -0.85716953813E+02 -0.99701361382E+01  0.19239996576E+03  0.17163301702E+03 0.  0.
         24    2    5    5    0    0 -0.73014732663E+02 -0.43602068736E+02 -0.65726671484E+01  0.11690948169E+03  0.79952081717E+02 0.  0.
          5    1    5    5  501    0  0.62382023407E+02 -0.42114885077E+02 -0.33974689899E+01  0.75490484069E+02  0.47000000000E+01 0. -1.
        -11    1    6    6    0    0 -0.37501424412E+01 -0.38158157658E+02  0.19104962949E+02  0.42838162583E+02  0.00000000000E+00 0.  1.
         12    1    6    6    0    0 -0.69264590222E+02 -0.54439110781E+01 -0.25677630097E+02  0.74071319104E+02  0.00000000000E+00 0. -1.
         -5    1    3    3    0  503 -0.37838449148E+02  0.85285001225E+02  0.44118717298E+02  0.10331423369E+03  0.47000000000E+01 0.  1.
         13    1    4    4    0    0  0.13399474574E+02  0.17161646939E+02 -0.40637318912E+02  0.46102708520E+02  0.00000000000E+00 0. -1.
        -14    1    4    4    0    0  0.35071683831E+02 -0.16729694351E+02  0.23640110981E+02  0.45483629220E+02  0.00000000000E+00 0.  1.
</event>
<event>
12    1  0.8406581E-002  0.2837641E+03  0.7818608E-02  0.1094297E+00
         21   -1    0    0  503  502  0.00000000000E+00  0.00000000000E+00  0.39669259088E+03  0.39669259088E+03  0.00000000000E+00 0. -1.
         21   -1    0    0  501  503 -0.00000000000E+00 -0.00000000000E+00 -0.21018747653E+03  0.21018747653E+03  0.00000000000E+00 0. -1.
          6    2    1    2  501    0  0.19840661881E+03  0.93718302619E+02  0.24344528113E+02  0.28004967661E+03  0.17229874836E+03 0.  0.
         24    2    3    3    0    0  0.76801781513E+02  0.39262082268E+00  0.51003139969E+02  0.12438917770E+03  0.83502571495E+02 0.  0.
         -6    2    1    2    0  502 -0.19840661881E+03 -0.93718302619E+02  0.16216058624E+03  0.32683039080E+03  0.17992704629E+03 0.  0.
        -24    2    5    5    0    0 -0.12639388132E+03 -0.19008860135E+02  0.16469380533E+03  0.22292734775E+03  0.78967099863E+02 0.  0.
          5    1    3    3  501    0  0.12160483730E+03  0.93325681796E+02 -0.26658611856E+02  0.15566049892E+03  0.47000000000E+01 0. -1.
        -11    1    4    4    0    0  0.20877862185E+01  0.32098963087E+02  0.17099970406E+02  0.36429538433E+02  0.00000000000E+00 0.  1.
         12    1    4    4    0    0  0.74713995295E+02 -0.31706342264E+02  0.33903169563E+02  0.87959639262E+02  0.00000000000E+00 0. -1.
         -5    1    5    5    0  502 -0.72012737485E+02 -0.74709442483E+02 -0.25332190893E+01  0.10390304305E+03  0.47000000000E+01 0.  1.
         11    1    6    6    0    0 -0.97586912508E+02  0.93791934007E+01  0.71512656603E+02  0.12134757853E+03  0.00000000000E+00 0. -1.
        -12    1    6    6    0    0 -0.28806968816E+02 -0.28388053536E+02  0.93181148723E+02  0.10157976921E+03  0.00000000000E+00 0.  1.
</event>
<event>
12    1  0.8406581E-002  0.1800244E+03  0.7818608E-02  0.1169134E+00
         21   -1    0    0  501  502  0.00000000000E+00  0.00000000000E+00  0.10689977467E+03  0.10689977467E+03  0.00000000000E+00 0. -1.
         21   -1    0    0  502  503 -0.00000000000E+00 -0.00000000000E+00 -0.32623784560E+03  0.32623784560E+03  0.00000000000E+00 0. -1.
         -6    2    1    2    0  503 -0.26219421849E+02 -0.25086967332E+02 -0.17623774651E+03  0.24802569109E+03  0.17070496810E+03 0.  0.
        -24    2    3    3    0    0 -0.77067739519E+02 -0.50272072161E+02 -0.13922565980E+03  0.18011526864E+03  0.67756977033E+02 0.  0.
          6    2    1    2  501    0  0.26219421849E+02  0.25086967332E+02 -0.43100324418E+02  0.18511192917E+03  0.17632916476E+03 0.  0.
         24    2    5    5    0    0  0.55612453270E+02  0.30664852199E+02 -0.85913926623E+02  0.13266998384E+03  0.78657763165E+02 0.  0.
          5    1    5    5  501    0 -0.29393031421E+02 -0.55778848664E+01  0.42813602205E+02  0.52441945325E+02  0.47000000000E+01 0. -1.
        -11    1    6    6    0    0  0.36823613141E+02 -0.13385179477E+02 -0.73351484673E+02  0.83159977261E+02  0.00000000000E+00 0.  1.
         12    1    6    6    0    0  0.18788840129E+02  0.44050031676E+02 -0.12562441951E+02  0.49510006583E+02  0.00000000000E+00 0. -1.
         -5    1    3    3    0  503  0.50848317670E+02  0.25185104829E+02 -0.37012086709E+02  0.67910422453E+02  0.47000000000E+01 0.  1.
         13    1    4    4    0    0  0.25863275989E+00 -0.21920372281E+02 -0.47620607160E+01  0.22433163712E+02  0.00000000000E+00 0. -1.
        -14    1    4    4    0    0 -0.77326372279E+02 -0.28351699879E+02 -0.13446359909E+03  0.15768210493E+03  0.00000000000E+00 0.  1.
</event>
<event>
12    1  0.8406581E-002  0.1832850E+03  0.7818608E-02  0.1165671E+00
         21   -1    0    0  501  502  0.00000000000E+00  0.00000000000E+00  0.20854133235E+03  0.20854133235E+03  0.00000000000E+00 0.  1.
         21   -1    0    0  502  503 -0.00000000000E+00 -0.00000000000E+00 -0.21523577148E+03  0.21523577148E+03  0.00000000000E+00 0.  1.
         -6    2    1    2    0  503  0.35690875766E+02 -0.46110922390E+02 -0.11320833308E+03  0.21542866097E+03  0.17376226723E+03 0.  0.
        -24    2    3    3    0    0  0.79253441423E+02 -0.12830240911E+02 -0.11281059376E+03  0.16040549237E+03  0.80981287104E+02 0.  0.
          6    2    1    2  501    0 -0.35690875766E+02  0.46110922390E+02  0.10651389395E+03  0.20834844286E+03  0.16930389323E+03 0.  0.
         24    2    5    5    0    0 -0.74779973727E+02  0.63993898259E+02  0.47868850169E+02  0.13548494332E+03  0.79859123242E+02 0.  0.
          5    1    5    5  501    0  0.39089097961E+02 -0.17882975869E+02  0.58645043777E+02  0.72863499538E+02  0.47000000000E+01 0. -1.
        -13    1    6    6    0    0  0.11186278327E+01  0.42038394693E+02  0.36454398799E+02  0.55654300359E+02  0.00000000000E+00 0.  1.
         14    1    6    6    0    0 -0.75898601560E+02  0.21955503566E+02  0.11414451370E+02  0.79830642962E+02  0.00000000000E+00 0. -1.
         -5    1    3    3    0  503 -0.43562565657E+02 -0.33280681479E+02 -0.39773932342E+00  0.55023168601E+02  0.47000000000E+01 0.  1.
         11    1    4    4    0    0  0.27909062975E+02  0.30123321806E+02 -0.19224955842E+02  0.45342355914E+02  0.00000000000E+00 0. -1.
        -12    1    4    4    0    0  0.51344378448E+02 -0.42953562717E+02 -0.93585637913E+02  0.11506313646E+03  0.00000000000E+00 0.  1.
</event>
<event>
12    1  0.8406581E-002  0.1918384E+03  0.7818608E-02  0.1157242E+00
         21   -1    0    0  503  502  0.00000000000E+00  0.00000000000E+00  0.25897527503E+03  0.25897527503E+03  0.00000000000E+00 0.  1.
         21   -1    0    0  501  503 -0.00000000000E+00 -0.00000000000E+00 -0.24676948307E+03  0.24676948307E+03  0.00000000000E+00 0.  1.
          6    2    1    2  501    0 -0.62539897847E+02  0.53516285904E+02 -0.15967301959E+03  0.24959455930E+03  0.17328225290E+03 0.  0.
         24    2    3    3    0    0 -0.48950296181E+02  0.96685032419E+02 -0.15253668072E+03  0.20353768922E+03  0.80100093497E+02 0.  0.
         -6    2    1    2    0  502  0.62539897847E+02 -0.53516285904E+02  0.17187881155E+03  0.25615019879E+03  0.17115889344E+03 0.  0.
        -24    2    5    5    0    0  0.33424903778E+02 -0.28349216559E+02  0.10446275196E+02  0.90127254442E+02  0.78056998762E+02 0.  0.
          5    1    3    3  501    0 -0.13589601666E+02 -0.43168746515E+02 -0.71363388651E+01  0.46056870080E+02  0.47000000000E+01 0. -1.
        -11    1    4    4    0    0 -0.53524681216E+02  0.61514190831E+02 -0.51464942083E+02  0.96423687113E+02  0.00000000000E+00 0.  1.
         12    1    4    4    0    0  0.45743850353E+01  0.35170841588E+02 -0.10107173864E+03  0.10711400211E+03  0.00000000000E+00 0. -1.
         -5    1    5    5    0  502  0.29114994069E+02 -0.25167069344E+02  0.16143253635E+03  0.16602294435E+03  0.47000000000E+01 0.  1.
         11    1    6    6    0    0 -0.23210682953E+02  0.42323490911E+01  0.73637913004E+01  0.24715865437E+02  0.00000000000E+00 0. -1.
        -12    1    6    6    0    0  0.56635586732E+02 -0.32581565650E+02  0.30824838953E+01  0.65411389005E+02  0.00000000000E+00 0.  1.
</event>
<event>
12    1  0.8406581E-002  0.1872543E+03  0.7818608E-02  0.1161071E+00
         21   -1    0    0  501  502  0.00000000000E+00  0.00000000000E+00  0.35857732303E+03  0.35857732303E+03  0.00000000000E+00 0. -1.
         21   -1    0    0  502  503 -0.00000000000E+00 -0.00000000000E+00 -0.16996154020E+03  0.16996154020E+03  0.00000000000E+00 0. -1.
         -6    2    1    2    0  503  0.46618288174E+02  0.59054949066E+02 -0.78131578285E+02  0.20290078883E+03  0.17147429773E+03 0.  0.
        -24    2    3    3    0    0  0.66848866433E+02  0.61775247511E+02 -0.11085468322E+03  0.16404763044E+03  0.79611004968E+02 0.  0.
          6    2    1    2  501    0 -0.46618288174E+02 -0.59054949066E+02  0.26674736112E+03  0.32563807440E+03  0.17095393833E+03 0.  0.
         24    2    5    5    0    0 -0.89158776899E+02 -0.67129069980E+01  0.19335873117E+03  0.22585148434E+03  0.75012955152E+02 0.  0.
          5    1    5    5  501    0  0.42540488724E+02 -0.52342042068E+02  0.73388629947E+02  0.99786590052E+02  0.47000000000E+01 0. -1.
        -11    1    6    6    0    0 -0.64532023089E+02  0.30661238842E+02  0.10846198836E+03  0.12987877613E+03  0.00000000000E+00 0.  1.
         12    1    6    6    0    0 -0.24626753809E+02 -0.37374145840E+02  0.84896742818E+02  0.95972708212E+02  0.00000000000E+00 0. -1.
         -5    1    3    3    0  503 -0.20230578258E+02 -0.27202984454E+01  0.32723104938E+02  0.38853158392E+02  0.47000000000E+01 0.  1.
         13    1    4    4    0    0  0.57068964261E+02  0.77770867031E+02 -0.10845362393E+03  0.14514600575E+03  0.00000000000E+00 0. -1.
        -14    1    4    4    0    0  0.97799021715E+01 -0.15995619520E+02 -0.24010592930E+01  0.18901624693E+02  0.00000000000E+00 0.  1.
</event>
<event>
12    1  0.8406581E-002  0.1760496E+03  0.7818608E-02  0.1172127E+00
         21   -1    0    0  501  502  0.00000000000E+00  0.00000000000E+00  0.13297914986E+03  0.13297914986E+03  0.00000000000E+00 0. -1.
         21   -1    0    0  502  503 -0.00000000000E+00 -0.00000000000E+00 -0.23869239927E+03  0.23869239927E+03  0.00000000000E+00 0. -1.
         -6    2    1    2    0  503 -0.32229267397E+02 -0.59891181210E+01 -0.18636744055E+02  0.17526435310E+03  0.17115977923E+03 0.  0.
        -24    2    3    3    0    0  0.93301664098E+01  0.33855864687E+02  0.36175646590E+02  0.95632089781E+02  0.81262215148E+02 0.  0.
          6    2    1    2  501    0  0.32229267397E+02  0.59891181210E+01 -0.87076505359E+02  0.19640719603E+03  0.17297073063E+03 0.  0.
         24    2    5    5    0    0 -0.86729656426E+01  0.65416663583E+02 -0.61990859179E+02  0.11988265440E+03  0.78577503119E+02 0.  0.
          5    1    5    5  501    0  0.40902233039E+02 -0.59427545462E+02 -0.25085646180E+02  0.76524541629E+02  0.47000000000E+01 0. -1.
        -11    1    6    6    0    0 -0.43399585120E+02  0.39782933489E+02 -0.41969139281E+02  0.72302243655E+02  0.00000000000E+00 0.  1.
         12    1    6    6    0    0  0.34726619477E+02  0.25633730094E+02 -0.20021719898E+02  0.47580410743E+02  0.00000000000E+00 0. -1.
         -5    1    3    3    0  503 -0.41559433807E+02 -0.39844982808E+02 -0.54812390645E+02  0.79632263320E+02  0.47000000000E+01 0.  1.
         13    1    4    4    0    0 -0.23388682448E+02  0.23215697731E+02 -0.13159518936E+02  0.35484814025E+02  0.00000000000E+00 0. -1.
        -14    1    4    4    0    0  0.32718848858E+02  0.10640166957E+02  0.49335165526E+02  0.60147275756E+02  0.00000000000E+00 0.  1.
</event>
<event>
12    1  0.8406581E-002  0.2324532E+03  0.7818608E-02  0.1125590E+00
         21   -1    0    0  503  502  0.00000000000E+00  0.00000000000E+00  0.54985859631E+03  0.54985859631E+03  0.00000000000E+00 0.  1.
         21   -1    0    0  501  503 -0.00000000000E+00 -0.00000000000E+00 -0.13950099927E+03  0.13950099927E+03  0.00000000000E+00 0. -1.
          6    2    1    2  501    0  0.86297204199E+02 -0.12368296567E+03  0.13027243456E+02  0.22902720036E+03  0.17186932822E+03 0.  0.
         24    2    3    3    0    0  0.73200621098E+02 -0.13479429879E+02  0.33685348900E+02  0.11604407281E+03  0.82410546327E+02 0.  0.
         -6    2    1    2    0  502 -0.86297204199E+02  0.12368296567E+03  0.39733035358E+03  0.46033239521E+03  0.17688928954E+03 0.  0.
        -24    2    5    5    0    0 -0.51835990829E+02  0.64432536971E+01  0.25680519443E+03  0.27404730283E+03  0.80153171096E+02 0.  0.
          5    1    3    3  501    0  0.13096583100E+02 -0.11020353579E+03 -0.20658105444E+02  0.11298312755E+03  0.47000000000E+01 0. -1.
        -11    1    4    4    0    0  0.33670683184E+02 -0.24879715488E+02  0.55466677698E+02  0.69492931178E+02  0.00000000000E+00 0.  1.
         12    1    4    4    0    0  0.39529937914E+02  0.11400285609E+02 -0.21781328798E+02  0.46551141637E+02  0.00000000000E+00 0. -1.
         -5    1    5    5    0  502 -0.34461213369E+02  0.11723971197E+03  0.14052515915E+03  0.18628509238E+03  0.47000000000E+01 0.  1.
         13    1    6    6    0    0 -0.67537908947E+02 -0.14164555735E+02  0.17044150536E+03  0.18388124030E+03  0.00000000000E+00 0. -1.
        -14    1    6    6    0    0  0.15701918117E+02  0.20607809432E+02  0.86363689071E+02  0.90166062530E+02  0.00000000000E+00 0.  1.
</event>
<event>
12    1  0.8406581E-002  0.1762573E+03  0.7818608E-02  0.1172015E+00
         21   -1    0    0  501  502  0.00000000000E+00  0.00000000000E+00  0.67832895112E+02  0.67832895112E+02  0.00000000000E+00 0.  1.
         21   -1    0    0  502  503 -0.00000000000E+00 -0.00000000000E+00 -0.73637355501E+03  0.73637355501E+03  0.00000000000E+00 0.  1.
         -6    2    1    2    0  503  0.91211527963E+00 -0.43032331730E+02 -0.58270873570E+03  0.60816117060E+03  0.16869476942E+03 0.  0.
        -24    2    3    3    0    0 -0.49358294225E+02  0.79023005026E+01 -0.23439885971E+03  0.25254436764E+03  0.79606184623E+02 0.  0.
          6    2    1    2  501    0 -0.91211527963E+00  0.43032331730E+02 -0.85831924193E+02  0.19604527952E+03  0.17092108964E+03 0.  0.
         24    2    5    5    0    0 -0.65546512876E+02  0.11217289194E+02 -0.53260495170E+02  0.11684433084E+03  0.79960892790E+02 0.  0.
          5    1    5    5  501    0  0.64634397596E+02  0.31815042536E+02 -0.32571429023E+02  0.79200948686E+02  0.47000000000E+01 0. -1.
        -11    1    6    6    0    0  0.16166727972E+02 -0.29884727288E+01  0.28805665001E+01  0.16691067249E+02  0.00000000000E+00 0.  1.
         12    1    6    6    0    0 -0.81713240848E+02  0.14205761923E+02 -0.56141061670E+02  0.10015326359E+03  0.00000000000E+00 0. -1.
         -5    1    3    3    0  503  0.50270409505E+02 -0.50934632233E+02 -0.34830987599E+03  0.35561680296E+03  0.47000000000E+01 0.  1.
         11    1    4    4    0    0  0.36572763364E+01  0.83531166171E+01  0.27635073418E+01  0.95282317482E+01  0.00000000000E+00 0. -1.
        -12    1    4    4    0    0 -0.53015570562E+02 -0.45081611445E+00 -0.23716236705E+03  0.24301613589E+03  0.00000000000E+00 0.  1.
</event>
<event>
12    1  0.8406581E-002  0.1730418E+03  0.7818608E-02  0.1174910E+00
         21   -1    0    0  501  502  0.00000000000E+00  0.00000000000E+00  0.18824259560E+03  0.18824259560E+03  0.00000000000E+00 0. -1.
         21   -1    0    0  502  503 -0.00000000000E+00 -0.00000000000E+00 -0.33618328863E+03  0.33618328863E+03  0.00000000000E+00 0. -1.
         -6    2    1    2    0  503  0.15166683643E+02 -0.14715528678E+02 -0.26475463399E+03  0.31628861523E+03  0.17174660646E+03 0.  0.
        -24    2    3    3    0    0 -0.48861702332E+02 -0.39033179094E+02 -0.18426825829E+03  0.21050048260E+03  0.80278310503E+02 0.  0.
          6    2    1    2  501    0 -0.15166683643E+02  0.14715528678E+02  0.11681394095E+03  0.20813726900E+03  0.17096505745E+03 0.  0.
         24    2    5    5    0    0 -0.56598633099E+02 -0.37305022995E+02  0.74328236020E+02  0.12908115377E+03  0.80883790585E+02 0.  0.
          5    1    5    5  501    0  0.41431949456E+02  0.52020551673E+02  0.42485704935E+02  0.79056115234E+02  0.47000000000E+01 0. -1.
        -13    1    6    6    0    0 -0.12656018472E+01 -0.24886900171E+02 -0.10501737089E+02  0.27041561161E+02  0.00000000000E+00 0.  1.
         14    1    6    6    0    0 -0.55333031252E+02 -0.12418122824E+02  0.84829973109E+02  0.10203959261E+03  0.00000000000E+00 0. -1.
         -5    1    3    3    0  503  0.64028385975E+02  0.24317650416E+02 -0.80486375701E+02  0.10578813263E+03  0.47000000000E+01 0.  1.
         13    1    4    4    0    0  0.38813423013E+01  0.19978183827E+02 -0.22064986113E+02  0.30017599158E+02  0.00000000000E+00 0. -1.
        -14    1    4    4    0    0 -0.52743044634E+02 -0.59011362921E+02 -0.16220327217E+03  0.18048288344E+03  0.00000000000E+00 0.  1.
</event>
<event>
12    1  0.8406581E-002  0.1888524E+03  0.7818608E-02  0.1160145E+00
         21   -1    0    0  501  502  0.00000000000E+00  0.00000000000E+00  0.26521683355E+03  0.26521683355E+03  0.00000000000E+00 0.  1.
         21   -1    0    0  502  503 -0.00000000000E+00 -0.00000000000E+00 -0.33542469911E+03  0.33542469911E+03  0.00000000000E+00 0.  1.
         -6    2    1    2    0  503  0.37194135381E+02  0.60259101919E+02 -0.26859996035E+03  0.32673526262E+03  0.17203322374E+03 0.  0.
        -24    2    3    3    0    0 -0.17528882931E+02  0.11124848965E+02 -0.22809042464E+03  0.24264069663E+03  0.80113930417E+02 0.  0.
          6    2    1    2  501    0 -0.37194135381E+02 -0.60259101919E+02  0.19839209478E+03  0.27390627003E+03  0.17507329443E+03 0.  0.
         24    2    5    5    0    0  0.46074029478E+02 -0.12735891241E+02  0.99301932801E+02  0.13594615611E+03  0.79595630441E+02 0.  0.
          5    1    5    5  501    0 -0.83268164859E+02 -0.47523210678E+02  0.99090161983E+02  0.13796011392E+03  0.47000000000E+01 0. -1.
        -11    1    6    6    0    0 -0.13522969391E+02 -0.27998471861E+02  0.28872931070E+02  0.42431489207E+02  0.00000000000E+00 0.  1.
         12    1    6    6    0    0  0.59596998869E+02  0.15262580620E+02  0.70429001731E+02  0.93514666904E+02  0.00000000000E+00 0. -1.
         -5    1    3    3    0  503  0.54723018312E+02  0.49134252954E+02 -0.40509535712E+02  0.84094565997E+02  0.47000000000E+01 0.  1.
         13    1    4    4    0    0  0.12510582752E+02 -0.14159572685E+02 -0.10661664255E+02  0.21695143791E+02  0.00000000000E+00 0. -1.
        -14    1    4    4    0    0 -0.30039465683E+02  0.25284421650E+02 -0.21742876038E+03  0.22094555284E+03  0.00000000000E+00 0.  1.
</event>
<event>
12    1  0.8406581E-002  0.2291257E+03  0.7818608E-02  0.1127527E+00
         21   -1    0    0  501  502  0.00000000000E+00  0.00000000000E+00  0.63961260801E+03  0.63961260801E+03  0.00000000000E+00 0. -1.
         21   -1    0    0  502  503 -0.00000000000E+00 -0.00000000000E+00 -0.82718019895E+02  0.82718019895E+02  0.00000000000E+00 0.  1.
         -6    2    1    2    0  503  0.14504164102E+03 -0.29266102868E+02  0.23616194072E+03  0.32904562946E+03  0.17494279527E+03 0.  0.
        -24    2    3    3    0    0  0.16627602194E+03 -0.44979201775E+02  0.23515821815E+03  0.30219608813E+03  0.79700966468E+02 0.  0.
          6    2    1    2  501    0 -0.14504164102E+03  0.29266102868E+02  0.32073264739E+03  0.39328499844E+03  0.17294529912E+03 0.  0.
         24    2    5    5    0    0 -0.13666691839E+03  0.30351115228E+02  0.14445385421E+03  0.21674147362E+03  0.80690232448E+02 0.  0.
          5    1    5    5  501    0 -0.83747226289E+01 -0.10850123600E+01  0.17627879318E+03  0.17654352482E+03  0.47000000000E+01 0. -1.
        -11    1    6    6    0    0 -0.46373383532E+02 -0.27682927732E+02  0.42821438421E+02  0.68923949223E+02  0.00000000000E+00 0.  1.
         12    1    6    6    0    0 -0.90293534856E+02  0.58034042960E+02  0.10163241579E+03  0.14781752439E+03  0.00000000000E+00 0. -1.
         -5    1    3    3    0  503 -0.21234380922E+02  0.15713098907E+02  0.10037225684E+01  0.26849541326E+02  0.47000000000E+01 0.  1.
         13    1    4    4    0    0  0.27868971475E+02  0.17683512804E+02  0.19313152978E+02  0.38241130659E+02  0.00000000000E+00 0. -1.
        -14    1    4    4    0    0  0.13840705046E+03 -0.62662714579E+02  0.21584506517E+03  0.26395495748E+03  0.00000000000E+00 0.  1.
</event>
<event>
12    1  0.8406581E-002  0.1919705E+03  0.7818608E-02  0.1156703E+00
         21   -1    0    0  501  502  0.00000000000E+00  0.00000000000E+00  0.58679017730E+02  0.58679017730E+02  0.00000000000E+00 0. -1.
         21   -1    0    0  502  503 -0.00000000000E+00 -0.00000000000E+00 -0.69439958005E+03  0.69439958005E+03  0.00000000000E+00 0. -1.
         -6    2    1    2    0  503 -0.59822104937E+02 -0.61820140318E+02 -0.43437635385E+03  0.47490576848E+03  0.17161660224E+03 0.  0.
        -24    2    3    3    0    0 -0.69344222585E+02 -0.98673382003E+02 -0.39302931489E+03  0.41850984861E+03  0.78315984960E+02 0.  0.
          6    2    1    2  501    0  0.59822104937E+02  0.61820140318E+02 -0.20134420847E+03  0.27817282930E+03  0.17158152199E+03 0.  0.
         24    2    5    5    0    0  0.87183447804E+02  0.67917752994E+02 -0.19468641214E+03  0.24897967572E+03  0.10896928515E+03 0.  0.
          5    1    5    5  501    0 -0.27361342867E+02 -0.60976126757E+01 -0.66577963275E+01  0.29193153577E+02  0.47000000000E+01 0. -1.
        -13    1    6    6    0    0  0.34422098214E+02 -0.22400977759E+02 -0.20749162904E+02  0.46013176496E+02  0.00000000000E+00 0.  1.
         14    1    6    6    0    0  0.52761349590E+02  0.90318730753E+02 -0.17393724924E+03  0.20296649922E+03  0.00000000000E+00 0. -1.
         -5    1    3    3    0  503  0.95221176484E+01  0.36853241684E+02 -0.41347038963E+02  0.56395919872E+02  0.47000000000E+01 0.  1.
         13    1    4    4    0    0 -0.16505723364E+02 -0.55568690984E+02 -0.28442788899E+03  0.29027494270E+03  0.00000000000E+00 0. -1.
        -14    1    4    4    0    0 -0.52838499221E+02 -0.43104691018E+02 -0.10860142590E+03  0.12823490591E+03  0.00000000000E+00 0.  1.
</event>
<event>
12    1  0.8406581E-002  0.1774536E+03  0.7818608E-02  0.1170615E+00
         21   -1    0    0  503  502  0.00000000000E+00  0.00000000000E+00  0.30881453922E+03  0.30881453922E+03  0.00000000000E+00 0.  1.
         21   -1    0    0  501  503 -0.00000000000E+00 -0.00000000000E+00 -0.12508334101E+03  0.12508334101E+03  0.00000000000E+00 0.  1.
          6    2    1    2  501    0 -0.22495578071E+02  0.33537283630E+02  0.18635214765E+03  0.25642493612E+03  0.17145210557E+03 0.  0.
         24    2    3    3    0    0 -0.69458405093E+02  0.59513426440E+02  0.14065277208E+03  0.18577941224E+03  0.79777626888E+02 0.  0.
         -6    2    1    2    0  502  0.22495578071E+02 -0.33537283630E+02 -0.26209494319E+01  0.17747294412E+03  0.17279750025E+03 0.  0.
        -24    2    5    5    0    0  0.13157333944E+02  0.23683458780E+02  0.50534294936E+02  0.98675823807E+02  0.80306796617E+02 0.  0.
          5    1    3    3  501    0  0.46962827022E+02 -0.25976142810E+02  0.45699375566E+02  0.70645523880E+02  0.47000000000E+01 0. -1.
        -13    1    4    4    0    0 -0.84553630980E+02  0.56791181486E+02  0.13567468971E+03  0.16965310558E+03  0.00000000000E+00 0.  1.
         14    1    4    4    0    0  0.15095225887E+02  0.27222449538E+01  0.49780823740E+01  0.16126306654E+02  0.00000000000E+00 0. -1.
         -5    1    5    5    0  502  0.93382441264E+01 -0.57220742410E+02 -0.53155244368E+02  0.78797120310E+02  0.47000000000E+01 0.  1.
         11    1    6    6    0    0  0.16261868866E+02 -0.20797546044E+02 -0.55993142292E+01  0.26987749449E+02  0.00000000000E+00 0. -1.
        -12    1    6    6    0    0 -0.31045349217E+01  0.44481004824E+02  0.56133609165E+02  0.71688074358E+02  0.00000000000E+00 0.  1.
</event>
<event>
12    1  0.8406581E-002  0.2263387E+03  0.7818608E-02  0.1129486E+00
         21   -1    0    0  501  502  0.00000000000E+00  0.00000000000E+00  0.78488657559E+02  0.78488657559E+02  0.00000000000E+00 0. -1.
         21   -1    0    0  502  503 -0.00000000000E+00 -0.00000000000E+00 -0.80313072964E+03  0.80313072964E+03  0.00000000000E+00 0.  1.
         -6    2    1    2    0  503 -0.20323813519E+01 -0.14705706528E+03 -0.55641175727E+03  0.60068564116E+03  0.17204442693E+03 0.  0.
        -24    2    3    3    0    0  0.45609562028E+02 -0.15178250932E+03 -0.40927952220E+03  0.44588877688E+03  0.78669636954E+02 0.  0.
          6    2    1    2  501    0  0.20323813519E+01  0.14705706528E+03 -0.16823031481E+03  0.28093374604E+03  0.17027160603E+03 0.  0.
         24    2    5    5    0    0 -0.13972311124E+02  0.10298041320E+02 -0.88583907863E+02  0.12179600396E+03  0.81767247202E+02 0.  0.
          5    1    5    5  501    0  0.16004692476E+02  0.13675902396E+03 -0.79646406943E+02  0.15913774208E+03  0.47000000000E+01 0. -1.
        -11    1    6    6    0    0 -0.16417742433E+02  0.43865589431E+02 -0.67231009699E+02  0.81937420437E+02  0.00000000000E+00 0.  1.
         12    1    6    6    0    0  0.24454313089E+01 -0.33567548111E+02 -0.21352898164E+02  0.39858583523E+02  0.00000000000E+00 0. -1.
         -5    1    3    3    0  503 -0.47641943380E+02  0.47254440397E+01 -0.14713223508E+03  0.15479686427E+03  0.47000000000E+01 0.  1.
         11    1    4    4    0    0  0.41629421725E+02 -0.22793054547E+02 -0.96778217579E+02  0.10778940341E+03  0.00000000000E+00 0. -1.
        -12    1    4    4    0    0  0.39801403028E+01 -0.12898945477E+03 -0.31250130462E+03  0.33809937348E+03  0.00000000000E+00 0.  1.
</event>
<event>
12    1  0.8406581E-002  0.1891289E+03  0.7818608E-02  0.1159492E+00
         21   -1    0    0  501  502  0.00000000000E+00  0.00000000000E+00  0.75572848371E+02  0.75572848371E+02  0.00000000000E+00 0. -1.
         21   -1    0    0  502  503 -0.00000000000E+00 -0.00000000000E+00 -0.70414344626E+03  0.70414344626E+03  0.00000000000E+00 0. -1.
         -6    2    1    2    0  503 -0.75053739038E+02 -0.56570684968E+01 -0.90381479979E+02  0.20961525716E+03  0.17350699681E+03 0.  0.
        -24    2    3    3    0    0 -0.45239723902E+02 -0.58112359628E+02 -0.83198367358E+01  0.10765135983E+03  0.78076351288E+02 0.  0.
          6    2    1    2  501    0  0.75053739038E+02  0.56570684968E+01 -0.53818911791E+03  0.57010103747E+03  0.17234442294E+03 0.  0.
         24    2    5    5    0    0  0.20590767120E+02 -0.19719900806E+02 -0.12126156749E+03  0.14883998043E+03  0.81462370730E+02 0.  0.
          5    1    5    5  501    0  0.54462971918E+02  0.25376969303E+02 -0.41692755043E+03  0.42126105705E+03  0.47000000000E+01 0. -1.
        -11    1    6    6    0    0 -0.17619293968E+02  0.11630827207E+02 -0.38644566969E+01  0.21462751152E+02  0.00000000000E+00 0.  1.
         12    1    6    6    0    0  0.38210061088E+02 -0.31350728013E+02 -0.11739711079E+03  0.12737722927E+03  0.00000000000E+00 0. -1.
         -5    1    3    3    0  503 -0.29814015136E+02  0.52455291131E+02 -0.82061643243E+02  0.10196389733E+03  0.47000000000E+01 0.  1.
         11    1    4    4    0    0 -0.13178919114E+02  0.19395998706E+02 -0.15370255301E+01  0.23500023878E+02  0.00000000000E+00 0. -1.
        -12    1    4    4    0    0 -0.32060804788E+02 -0.77508358334E+02 -0.67828112057E+01  0.84151335956E+02  0.00000000000E+00 0.  1.
</event>
<event>
12    1  0.8406581E-002  0.1809170E+03  0.7818608E-02  0.1167875E+00
         21   -1    0    0  503  502  0.00000000000E+00  0.00000000000E+00  0.51001970192E+02  0.51001970192E+02  0.00000000000E+00 0. -1.
         21   -1    0    0  501  503 -0.00000000000E+00 -0.00000000000E+00 -0.83174515912E+03  0.83174515912E+03  0.00000000000E+00 0. -1.
          6    2    1    2  501    0  0.26899138729E+02  0.34539973065E+02 -0.61211341120E+03  0.63828975126E+03  0.17554032297E+03 0.  0.
         24    2    3    3    0    0  0.32844407357E+02  0.58208860414E+02 -0.21140096570E+03  0.23680735261E+03  0.83188505372E+02 0.  0.
         -6    2    1    2    0  502 -0.26899138729E+02 -0.34539973065E+02 -0.16862977773E+03  0.24445737805E+03  0.17148421019E+03 0.  0.
        -24    2    5    5    0    0 -0.64255370055E+02 -0.53984889164E+02 -0.64529211385E+02  0.13206249074E+03  0.78951640258E+02 0.  0.
          5    1    3    3  501    0 -0.59452686276E+01 -0.23668887349E+02 -0.40071244549E+03  0.40148239864E+03  0.47000000000E+01 0. -1.
        -11    1    4    4    0    0 -0.13120681579E+02  0.42728679790E+02 -0.16004047800E+03  0.16616511956E+03  0.00000000000E+00 0.  1.
         12    1    4    4    0    0  0.45965088936E+02  0.15480180625E+02 -0.51360487709E+02  0.70642233053E+02  0.00000000000E+00 0. -1.
         -5    1    5    5    0  502  0.37356231326E+02  0.19444916099E+02 -0.10410056634E+03  0.11239488731E+03  0.47000000000E+01 0.  1.
         13    1    6    6    0    0 -0.43492819209E+02 -0.16395830763E+02 -0.74655568683E+02  0.87942609266E+02  0.00000000000E+00 0. -1.
        -14    1    6    6    0    0 -0.20762550846E+02 -0.37589058401E+02  0.10126357298E+02  0.44119881474E+02  0.00000000000E+00 0.  1.
</event>
<event>
12    1  0.8406581E-002  0.2236261E+03  0.7818608E-02  0.1131267E+00
         21   -1    0    0  503  502  0.00000000000E+00  0.00000000000E+00  0.24518713711E+03  0.24518713711E+03  0.00000000000E+00 0. -1.
         21   -1    0    0  501  503 -0.00000000000E+00 -0.00000000000E+00 -0.23385582777E+03  0.23385582777E+03  0.00000000000E+00 0. -1.
          6    2    1    2  501    0  0.14427250121E+03  0.87057114586E+01  0.91726443394E+02  0.24170716426E+03  0.17064075955E+03 0.  0.
         24    2    3    3    0    0  0.12449996801E+03 -0.53660172796E+02  0.74687637894E+02  0.17393646646E+03  0.79347305759E+02 0.  0.
         -6    2    1    2    0  502 -0.14427250121E+03 -0.87057114586E+01 -0.80395134057E+02  0.23733580062E+03  0.17021915479E+03 0.  0.
        -24    2    5    5    0    0 -0.15774605494E+03  0.56454356061E+01 -0.10511313944E+03  0.20538956669E+03  0.78869596354E+02 0.  0.
          5    1    3    3  501    0  0.19772533199E+02  0.62365884254E+02  0.17038805500E+02  0.67770697803E+02  0.47000000000E+01 0. -1.
        -11    1    4    4    0    0  0.81484397656E+01 -0.33595795091E+02  0.65335023446E+00  0.34576023267E+02  0.00000000000E+00 0.  1.
         12    1    4    4    0    0  0.11635152824E+03 -0.20064377704E+02  0.74034287660E+02  0.13936044319E+03  0.00000000000E+00 0. -1.
         -5    1    5    5    0  502  0.13473553732E+02 -0.14351147065E+02  0.24718005382E+02  0.31946233930E+02  0.47000000000E+01 0.  1.
         11    1    6    6    0    0 -0.11836703847E+03  0.25070103014E+02 -0.41137358118E+02  0.12779494550E+03  0.00000000000E+00 0. -1.
        -12    1    6    6    0    0 -0.39379016466E+02 -0.19424667408E+02 -0.63975781321E+02  0.77594621188E+02  0.00000000000E+00 0.  1.
</event>
<event>
12    1  0.8406581E-002  0.2416544E+03  0.7818608E-02  0.1118702E+00
         21   -1    0    0  503  502  0.00000000000E+00  0.00000000000E+00  0.60367182570E+03  0.60367182570E+03  0.00000000000E+00 0.  1.
         21   -1    0    0  501  503 -0.00000000000E+00 -0.00000000000E+00 -0.18391027452E+03  0.18391027452E+03  0.00000000000E+00 0.  1.
          6    2    1    2  501    0  0.13555447232E+03 -0.10222087895E+03 -0.61251551124E+02  0.24929617182E+03  0.17196716462E+03 0.  0.
         24    2    3    3    0    0  0.11380151380E+03 -0.12070079562E+03 -0.37826247166E+01  0.18495748962E+03  0.81703721526E+02 0.  0.
         -6    2    1    2    0  502 -0.13555447232E+03  0.10222087895E+03  0.48101310231E+03  0.53828592840E+03  0.17191280655E+03 0.  0.
        -24    2    5    5    0    0 -0.11217180236E+03  0.58193981346E+02  0.18676413376E+03  0.23980701380E+03  0.81593562851E+02 0.  0.
          5    1    3    3  501    0  0.21752958524E+02  0.18479916668E+02 -0.57468926408E+02  0.64338682198E+02  0.47000000000E+01 0. -1.
        -11    1    4    4    0    0  0.96608484551E+02 -0.51138964711E+02 -0.20893840394E+02  0.11128767032E+03  0.00000000000E+00 0.  1.
         12    1    4    4    0    0  0.17193029249E+02 -0.69561830907E+02  0.17111215677E+02  0.73669819300E+02  0.00000000000E+00 0. -1.
         -5    1    5    5    0  502 -0.23382669963E+02  0.44026897604E+02  0.29424896855E+03  0.29847891460E+03  0.47000000000E+01 0.  1.
         11    1    6    6    0    0  0.68262620675E+01  0.46066473808E+01 -0.36121975938E+01  0.89926094856E+01  0.00000000000E+00 0. -1.
        -12    1    6    6    0    0 -0.11899806443E+03  0.53587333966E+02  0.19037633135E+03  0.23081440431E+03  0.00000000000E+00 0.  1.
</event>
<event>
12    1  0.8406581E-002  0.2118581E+03  0.7818608E-02  0.1140599E+00
         21   -1    0    0  501  502  0.00000000000E+00  0.00000000000E+00  0.27124011199E+03  0.27124011199E+03  0.00000000000E+00 0. -1.
         21   -1    0    0  502  503 -0.00000000000E+00 -0.00000000000E+00 -0.30102203128E+03  0.30102203128E+03  0.00000000000E+00 0. -1.
         -6    2    1    2    0  503  0.97100535553E+02  0.70683942376E+02 -0.20832383763E+03  0.29712400099E+03  0.17452540480E+03 0.  0.
        -24    2    3    3    0    0  0.11923820874E+03  0.10519934026E+02 -0.16980873522E+03  0.22218877837E+03  0.78768186730E+02 0.  0.
          6    2    1    2  501    0 -0.97100535553E+02 -0.70683942376E+02  0.17854191834E+03  0.27513814228E+03  0.17146150303E+03 0.  0.
         24    2    5    5    0    0 -0.29878733027E+02  0.22403491259E+02  0.12996486414E+03  0.15037492162E+03  0.65780666113E+02 0.  0.
          5    1    5    5  501    0 -0.67221802526E+02 -0.93087433635E+02  0.48577054198E+02  0.12476322066E+03  0.47000000000E+01 0. -1.
        -13    1    6    6    0    0 -0.50728502706E+02  0.11955620371E+02  0.84566019533E+02  0.99336446005E+02  0.00000000000E+00 0.  1.
         14    1    6    6    0    0  0.20849769679E+02  0.10447870888E+02  0.45398844605E+02  0.51038475616E+02  0.00000000000E+00 0. -1.
         -5    1    3    3    0  503 -0.22137673187E+02  0.60164008350E+02 -0.38515102411E+02  0.74935222617E+02  0.47000000000E+01 0.  1.
         11    1    4    4    0    0  0.25744566189E+02 -0.17810000798E+02 -0.92361208325E+02  0.97522159635E+02  0.00000000000E+00 0. -1.
        -12    1    4    4    0    0  0.93493642551E+02  0.28329934823E+02 -0.77447526898E+02  0.12466661874E+03  0.00000000000E+00 0.  1.
</event>
<event>
12    1  0.8406581E-002  0.1888061E+03  0.7818608E-02  0.1159618E+00
         21   -1    0    0  501  502  0.00000000000E+00  0.00000000000E+00  0.40345636925E+02  0.40345636925E+02  0.00000000000E+00 0.  1.
         21   -1    0    0  502  503 -0.00000000000E+00 -0.00000000000E+00 -0.19682298166E+04  0.19682298166E+04  0.00000000000E+00 0.  1.
         -6    2    1    2    0  503 -0.20675440037E+02 -0.75585147459E+02 -0.17103862679E+04  0.17207756778E+04  0.17177648135E+03 0.  0.
        -24    2    3    3    0    0  0.25289826107E+02 -0.13264365358E+02 -0.13199791379E+04  0.13227348473E+04  0.80417865754E+02 0.  0.
          6    2    1    2  501    0  0.20675440037E+02  0.75585147459E+02 -0.21749791176E+03  0.28779977571E+03  0.17141406285E+03 0.  0.
         24    2    5    5    0    0 -0.33620942012E+02  0.15258776251E+02 -0.47687282357E+02  0.99531063427E+02  0.79178012692E+02 0.  0.
          5    1    5    5  501    0  0.54296382049E+02  0.60326371208E+02 -0.16981062940E+03  0.18826871229E+03  0.47000000000E+01 0. -1.
        -13    1    6    6    0    0 -0.11922173254E+02  0.22682636185E+02 -0.65602389313E+02  0.70429494411E+02  0.00000000000E+00 0.  1.
         14    1    6    6    0    0 -0.21698768758E+02 -0.74238599336E+01  0.17915106957E+02  0.29101569016E+02  0.00000000000E+00 0. -1.
         -5    1    3    3    0  503 -0.45965266144E+02 -0.62320782100E+02 -0.39040713003E+03  0.39804083051E+03  0.47000000000E+01 0.  1.
         11    1    4    4    0    0 -0.27211864706E+02  0.76857394716E+01 -0.37315312212E+03  0.37422293986E+03  0.00000000000E+00 0. -1.
        -12    1    4    4    0    0  0.52501690814E+02 -0.20950104830E+02 -0.94682601574E+03  0.94851190742E+03  0.00000000000E+00 0.  1.
</event>
<event>
12    1  0.8406581E-002  0.1823428E+03  0.7818608E-02  0.1168478E+00
         21   -1    0    0  501  502  0.00000000000E+00  0.00000000000E+00  0.33012173720E+03  0.33012173720E+03  0.00000000000E+00 0.  1.
         21   -1    0    0  502  503 -0.00000000000E+00 -0.00000000000E+00 -0.11246665914E+03  0.11246665914E+03  0.00000000000E+00 0.  1.
         -6    2    1    2    0  503 -0.46460056258E+02  0.35585862936E+02  0.16808115834E+02  0.17131659828E+03  0.16013111384E+03 0.  0.
        -24    2    3    3    0    0 -0.37995313856E+01  0.83717326215E+02 -0.72803552454E+00  0.10448722791E+03  0.62402112251E+02 0.  0.
          6    2    1    2  501    0  0.46460056258E+02 -0.35585862936E+02  0.20084696222E+03  0.27127179805E+03  0.17269625275E+03 0.  0.
         24    2    5    5    0    0  0.17629042094E+02 -0.23100413661E+02  0.21869075172E+03  0.23483548862E+03  0.80483846764E+02 0.  0.
          5    1    5    5  501    0  0.28831014164E+02 -0.12485449275E+02 -0.17843789498E+02  0.36436309431E+02  0.47000000000E+01 0. -1.
        -13    1    6    6    0    0 -0.43946050271E+00 -0.51375444339E+02  0.14593239620E+03  0.15471229320E+03  0.00000000000E+00 0.  1.
         14    1    6    6    0    0  0.18068502597E+02  0.28275030678E+02  0.72758355524E+02  0.80123195421E+02  0.00000000000E+00 0. -1.
         -5    1    3    3    0  503 -0.42660524872E+02 -0.48131463279E+02  0.17536151359E+02  0.66829370371E+02  0.47000000000E+01 0.  1.
         11    1    4    4    0    0  0.20647578585E+02  0.50335262563E+02  0.20305587248E+02  0.58071318499E+02  0.00000000000E+00 0. -1.
        -12    1    4    4    0    0 -0.24447109971E+02  0.33382063652E+02 -0.21033622772E+02  0.46415909411E+02  0.00000000000E+00 0.  1.
</event>
<event>
12    1  0.8406581E-002  0.2132608E+03  0.7818608E-02  0.1139374E+00
         21   -1    0    0  501  502  0.00000000000E+00  0.00000000000E+00  0.27567110334E+03  0.27567110334E+03  0.00000000000E+00 0.  1.
         21   -1    0    0  502  503 -0.00000000000E+00 -0.00000000000E+00 -0.17358197993E+03  0.17358197993E+03  0.00000000000E+00 0.  1.
         -6    2    1    2    0  503 -0.50315301095E+02  0.11498278703E+03 -0.27795639627E+01  0.21327894486E+03  0.17241667991E+03 0.  0.
        -24    2    3    3    0    0  0.28163039907E+02  0.20453870153E+02 -0.15611264494E+02  0.89661354408E+02  0.81141415283E+02 0.  0.
          6    2    1    2  501    0  0.50315301095E+02 -0.11498278703E+03  0.10486868737E+03  0.23597413840E+03  0.17009903459E+03 0.  0.
         24    2    5    5    0    0  0.55885939025E+02 -0.14092131953E+03  0.11694257597E+03  0.20644943245E+03  0.77225291228E+02 0.  0.
          5    1    5    5  501    0 -0.55706379300E+01  0.25938532509E+02 -0.12073888601E+02  0.29524705953E+02  0.47000000000E+01 0. -1.
        -11    1    6    6    0    0  0.45079645432E+02 -0.10051212134E+03  0.36967192906E+02  0.11619567255E+03  0.00000000000E+00 0.  1.
         12    1    6    6    0    0  0.10806293592E+02 -0.40409198195E+02  0.79975383062E+02  0.90253759899E+02  0.00000000000E+00 0. -1.
         -5    1    3    3    0  503 -0.78478341002E+02  0.94528916872E+02  0.12831700532E+02  0.12361759046E+03  0.47000000000E+01 0.  1.
         13    1    4    4    0    0  0.55076914571E+02  0.25841846287E+02 -0.10278017147E+02  0.61700122971E+02  0.00000000000E+00 0. -1.
        -14    1    4    4    0    0 -0.26913874663E+02 -0.53879761347E+01 -0.53332473477E+01  0.27961231437E+02  0.00000000000E+00 0.  1.
</event>
<event>
12    1  0.8406581E-002  0.2050699E+03  0.7818608E-02  0.1146417E+00
         21   -1    0    0  503  502  0.00000000000E+00  0.00000000000E+00  0.27066323388E+03  0.27066323388E+03  0.00000000000E+00 0.  1.
         21   -1    0    0  501  503 -0.00000000000E+00 -0.00000000000E+00 -0.20677733906E+03  0.20677733906E+03  0.00000000000E+00 0.  1.
          6    2    1    2  501    0  0.96009307547E+02  0.56558806869E+02 -0.90516317050E+02  0.22415812980E+03  0.17215393616E+03 0.  0.
         24    2    3    3    0    0  0.84642046686E+02 -0.18412788546E+01 -0.11257236464E+03  0.16053153263E+03  0.77007592568E+02 0.  0.
         -6    2    1    2    0  502 -0.96009307547E+02 -0.56558806869E+02  0.15440221187E+03  0.25328244314E+03  0.16701876303E+03 0.  0.
        -24    2    5    5    0    0 -0.52722463546E+02 -0.31323133574E+02  0.11120160204E+02  0.10141925998E+03  0.80008821217E+02 0.  0.
          5    1    3    3  501    0  0.11367260860E+02  0.58400085724E+02  0.22056047594E+02  0.63626597170E+02  0.47000000000E+01 0. -1.
        -11    1    4    4    0    0  0.13132444335E+02 -0.10953622778E+02 -0.79322713066E+02  0.81145152377E+02  0.00000000000E+00 0.  1.
         12    1    4    4    0    0  0.71509602351E+02  0.91123439232E+01 -0.33249651578E+02  0.79386380256E+02  0.00000000000E+00 0. -1.
         -5    1    5    5    0  502 -0.43286844000E+02 -0.25235673295E+02  0.14328205167E+03  0.15186318316E+03  0.47000000000E+01 0.  1.
         11    1    6    6    0    0 -0.25696096930E+02 -0.57616463818E+02  0.77972891238E+01  0.63566846846E+02  0.00000000000E+00 0. -1.
        -12    1    6    6    0    0 -0.27026366617E+02  0.26293330243E+02  0.33228710801E+01  0.37852413133E+02  0.00000000000E+00 0.  1.
</event>
<event>
12    1  0.8406581E-002  0.1897061E+03  0.7818608E-02  0.1158837E+00
         21   -1    0    0  501  502  0.00000000000E+00  0.00000000000E+00  0.21700809450E+03  0.21700809450E+03  0.00000000000E+00 0. -1.
         21   -1    0    0  502  503 -0.00000000000E+00 -0.00000000000E+00 -0.42843079012E+03  0.42843079012E+03  0.00000000000E+00 0. -1.
         -6    2    1    2    0  503 -0.52935430308E+02  0.60114444334E+02 -0.35862162358E+03  0.40570662650E+03  0.17196654235E+03 0.  0.
        -24    2    3    3    0    0 -0.29909443430E+02  0.57433959686E+02 -0.36682749650E+03  0.38067050419E+03  0.78449895133E+02 0.  0.
          6    2    1    2  501    0  0.52935430308E+02 -0.60114444334E+02  0.14719892796E+03  0.23973225813E+03  0.17142965028E+03 0.  0.
         24    2    5    5    0    0  0.53990176921E+02  0.28064094216E+02  0.86950541611E+02  0.13282797754E+03  0.79877045153E+02 0.  0.
          5    1    5    5  501    0 -0.10547466128E+01 -0.88178538551E+02  0.60248386348E+02  0.10690428059E+03  0.47000000000E+01 0. -1.
        -11    1    6    6    0    0  0.51661842622E+02 -0.14090445047E+02  0.28313699261E+02  0.60573527144E+02  0.00000000000E+00 0.  1.
         12    1    6    6    0    0  0.23283342986E+01  0.42154539263E+02  0.58636842349E+02  0.72254450394E+02  0.00000000000E+00 0. -1.
         -5    1    3    3    0  503 -0.23025986878E+02  0.26804846478E+01  0.82058729170E+01  0.25036122304E+02  0.47000000000E+01 0.  1.
         11    1    4    4    0    0  0.14898399854E+02  0.18476649167E+01 -0.18064351907E+03  0.18126626042E+03  0.00000000000E+00 0. -1.
        -12    1    4    4    0    0 -0.44807843283E+02  0.55586294770E+02 -0.18618397743E+03  0.19940424378E+03  0.00000000000E+00 0.  1.
</event>
<event>
12    1  0.8406581E-002  0.2066666E+03  0.7818608E-02  0.1144260E+00
         21   -1    0    0  501  502  0.00000000000E+00  0.00000000000E+00  0.11108506738E+04  0.11108506738E+04  0.00000000000E+00 0. -1.
         21   -1    0    0  502  503 -0.00000000000E+00 -0.00000000000E+00 -0.69357433097E+02  0.69357433097E+02  0.00000000000E+00 0. -1.
         -6    2    1    2    0  503  0.56907948130E+02 -0.98688178291E+02  0.12675175823E+03  0.24243988114E+03  0.17243322376E+03 0.  0.
        -24    2    3    3    0    0  0.62809505522E+02 -0.10265177991E+03  0.35810001016E+02  0.15109968340E+03  0.84061502771E+02 0.  0.
          6    2    1    2  501    0 -0.56907948130E+02  0.98688178291E+02  0.91474148251E+03  0.93776822580E+03  0.17227708611E+03 0.  0.
         24    2    5    5    0    0 -0.85435968953E+02  0.19143030752E+02  0.60830527975E+03  0.61985862414E+03  0.80769054244E+02 0.  0.
          5    1    5    5  501    0  0.28528020823E+02  0.79545147540E+02  0.30643620275E+03  0.31790960166E+03  0.47000000000E+01 0. -1.
        -13    1    6    6    0    0  0.14943961857E+02  0.10640884269E+02  0.99228366457E+02  0.10090995552E+03  0.00000000000E+00 0.  1.
         14    1    6    6    0    0 -0.10037993081E+03  0.85021464829E+01  0.50907691330E+03  0.51894866861E+03  0.00000000000E+00 0. -1.
         -5    1    3    3    0  503 -0.59015573913E+01  0.39636016155E+01  0.90941757216E+02  0.91340197739E+02  0.47000000000E+01 0.  1.
         13    1    4    4    0    0  0.84551360722E+01 -0.86968854308E+02  0.71189882705E+01  0.87668414721E+02  0.00000000000E+00 0. -1.
        -14    1    4    4    0    0  0.54354369449E+02 -0.15682925599E+02  0.28691012745E+02  0.63431268677E+02  0.00000000000E+00 0.  1.
</event>
<event>
12    1  0.8406581E-002  0.2184375E+03  0.7818608E-02  0.1135085E+00
         21   -1    0    0  503  502  0.00000000000E+00  0.00000000000E+00  0.19448364708E+03  0.19448364708E+03  0.00000000000E+00 0.  1.
         21   -1    0    0  501  503 -0.00000000000E+00 -0.00000000000E+00 -0.44270096293E+03  0.44270096293E+03  0.00000000000E+00 0. -1.
          6    2    1    2  501    0  0.76692915741E+02  0.11108391765E+03 -0.33690526022E+03  0.40142948150E+03  0.17151977777E+03 0.  0.
         24    2    3    3    0    0  0.71162692222E+02  0.11191585889E+03 -0.35129005065E+03  0.38529604746E+03  0.86365828132E+02 0.  0.
         -6    2    1    2    0  502 -0.76692915741E+02 -0.11108391765E+03  0.88687944375E+02  0.23575512851E+03  0.17173668524E+03 0.  0.
        -24    2    5    5    0    0  0.69559574758E+01 -0.50565598787E+02  0.16239631623E+02  0.10953924627E+03  0.95550278461E+02 0.  0.
          5    1    3    3  501    0  0.55302235190E+01 -0.83194124329E+00  0.14384790423E+02  0.16133434040E+02  0.47000000000E+01 0. -1.
        -13    1    4    4    0    0  0.58388628172E+02  0.54902011088E+02 -0.10456438795E+03  0.13174662785E+03  0.00000000000E+00 0.  1.
         14    1    4    4    0    0  0.12774064050E+02  0.57013847806E+02 -0.24672566270E+03  0.25354941961E+03  0.00000000000E+00 0. -1.
         -5    1    5    5    0  502 -0.83648873217E+02 -0.60518318864E+02  0.72448312751E+02  0.12621588224E+03  0.47000000000E+01 0.  1.
         13    1    6    6    0    0  0.19861928843E+02 -0.71016234648E+02  0.32304441373E+02  0.80507010461E+02  0.00000000000E+00 0. -1.
        -14    1    6    6    0    0 -0.12905971367E+02  0.20450635861E+02 -0.16064809749E+02  0.29032235813E+02  0.00000000000E+00 0.  1.
</event>
<event>
12    1  0.8406581E-002  0.1874565E+03  0.7818608E-02  0.1161477E+00
         21   -1    0    0  503  502  0.00000000000E+00  0.00000000000E+00  0.17721720116E+03  0.17721720116E+03  0.00000000000E+00 0.  1.
         21   -1    0    0  501  503 -0.00000000000E+00 -0.00000000000E+00 -0.38404922534E+03  0.38404922534E+03  0.00000000000E+00 0.  1.
          6    2    1    2  501    0  0.72295441781E+02 -0.10992973533E+02 -0.30068554831E+03  0.35433282898E+03  0.17260497780E+03 0.  0.
         24    2    3    3    0    0 -0.21315577008E+02  0.24709826354E+02 -0.19793869748E+03  0.21074759954E+03  0.64574711834E+02 0.  0.
         -6    2    1    2    0  502 -0.72295441781E+02  0.10992973533E+02  0.93853524131E+02  0.20693359752E+03  0.16930904708E+03 0.  0.
        -24    2    5    5    0    0 -0.46047496527E+02 -0.29335874295E+02 -0.70385285958E+01  0.95055686830E+02  0.77492433546E+02 0.  0.
          5    1    3    3  501    0  0.93611018789E+02 -0.35702799887E+02 -0.10274685083E+03  0.14358522944E+03  0.47000000000E+01 0. -1.
        -11    1    4    4    0    0  0.23087403629E+02  0.12560700499E+02 -0.75069137754E+02  0.79537254456E+02  0.00000000000E+00 0.  1.
         12    1    4    4    0    0 -0.44402980638E+02  0.12149125855E+02 -0.12286955973E+03  0.13121034508E+03  0.00000000000E+00 0. -1.
         -5    1    5    5    0  502 -0.26247945254E+02  0.40328847827E+02  0.10089205273E+03  0.11187791069E+03  0.47000000000E+01 0.  1.
         13    1    6    6    0    0 -0.40082570083E+01  0.12040133281E+02 -0.29362438280E+02  0.31987243011E+02  0.00000000000E+00 0. -1.
        -14    1    6    6    0    0 -0.42039239519E+02 -0.41376007576E+02  0.22323909684E+02  0.63068443820E+02  0.00000000000E+00 0.  1.
</event>
<event>
12    1  0.8406581E-002  0.1812938E+03  0.7818608E-02  0.1166607E+00
         21   -1    0    0  503  502  0.00000000000E+00  0.00000000000E+00  0.53670220058E+03  0.53670220058E+03  0.00000000000E+00 0.  1.
         21   -1    0    0  501  503 -0.00000000000E+00 -0.00000000000E+00 -0.13760406988E+03  0.13760406988E+03  0.00000000000E+00 0.  1.
          6    2    1    2  501    0 -0.97799863810E+01  0.54556439806E+02 -0.51783973444E+02  0.18834113296E+03  0.17239126776E+03 0.  0.
         24    2    3    3    0    0 -0.24862853886E+02  0.70674128958E+02  0.20815597104E+02  0.11231442423E+03  0.81044720992E+02 0.  0.
         -6    2    1    2    0  502  0.97799863810E+01 -0.54556439806E+02  0.45088210415E+03  0.48596513751E+03  0.17261341134E+03 0.  0.
        -24    2    5    5    0    0  0.33755650006E+02 -0.33914805786E+02  0.10876582197E+03  0.14235700310E+03  0.78395499513E+02 0.  0.
          5    1    3    3  501    0  0.15082867505E+02 -0.16117689152E+02 -0.72599570548E+02  0.76026708725E+02  0.47000000000E+01 0. -1.
        -13    1    4    4    0    0  0.73277336001E+01  0.42692555034E+02 -0.24759846759E+02  0.49893886866E+02  0.00000000000E+00 0.  1.
         14    1    4    4    0    0 -0.32190587486E+02  0.27981573923E+02  0.45575443862E+02  0.62420537367E+02  0.00000000000E+00 0. -1.
         -5    1    5    5    0  502 -0.23975663625E+02 -0.20641634020E+02  0.34211628217E+03  0.34360813440E+03  0.47000000000E+01 0.  1.
         13    1    6    6    0    0 -0.24741338134E+02 -0.17853447481E+01  0.24523391455E+02  0.34881485017E+02  0.00000000000E+00 0. -1.
        -14    1    6    6    0    0  0.58496988140E+02 -0.32129461038E+02  0.84242430519E+02  0.10747551809E+03  0.00000000000E+00 0.  1.
</event>
<event>
12    1  0.8406581E-002  0.2165195E+03  0.7818608E-02  0.1136759E+00
         21   -1    0    0  501  502  0.00000000000E+00  0.00000000000E+00  0.48358572099E+03  0.48358572099E+03  0.00000000000E+00 0.  1.
         21   -1    0    0  502  503 -0.00000000000E+00 -0.00000000000E+00 -0.18361292928E+03  0.18361292928E+03  0.00000000000E+00 0.  1.
         -6    2    1    2    0  503 -0.10867232972E+03  0.72996628387E+02 -0.79750499247E+02  0.23073979124E+03  0.17246021608E+03 0.  0.
        -24    2    3    3    0    0 -0.43979934666E+02  0.57765460733E+02 -0.11719035492E+03  0.15431383205E+03  0.69340438207E+02 0.  0.
          6    2    1    2  501    0  0.10867232972E+03 -0.72996628387E+02  0.37972329096E+03  0.43645885903E+03  0.17078751396E+03 0.  0.
         24    2    5    5    0    0  0.13587978926E+03 -0.42497067984E+02  0.23960957635E+03  0.29043005344E+03  0.81655060759E+02 0.  0.
          5    1    5    5  501    0 -0.27207459539E+02 -0.30499560404E+02  0.14011371461E+03  0.14602880559E+03  0.47000000000E+01 0. -1.
        -13    1    6    6    0    0  0.74622876839E+02 -0.43030003618E+02  0.19924366725E+03  0.21706725662E+03  0.00000000000E+00 0.  1.
         14    1    6    6    0    0  0.61256912417E+02  0.53293563462E+00  0.40365909099E+02  0.73362796815E+02  0.00000000000E+00 0. -1.
         -5    1    3    3    0  503 -0.64692395051E+02  0.15231167655E+02  0.37439855670E+02  0.76425959190E+02  0.47000000000E+01 0.  1.
         11    1    4    4    0    0 -0.13983281821E+02  0.67283539665E+02 -0.75734033088E+02  0.10226558878E+03  0.00000000000E+00 0. -1.
        -12    1    4    4    0    0 -0.29996652845E+02 -0.95180789326E+01 -0.41456321829E+02  0.52048243275E+02  0.00000000000E+00 0.  1.
</event>
<event>
12    1  0.8406581E-002  0.1759206E+03  0.7818608E-02  0.1171912E+00
         21   -1    0    0  503  502  0.00000000000E+00  0.00000000000E+00  0.42138914418E+03  0.42138914418E+03  0.00000000000E+00 0.  1.
         21   -1    0    0  501  503 -0.00000000000E+00 -0.00000000000E+00 -0.12330551744E+03  0.12330551744E+03  0.00000000000E+00 0.  1.
          6    2    1    2  501    0  0.18410155003E+02  0.29311466101E+02 -0.24338700591E+02  0.17759624816E+03  0.17248176472E+03 0.  0.
         24    2    3    3    0    0  0.47216923828E+02  0.63685847701E+02  0.19296107505E+02  0.11484663049E+03  0.80821307069E+02 0.  0.
         -6    2    1    2    0  502 -0.18410155003E+02 -0.29311466101E+02  0.32242232733E+03  0.36709841346E+03  0.17206682466E+03 0.  0.
        -24    2    5    5    0    0  0.50860119104E+02  0.28365436248E+01  0.21709727717E+03  0.23691653455E+03  0.80021365227E+02 0.  0.
          5    1    3    3  501    0 -0.28806768825E+02 -0.34374381600E+02 -0.43634808096E+02  0.62749617673E+02  0.47000000000E+01 0. -1.
        -13    1    4    4    0    0  0.33002369217E+02  0.46010204088E+01 -0.23277632354E+02  0.40646942453E+02  0.00000000000E+00 0.  1.
         14    1    4    4    0    0  0.14214554611E+02  0.59084827292E+02  0.42573739859E+02  0.74199688035E+02  0.00000000000E+00 0. -1.
         -5    1    5    5    0  502 -0.69270274107E+02 -0.32148009726E+02  0.10532505016E+03  0.13018187890E+03  0.47000000000E+01 0.  1.
         13    1    6    6    0    0  0.63028955340E+02 -0.17337442089E+02  0.11639955067E+03  0.13349940639E+03  0.00000000000E+00 0. -1.
        -14    1    6    6    0    0 -0.12168836236E+02  0.20173985714E+02  0.10069772650E+03  0.10341712816E+03  0.00000000000E+00 0.  1.
</event>
<event>
12    1  0.8406581E-002  0.2564644E+03  0.7818608E-02  0.1109299E+00
         21   -1    0    0  503  502  0.00000000000E+00  0.00000000000E+00  0.23980284533E+03  0.23980284533E+03  0.00000000000E+00 0. -1.
         21   -1    0    0  501  503 -0.00000000000E+00 -0.00000000000E+00 -0.43210567958E+03  0.43210567958E+03  0.00000000000E+00 0.  1.
          6    2    1    2  501    0 -0.11927431790E+03  0.14786914530E+03 -0.29923437347E+03  0.39404465623E+03  0.17215787462E+03 0.  0.
         24    2    3    3    0    0 -0.15051971896E+03  0.10857589010E+03 -0.26470026013E+03  0.33293058275E+03  0.79571574787E+02 0.  0.
         -6    2    1    2    0  502  0.11927431790E+03 -0.14786914530E+03  0.10693153922E+03  0.27786386868E+03  0.17228560125E+03 0.  0.
        -24    2    5    5    0    0  0.14580726902E+03 -0.15604472100E+03  0.10176408450E+03  0.24923468565E+03  0.78436502874E+02 0.  0.
          5    1    3    3  501    0  0.31245401065E+02  0.39293255205E+02 -0.34534113348E+02  0.61114073478E+02  0.47000000000E+01 0. -1.
        -11    1    4    4    0    0 -0.72334184330E+02  0.85705747531E+02 -0.10489409770E+03  0.15355937326E+03  0.00000000000E+00 0.  1.
         12    1    4    4    0    0 -0.78185534632E+02  0.22870142564E+02 -0.15980616242E+03  0.17937120949E+03  0.00000000000E+00 0. -1.
         -5    1    5    5    0  502 -0.26532951119E+02  0.81755757033E+01  0.51674547169E+01  0.28629183038E+02  0.47000000000E+01 0.  1.
         11    1    6    6    0    0  0.19335378134E+02 -0.61395301186E+02  0.63321443146E+01  0.64678712935E+02  0.00000000000E+00 0. -1.
        -12    1    6    6    0    0  0.12647189088E+03 -0.94649419818E+02  0.95431940186E+02  0.18455597271E+03  0.00000000000E+00 0.  1.
</event>
<event>
12    1  0.8406581E-002  0.1812573E+03  0.7818608E-02  0.1167549E+00
         21   -1    0    0  503  502  0.00000000000E+00  0.00000000000E+00  0.34885362570E+03  0.34885362570E+03  0.00000000000E+00 0.  1.
         21   -1    0    0  501  503 -0.00000000000E+00 -0.00000000000E+00 -0.10279213322E+03  0.10279213322E+03  0.00000000000E+00 0. -1.
          6    2    1    2  501    0  0.52435865407E+02 -0.89916000941E+01  0.49117580204E+02  0.18398717027E+03  0.16914009958E+03 0.  0.
         24    2    3    3    0    0  0.55588353782E+02 -0.27026268496E+02  0.92185945715E+02  0.13695354873E+03  0.80234292275E+02 0.  0.
         -6    2    1    2    0  502 -0.52435865407E+02  0.89916000941E+01  0.19694391228E+03  0.26765858866E+03  0.17327390641E+03 0.  0.
        -24    2    5    5    0    0 -0.66656057255E+02  0.13449806950E+01  0.43079338584E+02  0.11287783506E+03  0.80254204213E+02 0.  0.
          5    1    3    3  501    0 -0.31524883743E+01  0.18034668402E+02 -0.43068365511E+02  0.47033621539E+02  0.47000000000E+01 0. -1.
        -13    1    4    4    0    0  0.27963718938E-01 -0.43192403421E+02  0.43944304631E+02  0.61617257362E+02  0.00000000000E+00 0.  1.
         14    1    4    4    0    0  0.55560390063E+02  0.16166134925E+02  0.48241641084E+02  0.75336291366E+02  0.00000000000E+00 0. -1.
         -5    1    5    5    0  502  0.14220191848E+02  0.76466193991E+01  0.15386457369E+03  0.15478075359E+03  0.47000000000E+01 0.  1.
         13    1    6    6    0    0  0.40675310586E+01 -0.27228791475E+02  0.65253638628E+01  0.28293678935E+02  0.00000000000E+00 0. -1.
        -14    1    6    6    0    0 -0.70723588314E+02  0.28573772170E+02  0.36553974722E+02  0.84584156128E+02  0.00000000000E+00 0.  1.
</event>
<event>
12    1  0.8406581E-002  0.2021777E+03  0.7818608E-02  0.1147996E+00
         21   -1    0    0  501  502  0.00000000000E+00  0.00000000000E+00  0.50563631631E+03  0.50563631631E+03  0.00000000000E+00 0. -1.
         21   -1    0    0  502  503 -0.00000000000E+00 -0.00000000000E+00 -0.86418631507E+02  0.86418631507E+02  0.00000000000E+00 0.  1.
         -6    2    1    2    0  503 -0.25736915305E+02 -0.10453476011E+03  0.13316141047E+03  0.24176360529E+03  0.17066861084E+03 0.  0.
        -24    2    3    3    0    0  0.20468736559E+02 -0.11912969652E+03  0.49637095226E+02  0.14508695004E+03  0.63051788887E+02 0.  0.
          6    2    1    2  501    0  0.25736915305E+02  0.10453476011E+03  0.28605627434E+03  0.35029134253E+03  0.17113131708E+03 0.  0.
         24    2    5    5    0    0  0.22249317068E+01 -0.97969507396E-01  0.61420993689E+02  0.10132564049E+03  0.80556731790E+02 0.  0.
          5    1    5    5  501    0  0.23511983599E+02  0.10463272961E+03  0.22463528065E+03  0.24896570204E+03  0.47000000000E+01 0. -1.
        -11    1    6    6    0    0  0.38414466999E+02  0.11376957939E+02  0.44145134277E+02  0.59614589884E+02  0.00000000000E+00 0.  1.
         12    1    6    6    0    0 -0.36189535292E+02 -0.11474927447E+02  0.17275859412E+02  0.41711050610E+02  0.00000000000E+00 0. -1.
         -5    1    3    3    0  503 -0.46205651864E+02  0.14594936410E+02  0.83524315244E+02  0.96676655248E+02  0.47000000000E+01 0.  1.
         11    1    4    4    0    0 -0.53941589628E+01 -0.41552160213E+02  0.47422774112E+02  0.63281896888E+02  0.00000000000E+00 0. -1.
        -12    1    4    4    0    0  0.25862895521E+02 -0.77577536303E+02  0.22143211142E+01  0.81805053154E+02  0.00000000000E+00 0.  1.
</event>
<event>
12    1  0.8406581E-002  0.2057987E+03  0.7818608E-02  0.1145019E+00
         21   -1    0    0  503  502  0.00000000000E+00  0.00000000000E+00  0.50662979848E+02  0.50662979848E+02  0.00000000000E+00 0. -1.
         21   -1    0    0  501  503 -0.00000000000E+00 -0.00000000000E+00 -0.93770132986E+03  0.93770132986E+03  0.00000000000E+00 0. -1.
          6    2    1    2  501    0 -0.69011827061E+02  0.89185841906E+02 -0.60798101687E+03  0.64186759264E+03  0.17215209246E+03 0.  0.
         24    2    3    3    0    0 -0.72261497668E+01 -0.17328602850E+02 -0.24051622965E+03  0.25429146243E+03  0.80396476441E+02 0.  0.
         -6    2    1    2    0  502  0.69011827061E+02 -0.89185841906E+02 -0.27905733314E+03  0.34649671706E+03  0.17166896367E+03 0.  0.
        -24    2    5    5    0    0  0.23409582769E+02 -0.11975290048E+03 -0.15927291945E+03  0.21464716068E+03  0.76267784691E+02 0.  0.
          5    1    3    3  501    0 -0.61785677294E+02  0.10651444476E+03 -0.36746478722E+03  0.38757613021E+03  0.47000000000E+01 0. -1.
        -13    1    4    4    0    0 -0.15358450780E+02 -0.17241436404E+02 -0.24425253466E+03  0.24534149634E+03  0.00000000000E+00 0.  1.
         14    1    4    4    0    0  0.81323010137E+01 -0.87166446127E-01  0.37363050154E+01  0.89499660857E+01  0.00000000000E+00 0. -1.
         -5    1    5    5    0  502  0.45602244292E+02  0.30567058573E+02 -0.11978441369E+03  0.13184955638E+03  0.47000000000E+01 0.  1.
         13    1    6    6    0    0 -0.78598790054E+01 -0.10740339702E+03 -0.13725240462E+03  0.17445770250E+03  0.00000000000E+00 0. -1.
        -14    1    6    6    0    0  0.31269461774E+02 -0.12349503455E+02 -0.22020514829E+02  0.40189458177E+02  0.00000000000E+00 0.  1.
</event>
<event>
12    1  0.8406581E-002  0.1828907E+03  0.7818608E-02  0.1166474E+00
         21   -1    0    0  501  502  0.00000000000E+00  0.00000000000E+00  0.15136856901E+03  0.15136856901E+03  0.00000000000E+00 0. -1.
         21   -1    0    0  502  503 -0.00000000000E+00 -0.00000000000E+00 -0.36894734742E+03  0.36894734742E+03  0.00000000000E+00 0.  1.
         -6    2    1    2    0  503 -0.37109033016E+02  0.12589961484E+02 -0.27642014301E+03  0.32819271139E+03  0.17253049842E+03 0.  0.
        -24    2    3    3    0    0  0.10280254094E+02  0.53399592651E+02 -0.23166963112E+03  0.25114812142E+03  0.80295459335E+02 0.  0.
          6    2    1    2  501    0  0.37109033016E+02 -0.12589961484E+02  0.58841364610E+02  0.19212320504E+03  0.17864331016E+03 0.  0.
         24    2    5    5    0    0 -0.89865338178E+01  0.56542418470E+02  0.18330485071E+02  0.99563448123E+02  0.79366684715E+02 0.  0.
          5    1    5    5  501    0  0.46095566834E+02 -0.69132379953E+02  0.40510879539E+02  0.92559756919E+02  0.47000000000E+01 0. -1.
        -13    1    6    6    0    0  0.49958706884E+01 -0.12063824601E+02 -0.16759780757E+02  0.21245819329E+02  0.00000000000E+00 0.  1.
         14    1    6    6    0    0 -0.13982404506E+02  0.68606243071E+02  0.35090265828E+02  0.78317628794E+02  0.00000000000E+00 0. -1.
         -5    1    3    3    0  503 -0.47389287110E+02 -0.40809631168E+02 -0.44750511890E+02  0.77044589968E+02  0.47000000000E+01 0.  1.
         11    1    4    4    0    0  0.35338617212E+02  0.23293049579E+01 -0.53861267575E+02  0.64461458817E+02  0.00000000000E+00 0. -1.
        -12    1    4    4    0    0 -0.25058363118E+02  0.51070287693E+02 -0.17780836355E+03  0.18668666260E+03  0.00000000000E+00 0.  1.
</event>
<event>
12    1  0.8406581E-002  0.1736972E+03  0.7818608E-02  0.1174073E+00
         21   -1    0    0  503  502  0.00000000000E+00  0.00000000000E+00  0.69202260464E+02  0.69202260464E+02  0.00000000000E+00 0.  1.
         21   -1    0    0  501  503 -0.00000000000E+00 -0.00000000000E+00 -0.75475835876E+03  0.75475835876E+03  0.00000000000E+00 0.  1.
          6    2    1    2  501    0  0.23343421704E+02 -0.28511606774E+01 -0.61057273203E+03  0.63476963765E+03  0.17198949772E+03 0.  0.
         24    2    3    3    0    0 -0.41543941552E+02 -0.34579698029E+02 -0.40399058100E+03  0.41587389736E+03  0.82589674730E+02 0.  0.
         -6    2    1    2    0  502 -0.23343421704E+02  0.28511606774E+01 -0.74983366261E+02  0.18919098157E+03  0.17209787284E+03 0.  0.
        -24    2    5    5    0    0  0.31331993050E+02 -0.35977532222E+02 -0.77691792944E+02  0.12191175784E+03  0.80934451226E+02 0.  0.
          5    1    3    3  501    0  0.64887363255E+02  0.31728537352E+02 -0.20658215103E+03  0.21889574029E+03  0.47000000000E+01 0. -1.
        -13    1    4    4    0    0  0.51401494159E+01 -0.11850348542E+02 -0.29357493041E+03  0.29385896559E+03  0.00000000000E+00 0.  1.
         14    1    4    4    0    0 -0.46684090968E+02 -0.22729349488E+02 -0.11041565059E+03  0.12201493177E+03  0.00000000000E+00 0. -1.
         -5    1    5    5    0  502 -0.54675414754E+02  0.38828692900E+02  0.27084266832E+01  0.67279223731E+02  0.47000000000E+01 0.  1.
         13    1    6    6    0    0  0.50850410599E+00  0.15122375555E+02 -0.56647389107E+02  0.58633365173E+02  0.00000000000E+00 0. -1.
        -14    1    6    6    0    0  0.30823488944E+02 -0.51099907777E+02 -0.21044403836E+02  0.63278392666E+02  0.00000000000E+00 0.  1.
</event>
<event>
12    1  0.8406581E-002  0.2374120E+03  0.7818608E-02  0.1122180E+00
         21   -1    0    0  501  502  0.00000000000E+00  0.00000000000E+00  0.32737140055E+03  0.32737140055E+03  0.00000000000E+00 0.  1.
         21   -1    0    0  502  503 -0.00000000000E+00 -0.00000000000E+00 -0.18989853968E+03  0.18989853968E+03  0.00000000000E+00 0.  1.
         -6    2    1    2    0  503  0.70265470836E+02 -0.14579167030E+03 -0.15711103020E+02  0.23793127196E+03  0.17370090356E+03 0.  0.
        -24    2    3    3    0    0  0.57676801171E+02 -0.12066848429E+03  0.54047816912E+02  0.16257846186E+03  0.74987287284E+02 0.  0.
          6    2    1    2  501    0 -0.70265470836E+02  0.14579167030E+03  0.15318396389E+03  0.27933866827E+03  0.16844084207E+03 0.  0.
         24    2    5    5    0    0 -0.10975330219E+03  0.13442667931E+03  0.11396876412E+03  0.22234416207E+03  0.79572154402E+02 0.  0.
          5    1    5    5  501    0  0.39487831352E+02  0.11364990986E+02  0.39215199767E+02  0.56994506207E+02  0.47000000000E+01 0. -1.
        -13    1    6    6    0    0 -0.23887640799E+02  0.89500800877E+02  0.42419132245E+02  0.10188422607E+03  0.00000000000E+00 0.  1.
         14    1    6    6    0    0 -0.85865661389E+02  0.44925878436E+02  0.71549631880E+02  0.12045993600E+03  0.00000000000E+00 0. -1.
         -5    1    3    3    0  503  0.12588669665E+02 -0.25123186010E+02 -0.69758919932E+02  0.75352810096E+02  0.47000000000E+01 0.  1.
         11    1    4    4    0    0 -0.12279402504E+02 -0.28323261480E+02  0.32344283558E+02  0.44711783073E+02  0.00000000000E+00 0. -1.
        -12    1    4    4    0    0  0.69956203675E+02 -0.92345222809E+02  0.21703533354E+02  0.11786667879E+03  0.00000000000E+00 0.  1.
</event>
<event>
12    1  0.8406581E-002  0.2329479E+03  0.7818608E-02  0.1125348E+00
         21   -1    0    0  501  502  0.00000000000E+00  0.00000000000E+00  0.19731510396E+03  0.19731510396E+03  0.00000000000E+00 0. -1.
         21   -1    0    0  502  503 -0.00000000000E+00 -0.00000000000E+00 -0.29050945284E+03  0.29050945284E+03  0.00000000000E+00 0. -1.
         -6    2    1    2    0  503  0.27734300139E+02 -0.14808881968E+03 -0.11120046925E+03  0.25418178326E+03  0.17188177525E+03 0.  0.
        -24    2    3    3    0    0  0.30945881695E+02 -0.15394976607E+02 -0.20143742257E+02  0.93149526321E+02  0.84121406331E+02 0.  0.
          6    2    1    2  501    0 -0.27734300139E+02  0.14808881968E+03  0.18006120371E+02  0.23364277354E+03  0.17766607818E+03 0.  0.
         24    2    5    5    0    0 -0.73754239894E+02  0.44018549052E+02 -0.85266498265E+01  0.11670461049E+03  0.78548977004E+02 0.  0.
          5    1    5    5  501    0  0.46019939755E+02  0.10407027063E+03  0.26532770198E+02  0.11693816305E+03  0.47000000000E+01 0. -1.
        -11    1    6    6    0    0 -0.45960575785E+01  0.46936776534E+02 -0.42684892913E+01  0.47354036126E+02  0.00000000000E+00 0.  1.
         12    1    6    6    0    0 -0.69158182315E+02 -0.29182274821E+01 -0.42581605353E+01  0.69350574359E+02  0.00000000000E+00 0. -1.
         -5    1    3    3    0  503 -0.32115815560E+01 -0.13269384307E+03 -0.91056726995E+02  0.16103225694E+03  0.47000000000E+01 0.  1.
         11    1    4    4    0    0  0.24025583550E+02 -0.50074023016E+02 -0.13703263387E+02  0.57205033637E+02  0.00000000000E+00 0. -1.
        -12    1    4    4    0    0  0.69202981446E+01  0.34679046409E+02 -0.64404788699E+01  0.35944492684E+02  0.00000000000E+00 0.  1.
</event>
<event>
12    1  0.8406581E-002  0.1890323E+03  0.7818608E-02  0.1159575E+00
         21   -1    0    0  503  502  0.00000000000E+00  0.00000000000E+00  0.61177947968E+02  0.61177947968E+02  0.00000000000E+00 0.  1.
         21   -1    0    0  501  503 -0.00000000000E+00 -0.00000000000E+00 -0.84785872028E+03  0.84785872028E+03  0.00000000000E+00 0.  1.
          6    2    1    2  501    0  0.24185588929E+02  0.72797976074E+02 -0.64765389822E+03  0.67438444351E+03  0.17162260267E+03 0.  0.
         24    2    3    3    0    0  0.73028847858E+02  0.55537010696E+02 -0.55586454177E+03  0.56888097995E+03  0.78883511379E+02 0.  0.
         -6    2    1    2    0  502 -0.24185588929E+02 -0.72797976074E+02 -0.13902687410E+03  0.23465222474E+03  0.17276778293E+03 0.  0.
        -24    2    5    5    0    0 -0.14398352801E+02 -0.21679606963E+02 -0.15881491745E+03  0.17877258345E+03  0.77846905316E+02 0.  0.
          5    1    3    3  501    0 -0.48843258929E+02  0.17260965379E+02 -0.91789356442E+02  0.10550346357E+03  0.47000000000E+01 0. -1.
        -11    1    4    4    0    0  0.75635927366E+02  0.44234972097E+02 -0.29448239281E+03  0.30724160842E+03  0.00000000000E+00 0.  1.
         12    1    4    4    0    0 -0.26070795076E+01  0.11302038599E+02 -0.26138214896E+03  0.26163937153E+03  0.00000000000E+00 0. -1.
         -5    1    5    5    0  502 -0.97872361286E+01 -0.51118369111E+02  0.19788043344E+02  0.55879641293E+02  0.47000000000E+01 0.  1.
         13    1    6    6    0    0 -0.61518406348E+01 -0.48356077376E+02 -0.12910556798E+03  0.13800146031E+03  0.00000000000E+00 0. -1.
        -14    1    6    6    0    0 -0.82465121660E+01  0.26676470413E+02 -0.29709349461E+02  0.40771123138E+02  0.00000000000E+00 0.  1.
</event>
<event>
12    1  0.8406581E-002  0.2690309E+03  0.7818608E-02  0.1101860E+00
         21   -1    0    0  503  502  0.00000000000E+00  0.00000000000E+00  0.47921517887E+03  0.47921517887E+03  0.00000000000E+00 0. -1.
         21   -1    0    0  501  503 -0.00000000000E+00 -0.00000000000E+00 -0.18222968778E+03  0.18222968778E+03  0.00000000000E+00 0. -1.
          6    2    1    2  501    0 -0.28402515818E+02  0.20406856116E+03  0.28549708146E+03  0.39216881320E+03  0.17273422928E+03 0.  0.
         24    2    3    3    0    0 -0.77465234294E+02  0.99548532320E+02  0.19139217748E+03  0.24314059531E+03  0.81090139207E+02 0.  0.
         -6    2    1    2    0  502  0.28402515818E+02 -0.20406856116E+03  0.11488409626E+02  0.26927605346E+03  0.17299401391E+03 0.  0.
        -24    2    5    5    0    0  0.84356053892E+01 -0.18799912278E+03 -0.44530747245E+02  0.20749304367E+03  0.75203365053E+02 0.  0.
          5    1    3    3  501    0  0.49062718476E+02  0.10452002884E+03  0.94104903979E+02  0.14902821788E+03  0.47000000000E+01 0. -1.
        -11    1    4    4    0    0 -0.45377610025E+02  0.12132489627E+02  0.26924284767E+02  0.54140944823E+02  0.00000000000E+00 0.  1.
         12    1    4    4    0    0 -0.32087624269E+02  0.87416042693E+02  0.16446789272E+03  0.18899965049E+03  0.00000000000E+00 0. -1.
         -5    1    5    5    0  502  0.19966910429E+02 -0.16069438377E+02  0.56019156871E+02  0.61783009787E+02  0.47000000000E+01 0.  1.
         13    1    6    6    0    0  0.11554623936E+02 -0.82386013943E+02  0.17440831313E+02  0.85000866022E+02  0.00000000000E+00 0. -1.
        -14    1    6    6    0    0 -0.31190185471E+01 -0.10561310884E+03 -0.61971578558E+02  0.12249217765E+03  0.00000000000E+00 0.  1.
</event>
<event>
12    1  0.8406581E-002  0.2676610E+03  0.7818608E-02  0.1102693E+00
         21   -1    0    0  501  502  0.00000000000E+00  0.00000000000E+00  0.73850740097E+02  0.73850740097E+02  0.00000000000E+00 0. -1.
         21   -1    0    0  502  503 -0.00000000000E+00 -0.00000000000E+00 -0.13470899634E+04  0.13470899634E+04  0.00000000000E+00 0.  1.
         -6    2    1    2    0  503 -0.25097459953E+02  0.20376163720E+03 -0.25953091405E+03  0.37249091911E+03  0.17101023999E+03 0.  0.
        -24    2    3    3    0    0 -0.61631758467E+02  0.82210584182E+02 -0.81836705081E+02  0.15407220343E+03  0.80522939387E+02 0.  0.
          6    2    1    2  501    0  0.25097459953E+02 -0.20376163720E+03 -0.10137083093E+04  0.10484497844E+04  0.17173737755E+03 0.  0.
         24    2    5    5    0    0  0.33794366695E+02 -0.20930754014E+03 -0.67895478684E+03  0.71350440975E+03  0.56189274553E+02 0.  0.
          5    1    5    5  501    0 -0.86969067422E+01  0.55459029419E+01 -0.33475352243E+03  0.33494537465E+03  0.47000000000E+01 0. -1.
        -11    1    6    6    0    0  0.17233894953E+02 -0.12254726883E+03 -0.48231199289E+03  0.49793543629E+03  0.00000000000E+00 0.  1.
         12    1    6    6    0    0  0.16560471742E+02 -0.86760271317E+02 -0.19664279396E+03  0.21556897346E+03  0.00000000000E+00 0. -1.
         -5    1    3    3    0  503  0.36534298514E+02  0.12155105302E+03 -0.17769420897E+03  0.21841871568E+03  0.47000000000E+01 0.  1.
         13    1    4    4    0    0 -0.14952200023E+02  0.80768672183E+02 -0.39961511248E+02  0.91345876059E+02  0.00000000000E+00 0. -1.
        -14    1    4    4    0    0 -0.46679558444E+02  0.14419119987E+01 -0.41875193833E+02  0.62726327370E+02  0.00000000000E+00 0.  1.
</event>
<event>
12    1  0.8406581E-002  0.2121503E+03  0.7818608E-02  0.1140238E+00
         21   -1    0    0  503  502  0.00000000000E+00  0.00000000000E+00  0.38550935220E+03  0.38550935220E+03  0.00000000000E+00 0. -1.
         21   -1    0    0  501  503 -0.00000000000E+00 -0.00000000000E+00 -0.13873936315E+03  0.13873936315E+03  0.00000000000E+00 0.  1.
          6    2    1    2  501    0 -0.10450083697E+03  0.65123395874E+02  0.16192976385E+02  0.21092221863E+03  0.17048310243E+03 0.  0.
         24    2    3    3    0    0 -0.43525084268E+02 -0.21029612214E+02 -0.25000337159E+02  0.97523090328E+02  0.80926254940E+02 0.  0.
         -6    2    1    2    0  502  0.10450083697E+03 -0.65123395874E+02  0.23057701266E+03  0.31332649671E+03  0.17276068175E+03 0.  0.
        -24    2    5    5    0    0  0.10210833289E+03 -0.10262135561E+03  0.14766725752E+03  0.22217860284E+03  0.81243204913E+02 0.  0.
          5    1    3    3  501    0 -0.60975752700E+02  0.86153008088E+02  0.41193313544E+02  0.11339912831E+03  0.47000000000E+01 0. -1.
        -13    1    4    4    0    0  0.84433675098E+01  0.12107171270E+02 -0.32246737637E+02  0.35464434850E+02  0.00000000000E+00 0.  1.
         14    1    4    4    0    0 -0.51968451778E+02 -0.33136783484E+02  0.72464004771E+01  0.62058655478E+02  0.00000000000E+00 0. -1.
         -5    1    5    5    0  502  0.23925040778E+01  0.37497959737E+02  0.82909755137E+02  0.91147893871E+02  0.47000000000E+01 0.  1.
         11    1    6    6    0    0  0.45461462459E+02 -0.22919015899E+01  0.69019745935E+02  0.82678429537E+02  0.00000000000E+00 0. -1.
        -12    1    6    6    0    0  0.56646870431E+02 -0.10032945402E+03  0.78647511588E+02  0.13950017331E+03  0.00000000000E+00 0.  1.
</event>
<event>
12    1  0.8406581E-002  0.1919057E+03  0.7818608E-02  0.1157203E+00
         21   -1    0    0  503  502  0.00000000000E+00  0.00000000000E+00  0.45346931985E+03  0.45346931985E+03  0.00000000000E+00 0.  1.
         21   -1    0    0  501  503 -0.00000000000E+00 -0.00000000000E+00 -0.16311112644E+03  0.16311112644E+03  0.00000000000E+00 0. -1.
          6    2    1    2  501    0 -0.47834416488E+02  0.68492011328E+02 -0.74773447850E+02  0.20408933418E+03  0.17053474956E+03 0.  0.
         24    2    3    3    0    0 -0.59278426113E+01 -0.14042252639E+02  0.46264532515E+01  0.82046309155E+02  0.80485207331E+02 0.  0.
         -6    2    1    2    0  502  0.47834416488E+02 -0.68492011328E+02  0.36513164126E+03  0.41249111211E+03  0.17276722811E+03 0.  0.
        -24    2    5    5    0    0  0.26591087814E+02 -0.10816504545E+03  0.21105676646E+03  0.25190971315E+03  0.80664626093E+02 0.  0.
          5    1    3    3  501    0 -0.41906573877E+02  0.82534263966E+02 -0.79399901102E+02  0.12204302503E+03  0.47000000000E+01 0. -1.
        -11    1    4    4    0    0  0.15141285783E+02 -0.26608058347E+02 -0.27822129596E+02  0.41368081892E+02  0.00000000000E+00 0.  1.
         12    1    4    4    0    0 -0.21069128394E+02  0.12565805709E+02  0.32448582848E+02  0.40678227263E+02  0.00000000000E+00 0. -1.
         -5    1    5    5    0  502  0.21243328674E+02  0.39673034119E+02  0.15407487479E+03  0.16058139896E+03  0.47000000000E+01 0.  1.
         13    1    6    6    0    0  0.53357593195E+02 -0.49721495372E+02  0.10369089940E+03  0.12677169428E+03  0.00000000000E+00 0. -1.
        -14    1    6    6    0    0 -0.26766505381E+02 -0.58443550075E+02  0.10736586707E+03  0.12513801887E+03  0.00000000000E+00 0.  1.
</event>
<event>
12    1  0.8406581E-002  0.1912151E+03  0.7818608E-02  0.1158062E+00
         21   -1    0    0  503  502  0.00000000000E+00  0.00000000000E+00  0.23770145872E+03  0.23770145872E+03  0.00000000000E+00 0. -1.
         21   -1    0    0  501  503 -0.00000000000E+00 -0.00000000000E+00 -0.32537608903E+03  0.32537608903E+03  0.00000000000E+00 0. -1.
          6    2    1    2  501    0  0.40371885059E+02 -0.65739823375E+02 -0.24956126934E+03  0.31253716774E+03  0.17160140031E+03 0.  0.
         24    2    3    3    0    0 -0.24779740423E+02  0.14629810857E+02 -0.10538161777E+03  0.13501569204E+03  0.79346611978E+02 0.  0.
         -6    2    1    2    0  502 -0.40371885059E+02  0.65739823375E+02  0.16188663903E+03  0.25054038000E+03  0.17496166619E+03 0.  0.
        -24    2    5    5    0    0 -0.49982198049E+02  0.59726599636E+02  0.18824303838E+03  0.22146690820E+03  0.86871532176E+02 0.  0.
          5    1    3    3  501    0  0.65151625482E+02 -0.80369634231E+02 -0.14417965156E+03  0.17752147570E+03  0.47000000000E+01 0. -1.
        -11    1    4    4    0    0 -0.10159212941E+00  0.34702308857E+02 -0.12578134061E+02  0.36911651513E+02  0.00000000000E+00 0.  1.
         12    1    4    4    0    0 -0.24678148294E+02 -0.20072498000E+02 -0.92803483712E+02  0.98104040530E+02  0.00000000000E+00 0. -1.
         -5    1    5    5    0  502  0.96103129908E+01  0.60132237384E+01 -0.26356399356E+02  0.29073471800E+02  0.47000000000E+01 0.  1.
         11    1    6    6    0    0  0.17877130696E+02  0.12623782918E+02  0.92316810714E+02  0.94875419564E+02  0.00000000000E+00 0. -1.
        -12    1    6    6    0    0 -0.67859328745E+02  0.47102816719E+02  0.95926227669E+02  0.12659148864E+03  0.00000000000E+00 0.  1.
</event>
<event>
12    1  0.8406581E-002  0.2632287E+03  0.7818608E-02  0.1105450E+00
         21   -1    0    0  501  502  0.00000000000E+00  0.00000000000E+00  0.68409089118E+03  0.68409089118E+03  0.00000000000E+00 0.  1.
         21   -1    0    0  502  503 -0.00000000000E+00 -0.00000000000E+00 -0.13282979493E+03  0.13282979493E+03  0.00000000000E+00 0. -1.
         -6    2    1    2    0  503  0.16581729616E+03 -0.11080968549E+03  0.74079379544E+02  0.27195119333E+03  0.16939756486E+03 0.  0.
        -24    2    3    3    0    0  0.16029377211E+03 -0.99617018596E+02  0.11113815027E+03  0.23256556654E+03  0.78213876814E+02 0.  0.
          6    2    1    2  501    0 -0.16581729616E+03  0.11080968549E+03  0.47718171670E+03  0.54496949277E+03  0.17179986961E+03 0.  0.
         24    2    5    5    0    0 -0.12382877527E+03  0.78167658405E+02  0.45937538107E+03  0.48868722730E+03  0.79660008709E+02 0.  0.
          5    1    5    5  501    0 -0.41988520882E+02  0.32642027081E+02  0.17806335625E+02  0.56282265468E+02  0.47000000000E+01 0. -1.
        -13    1    6    6    0    0 -0.65551793461E+02  0.35368808120E+02  0.34812998760E+03  0.35600909888E+03  0.00000000000E+00 0.  1.
         14    1    6    6    0    0 -0.58276981813E+02  0.42798850285E+02  0.11124539347E+03  0.13267812843E+03  0.00000000000E+00 0. -1.
         -5    1    3    3    0  503  0.55235240474E+01 -0.11192666890E+02 -0.37058770725E+02  0.39385626790E+02  0.47000000000E+01 0.  1.
         11    1    4    4    0    0  0.20187886606E+02  0.10501980919E+02  0.40128439458E+00  0.22759688004E+02  0.00000000000E+00 0. -1.
        -12    1    4    4    0    0  0.14010588550E+03 -0.11011899952E+03  0.11073686587E+03  0.20980587854E+03  0.00000000000E+00 0.  1.
</event>
<event>
12    1  0.8406581E-002  0.2249595E+03  0.7818608E-02  0.1130342E+00
         21   -1    0    0  501  502  0.00000000000E+00  0.00000000000E+00  0.37632029109E+02  0.37632029109E+02  0.00000000000E+00 0.  1.
         21   -1    0    0  502  503 -0.00000000000E+00 -0.00000000000E+00 -0.19543824008E+04  0.19543824008E+04  0.00000000000E+00 0.  1.
         -6    2    1    2    0  503 -0.14188953867E+03  0.26064666594E+02 -0.15153561621E+04  0.15318795867E+04  0.17186844385E+03 0.  0.
        -24    2    3    3    0    0 -0.11696946571E+03  0.63861179828E+02 -0.13683507564E+04  0.13779891524E+04  0.93328481324E+02 0.  0.
          6    2    1    2  501    0  0.14188953867E+03 -0.26064666594E+02 -0.40139420953E+03  0.46013484319E+03  0.17261157099E+03 0.  0.
         24    2    5    5    0    0  0.89393447965E+02  0.21808454862E+02 -0.12471467681E+03  0.17444037505E+03  0.80055584399E+02 0.  0.
          5    1    5    5  501    0  0.52496090709E+02 -0.47873121456E+02 -0.27667953272E+03  0.28569446814E+03  0.47000000000E+01 0. -1.
        -13    1    6    6    0    0  0.74746304967E+02  0.81355118629E-01 -0.12780268940E+03  0.14805588182E+03  0.00000000000E+00 0.  1.
         14    1    6    6    0    0  0.14647142998E+02  0.21727099743E+02  0.30880125860E+01  0.26384493229E+02  0.00000000000E+00 0. -1.
         -5    1    3    3    0  503 -0.24920072967E+02 -0.37796513233E+02 -0.14700540572E+03  0.15389043427E+03  0.47000000000E+01 0.  1.
         11    1    4    4    0    0  0.14467038440E+02  0.35991407964E+01 -0.23160018704E+03  0.23207950287E+03  0.00000000000E+00 0. -1.
        -12    1    4    4    0    0 -0.13143650415E+03  0.60262039031E+02 -0.11367505694E+04  0.11459096496E+04  0.00000000000E+00 0.  1.
</event>
<event>
12    1  0.8406581E-002  0.1934016E+03  0.7818608E-02  0.1157642E+00
         21   -1    0    0  501  502  0.00000000000E+00  0.00000000000E+00  0.60428099921E+03  0.60428099921E+03  0.00000000000E+00 0. -1.
         21   -1    0    0  502  503 -0.00000000000E+00 -0.00000000000E+00 -0.73547343853E+02  0.73547343853E+02  0.00000000000E+00 0.  1.
         -6    2    1    2    0  503  0.84015127519E+02 -0.65597461447E+01  0.11920164925E+03  0.22718542861E+03  0.17407645984E+03 0.  0.
        -24    2    3    3    0    0  0.67015379373E+02  0.56276903663E+02  0.62625884480E+02  0.14081215060E+03  0.90818001472E+02 0.  0.
          6    2    1    2  501    0 -0.84015127519E+02  0.65597461447E+01  0.41153200611E+03  0.45064291445E+03  0.16315291100E+03 0.  0.
         24    2    5    5    0    0 -0.11202568074E+03 -0.16745813073E+02  0.25772291645E+03  0.29250668759E+03  0.79428491255E+02 0.  0.
          5    1    5    5  501    0  0.28010553216E+02  0.23305559217E+02  0.15380908966E+03  0.15813622686E+03  0.47000000000E+01 0. -1.
        -11    1    6    6    0    0 -0.17544518060E+02 -0.30705857899E+02  0.11856842119E+03  0.12373007043E+03  0.00000000000E+00 0.  1.
         12    1    6    6    0    0 -0.94481162676E+02  0.13960044826E+02  0.13915449526E+03  0.16877661717E+03  0.00000000000E+00 0. -1.
         -5    1    3    3    0  503  0.16999748146E+02 -0.62836649808E+02  0.56575764765E+02  0.86373278014E+02  0.47000000000E+01 0.  1.
         11    1    4    4    0    0  0.48054482930E+02 -0.15828269539E+02  0.33959610886E+02  0.60934576537E+02  0.00000000000E+00 0. -1.
        -12    1    4    4    0    0  0.18960896443E+02  0.72105173202E+02  0.28666273594E+02  0.79877574063E+02  0.00000000000E+00 0.  1.
</event>
<event>
12    1  0.8406581E-002  0.2513508E+03  0.7818608E-02  0.1112517E+00
         21   -1    0    0  501  502  0.00000000000E+00  0.00000000000E+00  0.36078660257E+03  0.36078660257E+03  0.00000000000E+00 0. -1.
         21   -1    0    0  502  503 -0.00000000000E+00 -0.00000000000E+00 -0.65872204813E+03  0.65872204813E+03  0.00000000000E+00 0.  1.
         -6    2    1    2    0  503  0.86077728714E+02 -0.16211797949E+03 -0.58589975902E+03  0.63753883609E+03  0.17171378874E+03 0.  0.
        -24    2    3    3    0    0 -0.19576089328E+02 -0.98703915859E+02 -0.29965640467E+03  0.32586365157E+03  0.79167368755E+02 0.  0.
          6    2    1    2  501    0 -0.86077728714E+02  0.16211797949E+03  0.28796431347E+03  0.38196981461E+03  0.17113117421E+03 0.  0.
         24    2    5    5    0    0 -0.89156355383E+02  0.36934824481E+02  0.15322960259E+03  0.19797026962E+03  0.79999247370E+02 0.  0.
          5    1    5    5  501    0  0.30786266696E+01  0.12518315501E+03  0.13473471088E+03  0.18399954499E+03  0.47000000000E+01 0. -1.
        -13    1    6    6    0    0 -0.28092196719E+02 -0.25195095961E+02  0.54681780922E+02  0.66438404118E+02  0.00000000000E+00 0.  1.
         14    1    6    6    0    0 -0.61064158664E+02  0.62129920442E+02  0.98547821667E+02  0.13153186550E+03  0.00000000000E+00 0. -1.
         -5    1    3    3    0  503  0.10565381804E+03 -0.63414063629E+02 -0.28624335436E+03  0.31167518452E+03  0.47000000000E+01 0.  1.
         13    1    4    4    0    0 -0.42175850651E+02 -0.21254309878E+02 -0.10370479781E+03  0.11395276722E+03  0.00000000000E+00 0. -1.
        -14    1    4    4    0    0  0.22599761322E+02 -0.77449605981E+02 -0.19595160685E+03  0.21191088435E+03  0.00000000000E+00 0.  1.
</event>
<event>
12    1  0.8406581E-002  0.1758449E+03  0.7818608E-02  0.1172280E+00
         21   -1    0    0  503  502  0.00000000000E+00  0.00000000000E+00  0.79273395145E+02  0.79273395145E+02  0.00000000000E+00 0.  1.
         21   -1    0    0  501  503 -0.00000000000E+00 -0.00000000000E+00 -0.38987878940E+03  0.38987878940E+03  0.00000000000E+00 0.  1.
          6    2    1    2  501    0 -0.12415354377E+02 -0.24219901248E+02 -0.13443389926E+03  0.22134563921E+03  0.17372585900E+03 0.  0.
         24    2    3    3    0    0  0.34002163615E+02 -0.44077474281E+02 -0.13999226714E+03  0.17033686901E+03  0.79484861555E+02 0.  0.
         -6    2    1    2    0  502  0.12415354377E+02  0.24219901248E+02 -0.17617149499E+03  0.24780654533E+03  0.17213640993E+03 0.  0.
        -24    2    5    5    0    0  0.38379900032E+02  0.48489754993E+02 -0.18578488787E+03  0.21068928850E+03  0.77779680260E+02 0.  0.
          5    1    3    3  501    0 -0.46417517992E+02  0.19857573033E+02  0.55583678795E+01  0.51008770195E+02  0.47000000000E+01 0. -1.
        -13    1    4    4    0    0  0.27331055214E+02 -0.41686067278E+02 -0.26179112906E+02  0.56303292415E+02  0.00000000000E+00 0.  1.
         14    1    4    4    0    0  0.66711084009E+01 -0.23914070031E+01 -0.11381315424E+03  0.11403357660E+03  0.00000000000E+00 0. -1.
         -5    1    5    5    0  502 -0.25964545655E+02 -0.24269853746E+02  0.96133928842E+01  0.37117256831E+02  0.47000000000E+01 0.  1.
         11    1    6    6    0    0  0.49480379080E+02  0.24688862710E+01 -0.71492058387E+02  0.86979984627E+02  0.00000000000E+00 0. -1.
        -12    1    6    6    0    0 -0.11100479048E+02  0.46020868722E+02 -0.11429282949E+03  0.12370930387E+03  0.00000000000E+00 0.  1.
</event>
<event>
12    1  0.8406581E-002  0.2117961E+03  0.7818608E-02  0.1140284E+00
         21   -1    0    0  501  502  0.00000000000E+00  0.00000000000E+00  0.22332627431E+03  0.22332627431E+03  0.00000000000E+00 0. -1.
         21   -1    0    0  502  503 -0.00000000000E+00 -0.00000000000E+00 -0.60607162972E+03  0.60607162972E+03  0.00000000000E+00 0.  1.
         -6    2    1    2    0  503  0.45545356135E+02 -0.11307718713E+03 -0.53062609990E+03  0.57108353961E+03  0.17237030372E+03 0.  0.
        -24    2    3    3    0    0 -0.47043517589E+02 -0.38266377513E+02 -0.29899333556E+03  0.31061245813E+03  0.58358172006E+02 0.  0.
          6    2    1    2  501    0 -0.45545356135E+02  0.11307718713E+03  0.14788074449E+03  0.25831436441E+03  0.17319574635E+03 0.  0.
         24    2    5    5    0    0 -0.31650331299E+02  0.10443045616E+03  0.30043213467E+02  0.13925298784E+03  0.81125435615E+02 0.  0.
          5    1    5    5  501    0 -0.13895024835E+02  0.86467309779E+01  0.11783753102E+03  0.11906137656E+03  0.47000000000E+01 0. -1.
        -13    1    6    6    0    0  0.18550087686E+02  0.61538099672E+02  0.34732837379E+02  0.73057603689E+02  0.00000000000E+00 0.  1.
         14    1    6    6    0    0 -0.50200418985E+02  0.42892356485E+02 -0.46896239117E+01  0.66195384156E+02  0.00000000000E+00 0. -1.
         -5    1    3    3    0  503  0.92588873724E+02 -0.74810809622E+02 -0.23163276434E+03  0.26047108148E+03  0.47000000000E+01 0.  1.
         13    1    4    4    0    0 -0.18038959573E+02 -0.12780530827E+02 -0.22891569247E+02  0.31824047092E+02  0.00000000000E+00 0. -1.
        -14    1    4    4    0    0 -0.29004558016E+02 -0.25485846686E+02 -0.27610176632E+03  0.27878841104E+03  0.00000000000E+00 0.  1.
</event>
<event>
12    1  0.8406581E-002  0.1907781E+03  0.7818608E-02  0.1158416E+00
         21   -1    0    0  501  502  0.00000000000E+00  0.00000000000E+00  0.17715290643E+03  0.17715290643E+03  0.00000000000E+00 0. -1.
         21   -1    0    0  502  503 -0.00000000000E+00 -0.00000000000E+00 -0.23577901150E+03  0.23577901150E+03  0.00000000000E+00 0. -1.
         -6    2    1    2    0  503  0.51203872528E+02 -0.24691171114E+02 -0.10686452359E+03  0.21614977397E+03  0.17907877566E+03 0.  0.
        -24    2    3    3    0    0 -0.43497741493E+02 -0.81194663241E+01 -0.39755599037E+02  0.98809606707E+02  0.78897727942E+02 0.  0.
          6    2    1    2  501    0 -0.51203872528E+02  0.24691171114E+02  0.48238418523E+02  0.19678214396E+03  0.18211198936E+03 0.  0.
         24    2    5    5    0    0 -0.61213315302E+02 -0.12089137586E+02  0.92957100577E+02  0.13783445039E+03  0.80399601675E+02 0.  0.
          5    1    5    5  501    0  0.10009442775E+02  0.36780308700E+02 -0.44718682053E+02  0.58947693571E+02  0.47000000000E+01 0. -1.
        -11    1    6    6    0    0 -0.66689107021E+02  0.19674731053E+02  0.62723322384E+02  0.93641589095E+02  0.00000000000E+00 0.  1.
         12    1    6    6    0    0  0.54757917188E+01 -0.31763868640E+02  0.30233778192E+02  0.44192861298E+02  0.00000000000E+00 0. -1.
         -5    1    3    3    0  503  0.94701614020E+02 -0.16571704790E+02 -0.67108924553E+02  0.11734016726E+03  0.47000000000E+01 0.  1.
         11    1    4    4    0    0 -0.54475032074E+02  0.19547033988E+02 -0.37493161308E+02  0.68959066134E+02  0.00000000000E+00 0. -1.
        -12    1    4    4    0    0  0.10977290581E+02 -0.27666500312E+02 -0.22624377290E+01  0.29850540573E+02  0.00000000000E+00 0.  1.
</event>
<event>
12    1  0.8406581E-002  0.1829508E+03  0.7818608E-02  0.1165731E+00
         21   -1    0    0  503  502  0.00000000000E+00  0.00000000000E+00  0.84777419014E+03  0.84777419014E+03  0.00000000000E+00 0.  1.
         21   -1    0    0  501  503 -0.00000000000E+00 -0.00000000000E+00 -0.17936914347E+03  0.17936914347E+03  0.00000000000E+00 0.  1.
          6    2    1    2  501    0  0.64095959692E+02  0.62878017383E+01 -0.11980449712E+03  0.21868725306E+03  0.17124009058E+03 0.  0.
         24    2    3    3    0    0  0.11124001527E+02 -0.49075242155E+02 -0.25258637290E+02  0.96900124876E+02  0.78863886797E+02 0.  0.
         -6    2    1    2    0  502 -0.64095959692E+02 -0.62878017383E+01  0.78820954378E+03  0.80845608055E+03  0.16786637774E+03 0.  0.
        -24    2    5    5    0    0  0.58889389016E+01 -0.48984585074E+02  0.40519117133E+03  0.41673415754E+03  0.83983948203E+02 0.  0.
          5    1    3    3  501    0  0.52971958165E+02  0.55363043893E+02 -0.94545859826E+02  0.12178712818E+03  0.47000000000E+01 0. -1.
        -11    1    4    4    0    0  0.24909628738E+02 -0.38261661813E+02 -0.49273090775E+02  0.67173520401E+02  0.00000000000E+00 0.  1.
         12    1    4    4    0    0 -0.13785627212E+02 -0.10813580342E+02  0.24014453485E+02  0.29726604475E+02  0.00000000000E+00 0. -1.
         -5    1    5    5    0  502 -0.69984898594E+02  0.42696783336E+02  0.38301837245E+03  0.39172192302E+03  0.47000000000E+01 0.  1.
         11    1    6    6    0    0  0.12340778070E+02  0.68313589219E+01  0.26951230264E+03  0.26988116560E+03  0.00000000000E+00 0. -1.
        -12    1    6    6    0    0 -0.64518391683E+01 -0.55815943996E+02  0.13567886869E+03  0.14685299194E+03  0.00000000000E+00 0.  1.
</event>
<event>
12    1  0.8406581E-002  0.2586668E+03  0.7818608E-02  0.1108031E+00
         21   -1    0    0  501  502  0.00000000000E+00  0.00000000000E+00  0.99428695006E+02  0.99428695006E+02  0.00000000000E+00 0. -1.
         21   -1    0    0  502  503 -0.00000000000E+00 -0.00000000000E+00 -0.78334235915E+03  0.78334235915E+03  0.00000000000E+00 0. -1.
         -6    2    1    2    0  503 -0.19076896639E+03 -0.30138770177E+02 -0.17548056328E+03  0.31257312994E+03  0.17206797920E+03 0.  0.
        -24    2    3    3    0    0 -0.15392378280E+03  0.29461236030E+01 -0.55462194877E+02  0.18265516927E+03  0.81151988548E+02 0.  0.
          6    2    1    2  501    0  0.19076896639E+03  0.30138770177E+02 -0.50843310087E+03  0.57019792421E+03  0.17123174564E+03 0.  0.
         24    2    5    5    0    0  0.26976326556E+02  0.40677872427E+02 -0.18922508455E+03  0.21123420847E+03  0.80195677596E+02 0.  0.
          5    1    5    5  501    0  0.16379263984E+03 -0.10539102250E+02 -0.31920801632E+03  0.35896371575E+03  0.47000000000E+01 0. -1.
        -11    1    6    6    0    0  0.39297100068E+02 -0.10944427769E+02 -0.84214124030E+02  0.93573827853E+02  0.00000000000E+00 0.  1.
         12    1    6    6    0    0 -0.12320773512E+02  0.51622300196E+02 -0.10501096052E+03  0.11766038062E+03  0.00000000000E+00 0. -1.
         -5    1    3    3    0  503 -0.36845183589E+02 -0.33084893780E+02 -0.12001836840E+03  0.12991796067E+03  0.47000000000E+01 0.  1.
         13    1    4    4    0    0 -0.13897239450E+03 -0.22899952131E+02 -0.31392174042E+02  0.14430246994E+03  0.00000000000E+00 0. -1.
        -14    1    4    4    0    0 -0.14951388305E+02  0.25846075734E+02 -0.24070020835E+02  0.38352699333E+02  0.00000000000E+00 0.  1.
</event>
<event>
12    1  0.8406581E-002  0.1720263E+03  0.7818608E-02  0.1176315E+00
         21   -1    0    0  501  502  0.00000000000E+00  0.00000000000E+00  0.64059797638E+02  0.64059797638E+02  0.00000000000E+00 0.  1.
         21   -1    0    0  502  503 -0.00000000000E+00 -0.00000000000E+00 -0.94625393309E+03  0.94625393309E+03  0.00000000000E+00 0.  1.
         -6    2    1    2    0  503 -0.30128138135E+01 -0.13653793381E+02 -0.80601219250E+03  0.82416545958E+03  0.17145712926E+03 0.  0.
        -24    2    3    3    0    0 -0.23564741412E+02 -0.57731937811E+02 -0.31281934872E+03  0.32855822021E+03  0.78779981332E+02 0.  0.
          6    2    1    2  501    0  0.30128138135E+01  0.13653793381E+02 -0.76181942950E+02  0.18614827115E+03  0.16926897914E+03 0.  0.
         24    2    5    5    0    0 -0.16909953469E+02  0.31000141921E+02  0.17241823247E+02  0.88947949372E+02  0.79796628395E+02 0.  0.
          5    1    5    5  501    0  0.19922767282E+02 -0.17346348540E+02 -0.93423766197E+02  0.97200321781E+02  0.47000000000E+01 0. -1.
        -13    1    6    6    0    0 -0.31462598954E+02 -0.16127289931E+02  0.17883196220E+02  0.39620617366E+02  0.00000000000E+00 0.  1.
         14    1    6    6    0    0  0.14552645485E+02  0.47127431852E+02 -0.64137297320E+00  0.49327332006E+02  0.00000000000E+00 0. -1.
         -5    1    3    3    0  503  0.20551927598E+02  0.44078144430E+02 -0.49319284379E+03  0.49560723936E+03  0.47000000000E+01 0.  1.
         13    1    4    4    0    0  0.17503805581E+02  0.80346904289E+01 -0.10487170659E+03  0.10662557996E+03  0.00000000000E+00 0. -1.
        -14    1    4    4    0    0 -0.41068546993E+02 -0.65766628240E+02 -0.20794764213E+03  0.22193264025E+03  0.00000000000E+00 0.  1.
</event>
<event>
12    1  0.8406581E-002  0.2242644E+03  0.7818608E-02  0.1130785E+00
         21   -1    0    0  503  502  0.00000000000E+00  0.00000000000E+00  0.18720695701E+04  0.18720695701E+04  0.00000000000E+00 0. -1.
         21   -1    0    0  501  503 -0.00000000000E+00 -0.00000000000E+00 -0.61815894684E+02  0.61815894684E+02  0.00000000000E+00 0.  1.
          6    2    1    2  501    0  0.13532456383E+03 -0.46683397369E+02  0.17797292846E+03  0.28630209302E+03  0.17263385541E+03 0.  0.
         24    2    3    3    0    0  0.15913214237E+03 -0.69618706902E+02  0.15442490570E+03  0.24544345140E+03  0.78902682140E+02 0.  0.
         -6    2    1    2    0  502 -0.13532456383E+03  0.46683397369E+02  0.16322807470E+04  0.16475833718E+04  0.17233239070E+03 0.  0.
        -24    2    5    5    0    0 -0.47594002779E+02  0.85288539209E+02  0.99170227509E+03  0.99985667251E+03  0.81857431660E+02 0.  0.
          5    1    3    3  501    0 -0.23807578534E+02  0.22935309533E+02  0.23548022766E+02  0.40858641623E+02  0.47000000000E+01 0. -1.
        -13    1    4    4    0    0  0.60427712217E+02 -0.52434637212E+01  0.14232173243E+02  0.62302143388E+02  0.00000000000E+00 0.  1.
         14    1    4    4    0    0  0.98704430149E+02 -0.64375243180E+02  0.14019273245E+03  0.18314130801E+03  0.00000000000E+00 0. -1.
         -5    1    5    5    0  502 -0.87730561053E+02 -0.38605141841E+02  0.64057847187E+03  0.64772669927E+03  0.47000000000E+01 0.  1.
         13    1    6    6    0    0 -0.61577915854E+02  0.92185907895E+02  0.90484143111E+03  0.91160742471E+03  0.00000000000E+00 0. -1.
        -14    1    6    6    0    0  0.13983913075E+02 -0.68973686856E+01  0.86860843983E+02  0.88249247799E+02  0.00000000000E+00 0.  1.
</event>
<event>
12    1  0.8406581E-002  0.1787991E+03  0.7818608E-02  0.1169167E+00
         21   -1    0    0  503  502  0.00000000000E+00  0.00000000000E+00  0.98865490061E+03  0.98865490061E+03  0.00000000000E+00 0.  1.
         21   -1    0    0  501  503 -0.00000000000E+00 -0.00000000000E+00 -0.12803666792E+03  0.12803666792E+03  0.00000000000E+00 0.  1.
          6    2    1    2  501    0  0.30557276543E+02 -0.36457571214E+02 -0.52531287822E+02  0.18635628697E+03  0.17235494726E+03 0.  0.
         24    2    3    3    0    0  0.53987775200E+02 -0.58904834949E+02  0.12538319197E+02  0.11349332194E+03  0.79618246806E+02 0.  0.
         -6    2    1    2    0  502 -0.30557276543E+02  0.36457571214E+02  0.91314952051E+03  0.93033528156E+03  0.17151905919E+03 0.  0.
        -24    2    5    5    0    0  0.43420757457E+02  0.11143152744E+02  0.33062939196E+03  0.34257226856E+03  0.77655858262E+02 0.  0.
          5    1    3    3  501    0 -0.23430498658E+02  0.22447263736E+02 -0.65069607019E+02  0.72862965038E+02  0.47000000000E+01 0. -1.
        -11    1    4    4    0    0  0.19311582913E+02 -0.72507088801E+02  0.32550986335E+01  0.75105331556E+02  0.00000000000E+00 0.  1.
         12    1    4    4    0    0  0.34676192288E+02  0.13602253852E+02  0.92832205632E+01  0.38387990381E+02  0.00000000000E+00 0. -1.
         -5    1    5    5    0  502 -0.73978033999E+02  0.25314418470E+02  0.58252012854E+03  0.58776301300E+03  0.47000000000E+01 0.  1.
         13    1    6    6    0    0  0.17437261620E+02  0.98974434219E+01  0.13036586366E+02  0.23915895617E+02  0.00000000000E+00 0. -1.
        -14    1    6    6    0    0  0.25983495837E+02  0.12457093217E+01  0.31759280560E+03  0.31865637294E+03  0.00000000000E+00 0.  1.
</event>
<event>
12    1  0.8406581E-002  0.1985151E+03  0.7818608E-02  0.1151389E+00
         21   -1    0    0  503  502  0.00000000000E+00  0.00000000000E+00  0.69769540204E+03  0.69769540204E+03  0.00000000000E+00 0.  1.
         21   -1    0    0  501  503 -0.00000000000E+00 -0.00000000000E+00 -0.59877785630E+02  0.59877785630E+02  0.00000000000E+00 0.  1.
          6    2    1    2  501    0 -0.79454248799E+01  0.97699128195E+02  0.22069454606E+03  0.29562089978E+03  0.17052092042E+03 0.  0.
         24    2    3    3    0    0 -0.27856437748E+02  0.60098409381E+02  0.22957291886E+03  0.25190387802E+03  0.79774925568E+02 0.  0.
         -6    2    1    2    0  502  0.79454248799E+01 -0.97699128195E+02  0.41712307034E+03  0.46195228788E+03  0.17262679700E+03 0.  0.
        -24    2    5    5    0    0 -0.53549249238E+02 -0.50468101760E+01  0.15449078166E+03  0.17670878482E+03  0.66825149673E+02 0.  0.
          5    1    3    3  501    0  0.19911012868E+02  0.37600718814E+02 -0.88783727987E+01  0.43717021769E+02  0.47000000000E+01 0. -1.
        -13    1    4    4    0    0 -0.67640135775E+01  0.69495088769E+02  0.11123150323E+03  0.13133075250E+03  0.00000000000E+00 0.  1.
         14    1    4    4    0    0 -0.21092424170E+02 -0.93966793883E+01  0.11834141564E+03  0.12057312551E+03  0.00000000000E+00 0. -1.
         -5    1    5    5    0  502  0.61494674118E+02 -0.92652318019E+02  0.26263228868E+03  0.28524350306E+03  0.47000000000E+01 0.  1.
         13    1    6    6    0    0 -0.46272180390E+01  0.23318145086E+01 -0.64853908821E+01  0.83011324876E+01  0.00000000000E+00 0. -1.
        -14    1    6    6    0    0 -0.48922031199E+02 -0.73786246846E+01  0.16097617254E+03  0.16840765233E+03  0.00000000000E+00 0.  1.
</event>
<event>
12    1  0.8406581E-002  0.2260676E+03  0.7818608E-02  0.1133144E+00
         21   -1    0    0  503  502  0.00000000000E+00  0.00000000000E+00  0.23899001896E+03  0.23899001896E+03  0.00000000000E+00 0. -1.
         21   -1    0    0  501  503 -0.00000000000E+00 -0.00000000000E+00 -0.58433561818E+03  0.58433561818E+03  0.00000000000E+00 0. -1.
          6    2    1    2  501    0  0.13316046364E+03  0.14536526037E+02 -0.51090860901E+03  0.55868968315E+03  0.18210858197E+03 0.  0.
         24    2    3    3    0    0  0.15804945858E+03  0.24919231051E+02 -0.32766551725E+03  0.37341317813E+03  0.80449431171E+02 0.  0.
         -6    2    1    2    0  502 -0.13316046364E+03 -0.14536526037E+02  0.16556300979E+03  0.26463595398E+03  0.15709251498E+03 0.  0.
        -24    2    5    5    0    0 -0.10174543121E+03 -0.40401109513E+02  0.17548024242E+03  0.22248951351E+03  0.81999303178E+02 0.  0.
          5    1    3    3  501    0 -0.24888994936E+02 -0.10382705014E+02 -0.18324309176E+03  0.18527650502E+03  0.47000000000E+01 0. -1.
        -11    1    4    4    0    0  0.45949401071E+02 -0.29361572802E+02 -0.98085291415E+02  0.11222376668E+03  0.00000000000E+00 0.  1.
         12    1    4    4    0    0  0.11210005751E+03  0.54280803853E+02 -0.22958022584E+03  0.26118941145E+03  0.00000000000E+00 0. -1.
         -5    1    5    5    0  502 -0.31415032433E+02  0.25864583476E+02 -0.99172326297E+01  0.42146440469E+02  0.47000000000E+01 0.  1.
         13    1    6    6    0    0 -0.64586607919E+01 -0.40290495160E+02  0.42756420584E+02  0.59102874724E+02  0.00000000000E+00 0. -1.
        -14    1    6    6    0    0 -0.95286770417E+02 -0.11061435283E+00  0.13272382184E+03  0.16338663879E+03  0.00000000000E+00 0.  1.
</event>
<event>
12    1  0.8406581E-002  0.2941252E+03  0.7818608E-02  0.1089965E+00
         21   -1    0    0  501  502  0.00000000000E+00  0.00000000000E+00  0.22237658295E+03  0.22237658295E+03  0.00000000000E+00 0.  1.
         21   -1    0    0  502  503 -0.00000000000E+00 -0.00000000000E+00 -0.42769314945E+03  0.42769314945E+03  0.00000000000E+00 0. -1.
         -6    2    1    2    0  503  0.20831330940E+03  0.78225094282E+02  0.12954225180E+02  0.29441032506E+03  0.19234351381E+03 0.  0.
        -24    2    3    3    0    0  0.85529063026E+02 -0.30677473359E+02 -0.26769555281E+02  0.12548487070E+03  0.82301371139E+02 0.  0.
          6    2    1    2  501    0 -0.20831330940E+03 -0.78225094282E+02 -0.21827079168E+03  0.35565940733E+03  0.17128302682E+03 0.  0.
         24    2    5    5    0    0 -0.48624907879E+02  0.11799608355E+02 -0.10402828445E+03  0.13960785533E+03  0.78516602580E+02 0.  0.
          5    1    5    5  501    0 -0.15968840152E+03 -0.90024702638E+02 -0.11424250723E+03  0.21605155201E+03  0.47000000000E+01 0. -1.
        -13    1    6    6    0    0 -0.12357349664E+02 -0.11336540726E+02  0.87415920903E+01  0.18911284426E+02  0.00000000000E+00 0.  1.
         14    1    6    6    0    0 -0.36267558216E+02  0.23136149082E+02 -0.11276987654E+03  0.12069657090E+03  0.00000000000E+00 0. -1.
         -5    1    3    3    0  503  0.12278424637E+03  0.10890256764E+03  0.39723780461E+02  0.16892545436E+03  0.47000000000E+01 0.  1.
         11    1    4    4    0    0  0.57255402619E+02 -0.46083336721E+02  0.12659030144E+02  0.74579528670E+02  0.00000000000E+00 0. -1.
        -12    1    4    4    0    0  0.28273660407E+02  0.15405863362E+02 -0.39428585426E+02  0.50905342032E+02  0.00000000000E+00 0.  1.
</event>
<event>
12    1  0.8406581E-002  0.1776361E+03  0.7818608E-02  0.1170154E+00
         21   -1    0    0  501  502  0.00000000000E+00  0.00000000000E+00  0.28462329102E+03  0.28462329102E+03  0.00000000000E+00 0.  1.
         21   -1    0    0  502  503 -0.00000000000E+00 -0.00000000000E+00 -0.34235387871E+03  0.34235387871E+03  0.00000000000E+00 0.  1.
         -6    2    1    2    0  503  0.44386617846E+02  0.70222904268E+01 -0.28670193797E+03  0.33717992036E+03  0.17167647786E+03 0.  0.
        -24    2    3    3    0    0  0.58892773921E+02  0.39532353879E+02 -0.28013220673E+03  0.30067534314E+03  0.83068904538E+02 0.  0.
          6    2    1    2  501    0 -0.44386617846E+02 -0.70222904268E+01  0.22897135028E+03  0.28979724937E+03  0.17185773793E+03 0.  0.
         24    2    5    5    0    0  0.41648311023E+02  0.30403282034E+01  0.10348899241E+03  0.13724831488E+03  0.79895575467E+02 0.  0.
          5    1    5    5  501    0 -0.86034928868E+02 -0.10062618630E+02  0.12548235787E+03  0.15254893450E+03  0.47000000000E+01 0. -1.
        -13    1    6    6    0    0  0.50266793480E+02  0.20474913267E+02  0.10451985181E+03  0.11777254359E+03  0.00000000000E+00 0.  1.
         14    1    6    6    0    0 -0.86184824575E+01 -0.17434585063E+02 -0.10308593998E+01  0.19475771289E+02  0.00000000000E+00 0. -1.
         -5    1    3    3    0  503 -0.14506156076E+02 -0.32510063452E+02 -0.65697312442E+01  0.36504577225E+02  0.47000000000E+01 0.  1.
         11    1    4    4    0    0 -0.86042831189E+01 -0.20152669135E+01  0.70756089152E+00  0.88654177080E+01  0.00000000000E+00 0. -1.
        -12    1    4    4    0    0  0.67497057040E+02  0.41547620792E+02 -0.28083976762E+03  0.29180992543E+03  0.00000000000E+00 0.  1.
</event>
<event>
12    1  0.8406581E-002  0.1791878E+03  0.7818608E-02  0.1168721E+00
         21   -1    0    0  501  502  0.00000000000E+00  0.00000000000E+00  0.14211621049E+03  0.14211621049E+03  0.00000000000E+00 0.  1.
         21   -1    0    0  502  503 -0.00000000000E+00 -0.00000000000E+00 -0.55070852842E+03  0.55070852842E+03  0.00000000000E+00 0. -1.
         -6    2    1    2    0  503  0.28745860876E+02 -0.41677619934E+02 -0.47072253546E+03  0.50367447334E+03  0.17188636127E+03 0.  0.
        -24    2    3    3    0    0  0.83406398808E+02 -0.43157581610E+02 -0.34111355387E+03  0.36292454332E+03  0.80849015445E+02 0.  0.
          6    2    1    2  501    0 -0.28745860876E+02  0.41677619934E+02  0.62130217531E+02  0.18915026556E+03  0.17133099693E+03 0.  0.
         24    2    5    5    0    0 -0.48885852941E+02  0.66736607040E+02  0.90211373061E+02  0.14620595964E+03  0.79965551755E+02 0.  0.
          5    1    5    5  501    0  0.20139992064E+02 -0.25058987106E+02 -0.28081155530E+02  0.42944305920E+02  0.47000000000E+01 0. -1.
        -11    1    6    6    0    0 -0.47442980532E+02  0.80869841321E+02  0.92624766384E+02  0.13179573204E+03  0.00000000000E+00 0.  1.
         12    1    6    6    0    0 -0.14428724090E+01 -0.14133234281E+02 -0.24133933231E+01  0.14410227596E+02  0.00000000000E+00 0. -1.
         -5    1    3    3    0  503 -0.54660537932E+02  0.14799616766E+01 -0.12960898159E+03  0.14074993003E+03  0.47000000000E+01 0.  1.
         11    1    4    4    0    0  0.75947993974E+02 -0.41580017113E+02 -0.16232825368E+03  0.18397678537E+03  0.00000000000E+00 0. -1.
        -12    1    4    4    0    0  0.74584048342E+01 -0.15775644979E+01 -0.17878530018E+03  0.17894775795E+03  0.00000000000E+00 0.  1.
</event>
<event>
12    1  0.8406581E-002  0.3066839E+03  0.7818608E-02  0.1082345E+00
         21   -1    0    0  503  502  0.00000000000E+00  0.00000000000E+00  0.29971766961E+03  0.29971766961E+03  0.00000000000E+00 0. -1.
         21   -1    0    0  501  503 -0.00000000000E+00 -0.00000000000E+00 -0.31646266537E+03  0.31646266537E+03  0.00000000000E+00 0.  1.
          6    2    1    2  501    0  0.76038524514E+02  0.23831806652E+03 -0.50680332707E+02  0.30762465438E+03  0.17171800668E+03 0.  0.
         24    2    3    3    0    0 -0.95574481483E+01  0.70701934497E+02 -0.45787819393E+02  0.11929551448E+03  0.83933229492E+02 0.  0.
         -6    2    1    2    0  502 -0.76038524514E+02 -0.23831806652E+03  0.33935336946E+02  0.30855568060E+03  0.17741939831E+03 0.  0.
        -24    2    5    5    0    0 -0.60461554828E+02 -0.24486294857E+03 -0.63014674151E+01  0.26466299453E+03  0.79958295296E+02 0.  0.
          5    1    3    3  501    0  0.85595972662E+02  0.16761613203E+03 -0.48925133140E+01  0.18832913991E+03  0.47000000000E+01 0. -1.
        -13    1    4    4    0    0  0.33868871880E+02  0.22897622038E+02 -0.34996863141E+02  0.53816187223E+02  0.00000000000E+00 0.  1.
         14    1    4    4    0    0 -0.43426320029E+02  0.47804312459E+02 -0.10790956252E+02  0.65479327255E+02  0.00000000000E+00 0. -1.
         -5    1    5    5    0  502 -0.15576969686E+02  0.65448820465E+01  0.40236804361E+02  0.43892686074E+02  0.47000000000E+01 0.  1.
         13    1    6    6    0    0 -0.42114384194E+02 -0.16992603461E+03  0.32888735153E+02  0.17812958063E+03  0.00000000000E+00 0. -1.
        -14    1    6    6    0    0 -0.18347170634E+02 -0.74936913957E+02 -0.39190202568E+02  0.86533413899E+02  0.00000000000E+00 0.  1.
</event>
<event>
12    1  0.8406581E-002  0.2047123E+03  0.7818608E-02  0.1146535E+00
         21   -1    0    0  501  502  0.00000000000E+00  0.00000000000E+00  0.71250366184E+03  0.71250366184E+03  0.00000000000E+00 0.  1.
         21   -1    0    0  502  503 -0.00000000000E+00 -0.00000000000E+00 -0.65711955636E+02  0.65711955636E+02  0.00000000000E+00 0.  1.
         -6    2    1    2    0  503  0.33809052337E+02 -0.10659429665E+03  0.46056367856E+03  0.50400995619E+03  0.17146934953E+03 0.  0.
        -24    2    3    3    0    0 -0.21710968334E+02  0.45806887730E-01  0.22025443847E+03  0.23526248132E+03  0.79781258481E+02 0.  0.
          6    2    1    2  501    0 -0.33809052337E+02  0.10659429665E+03  0.18622802764E+03  0.27420566128E+03  0.16733938659E+03 0.  0.
         24    2    5    5    0    0  0.44106951719E+02  0.63746292778E+02  0.12023167753E+03  0.16337036297E+03  0.78899975813E+02 0.  0.
          5    1    5    5  501    0 -0.77916004057E+02  0.42848003870E+02  0.65996350107E+02  0.11083529831E+03  0.47000000000E+01 0. -1.
        -13    1    6    6    0    0 -0.20427353932E+02  0.25065448652E+02  0.19922547974E+02  0.37979750165E+02  0.00000000000E+00 0.  1.
         14    1    6    6    0    0  0.64534305651E+02  0.38680844125E+02  0.10030912956E+03  0.12539061281E+03  0.00000000000E+00 0. -1.
         -5    1    3    3    0  503  0.55520020672E+02 -0.10664010354E+03  0.24030924009E+03  0.26874747487E+03  0.47000000000E+01 0.  1.
         11    1    4    4    0    0  0.26337010481E+02 -0.17379542760E+02  0.86467085717E+02  0.92044790945E+02  0.00000000000E+00 0. -1.
        -12    1    4    4    0    0 -0.48047978815E+02  0.17425349648E+02  0.13378735276E+03  0.14321769038E+03  0.00000000000E+00 0.  1.
</event>
<event>
12    1  0.8406581E-002  0.2005242E+03  0.7818608E-02  0.1149310E+00
         21   -1    0    0  503  502  0.00000000000E+00  0.00000000000E+00  0.12806993749E+03  0.12806993749E+03  0.00000000000E+00 0.  1.
         21   -1    0    0  501  503 -0.00000000000E+00 -0.00000000000E+00 -0.31413951547E+03  0.31413951547E+03  0.00000000000E+00 0.  1.
          6    2    1    2  501    0  0.10148407234E+03 -0.48642937460E+01 -0.99466969872E+02  0.22383836631E+03  0.17287931583E+03 0.  0.
         24    2    3    3    0    0  0.47187737701E+02  0.52597557434E+02 -0.95883754150E+02  0.14456109509E+03  0.81920878091E+02 0.  0.
         -6    2    1    2    0  502 -0.10148407234E+03  0.48642937460E+01 -0.86602608106E+02  0.21837108666E+03  0.17280984192E+03 0.  0.
        -24    2    5    5    0    0  0.30368830834E+01  0.54748413325E+02 -0.17976643684E+02  0.83668939303E+02  0.60586469326E+02 0.  0.
          5    1    3    3  501    0  0.54296334638E+02 -0.57461851180E+02 -0.35832157220E+01  0.79277271213E+02  0.47000000000E+01 0. -1.
        -11    1    4    4    0    0  0.62180353692E+02  0.63471935524E+02 -0.72165176388E+02  0.11446788051E+03  0.00000000000E+00 0.  1.
         12    1    4    4    0    0 -0.14992615991E+02 -0.10874378090E+02 -0.23718577762E+02  0.30093214587E+02  0.00000000000E+00 0. -1.
         -5    1    5    5    0  502 -0.10452095542E+03 -0.49884119579E+02 -0.68625964422E+02  0.13470214735E+03  0.47000000000E+01 0.  1.
         11    1    6    6    0    0 -0.13306724529E+02  0.55158266652E+02 -0.29224587399E+02  0.63824601890E+02  0.00000000000E+00 0. -1.
        -12    1    6    6    0    0  0.16343607612E+02 -0.40985332724E+00  0.11247943715E+02  0.19844337413E+02  0.00000000000E+00 0.  1.
</event>
<event>
12    1  0.8406581E-002  0.2604422E+03  0.7818608E-02  0.1107020E+00
         21   -1    0    0  503  502  0.00000000000E+00  0.00000000000E+00  0.98143128271E+02  0.98143128271E+02  0.00000000000E+00 0. -1.
         21   -1    0    0  501  503 -0.00000000000E+00 -0.00000000000E+00 -0.70287492855E+03  0.70287492855E+03  0.00000000000E+00 0.  1.
          6    2    1    2  501    0  0.17917997662E+03 -0.78195605555E+02 -0.24479935542E+03  0.35674165496E+03  0.17063958280E+03 0.  0.
         24    2    3    3    0    0  0.18390067454E+03 -0.30107530278E+02 -0.15627041009E+03  0.25577526385E+03  0.79212518278E+02 0.  0.
         -6    2    1    2    0  502 -0.17917997662E+03  0.78195605555E+02 -0.35993244486E+03  0.44427640186E+03  0.17207597055E+03 0.  0.
        -24    2    5    5    0    0 -0.15165001571E+03  0.11927031226E+03 -0.26498544237E+03  0.33712205730E+03  0.78809023566E+02 0.  0.
          5    1    3    3  501    0 -0.47206979212E+01 -0.48088075277E+02 -0.88528945325E+02  0.10096639111E+03  0.47000000000E+01 0. -1.
        -13    1    4    4    0    0  0.10672025636E+03  0.22375688911E+02 -0.88409907001E+02  0.14037875989E+03  0.00000000000E+00 0.  1.
         14    1    4    4    0    0  0.77180418173E+02 -0.52483219189E+02 -0.67860503093E+02  0.11539650396E+03  0.00000000000E+00 0. -1.
         -5    1    5    5    0  502 -0.27529960906E+02 -0.41074706704E+02 -0.94947002487E+02  0.10715434457E+03  0.47000000000E+01 0.  1.
         13    1    6    6    0    0 -0.23201252365E+02  0.46355515855E+02 -0.30943600746E+02  0.60370840549E+02  0.00000000000E+00 0. -1.
        -14    1    6    6    0    0 -0.12844876335E+03  0.72914796404E+02 -0.23404184163E+03  0.27675121675E+03  0.00000000000E+00 0.  1.
</event>
<event>
12    1  0.8406581E-002  0.1757076E+03  0.7818608E-02  0.1172221E+00
         21   -1    0    0  503  502  0.00000000000E+00  0.00000000000E+00  0.79420476434E+03  0.79420476434E+03  0.00000000000E+00 0. -1.
         21   -1    0    0  501  503 -0.00000000000E+00 -0.00000000000E+00 -0.55163885251E+02  0.55163885251E+02  0.00000000000E+00 0. -1.
          6    2    1    2  501    0 -0.11851655304E+02  0.32480328306E+02  0.13691134550E+03  0.22212616427E+03  0.17146394043E+03 0.  0.
         24    2    3    3    0    0 -0.19076214784E+01 -0.40933784271E+02  0.11076688988E+03  0.14342331621E+03  0.81374013201E+02 0.  0.
         -6    2    1    2    0  502  0.11851655304E+02 -0.32480328306E+02  0.60212953359E+03  0.62724248532E+03  0.17227224589E+03 0.  0.
        -24    2    5    5    0    0  0.69203446591E+02 -0.46279428155E+02  0.41993408261E+03  0.43567809542E+03  0.80869441671E+02 0.  0.
          5    1    3    3  501    0 -0.99440338253E+01  0.73414112577E+02  0.26144455621E+02  0.78702848067E+02  0.47000000000E+01 0. -1.
        -13    1    4    4    0    0  0.33210530143E+02 -0.18264521891E+02  0.88024607492E+02  0.95837694027E+02  0.00000000000E+00 0.  1.
         14    1    4    4    0    0 -0.35118151622E+02 -0.22669262380E+02  0.22742282383E+02  0.47585622179E+02  0.00000000000E+00 0. -1.
         -5    1    5    5    0  502 -0.57351791287E+02  0.13799099849E+02  0.18219545098E+03  0.19156438990E+03  0.47000000000E+01 0.  1.
         11    1    6    6    0    0 -0.18253717140E+02 -0.74923856520E+01  0.55825511894E+02  0.59209980666E+02  0.00000000000E+00 0. -1.
        -12    1    6    6    0    0  0.87457163730E+02 -0.38787042503E+02  0.36410857072E+03  0.37646811475E+03  0.00000000000E+00 0.  1.
</event>
<event>
12    1  0.8406581E-002  0.1888527E+03  0.7818608E-02  0.1160898E+00
         21   -1    0    0  503  502  0.00000000000E+00  0.00000000000E+00  0.35082903946E+03  0.35082903946E+03  0.00000000000E+00 0.  1.
         21   -1    0    0  501  503 -0.00000000000E+00 -0.00000000000E+00 -0.18004613246E+03  0.18004613246E+03  0.00000000000E+00 0.  1.
          6    2    1    2  501    0  0.49561169598E+02 -0.25685306367E+02 -0.92548272485E+02  0.21031055265E+03  0.18041424922E+03 0.  0.
         24    2    3    3    0    0 -0.43329761185E+02  0.56697227627E+01 -0.51510497925E+02  0.10392421982E+03  0.78976566829E+02 0.  0.
         -6    2    1    2    0  502 -0.49561169598E+02  0.25685306367E+02  0.26333117948E+03  0.32056461927E+03  0.17407561732E+03 0.  0.
        -24    2    5    5    0    0 -0.18787842319E+02  0.34665070927E+01  0.26936507828E+03  0.28184549417E+03  0.80711445887E+02 0.  0.
          5    1    3    3  501    0  0.92890930782E+02 -0.31355029130E+02 -0.41037774560E+02  0.10638633284E+03  0.47000000000E+01 0. -1.
        -13    1    4    4    0    0 -0.91743936082E+01 -0.28811296045E+02 -0.46042567216E+02  0.55083375656E+02  0.00000000000E+00 0.  1.
         14    1    4    4    0    0 -0.34155367576E+02  0.34481018808E+02 -0.54679307096E+01  0.48840844163E+02  0.00000000000E+00 0. -1.
         -5    1    5    5    0  502 -0.30773327278E+02  0.22218799274E+02 -0.60338988064E+01  0.38719125091E+02  0.47000000000E+01 0.  1.
         13    1    6    6    0    0 -0.35467110526E+02 -0.16184239424E+02  0.64507766962E+02  0.75373055751E+02  0.00000000000E+00 0. -1.
        -14    1    6    6    0    0  0.16679268207E+02  0.19650746517E+02  0.20485731132E+03  0.20647243842E+03  0.00000000000E+00 0.  1.
</event>
<event>
12    1  0.8406581E-002  0.2412185E+03  0.7818608E-02  0.1119847E+00
         21   -1    0    0  501  502  0.00000000000E+00  0.00000000000E+00  0.16665144220E+03  0.16665144220E+03  0.00000000000E+00 0.  1.
         21   -1    0    0  502  503 -0.00000000000E+00 -0.00000000000E+00 -0.38501057950E+03  0.38501057950E+03  0.00000000000E+00 0.  1.
         -6    2    1    2    0  503  0.39267465530E+02  0.15602244580E+03 -0.20061711310E+03  0.30979187891E+03  0.17273923909E+03 0.  0.
        -24    2    3    3    0    0  0.28065511695E+02  0.55257310112E+02 -0.18722626899E+02  0.10149691869E+03  0.78166773487E+02 0.  0.
          6    2    1    2  501    0 -0.39267465530E+02 -0.15602244580E+03 -0.17742024189E+02  0.24187014279E+03  0.17972603904E+03 0.  0.
         24    2    5    5    0    0 -0.30509762123E+02 -0.92003302963E+02  0.60810506116E+02  0.14004805267E+03  0.80747049870E+02 0.  0.
          5    1    5    5  501    0 -0.87577034073E+01 -0.64019142841E+02 -0.78552530305E+02  0.10182209012E+03  0.47000000000E+01 0. -1.
        -13    1    6    6    0    0 -0.54214997437E+02 -0.66148306018E+02  0.60860339676E+02  0.10497068773E+03  0.00000000000E+00 0.  1.
         14    1    6    6    0    0  0.23705235314E+02 -0.25854996945E+02 -0.49833559874E-01  0.35077364948E+02  0.00000000000E+00 0. -1.
         -5    1    3    3    0  503  0.11201953835E+02  0.10076513569E+03 -0.18189448621E+03  0.20829496022E+03  0.47000000000E+01 0.  1.
         11    1    4    4    0    0  0.27552873814E+02 -0.12161183848E+02 -0.15806967229E+02  0.34013459997E+02  0.00000000000E+00 0. -1.
        -12    1    4    4    0    0  0.51263788142E+00  0.67418493960E+02 -0.29156596705E+01  0.67483458690E+02  0.00000000000E+00 0.  1.
</event>
<event>
12    1  0.8406581E-002  0.1744304E+03  0.7818608E-02  0.1173762E+00
         21   -1    0    0  501  502  0.00000000000E+00  0.00000000000E+00  0.17863019878E+04  0.17863019878E+04  0.00000000000E+00 0.  1.
         21   -1    0    0  502  503 -0.00000000000E+00 -0.00000000000E+00 -0.17368711625E+02  0.17368711625E+02  0.00000000000E+00 0.  1.
         -6    2    1    2    0  503 -0.22547279437E+02  0.44587676991E+01  0.73417925240E+03  0.75461588958E+03  0.17290953046E+03 0.  0.
        -24    2    3    3    0    0  0.45803060245E+01  0.55187355276E+02  0.27896854531E+03  0.29576060374E+03  0.81143465945E+02 0.  0.
          6    2    1    2  501    0  0.22547279437E+02 -0.44587676991E+01  0.10347540238E+04  0.10490548099E+04  0.17109016316E+03 0.  0.
         24    2    5    5    0    0 -0.11489725282E+00  0.33644350312E+02  0.26558304418E+03  0.27859293039E+03  0.77121410751E+02 0.  0.
          5    1    5    5  501    0  0.22662176690E+02 -0.38103118011E+02  0.76917097961E+03  0.77046187948E+03  0.47000000000E+01 0. -1.
        -13    1    6    6    0    0 -0.32929065818E+02 -0.48735918526E+01  0.11610506915E+03  0.12078270719E+03  0.00000000000E+00 0.  1.
         14    1    6    6    0    0  0.32814168565E+02  0.38517942165E+02  0.14947797503E+03  0.15781022320E+03  0.00000000000E+00 0. -1.
         -5    1    3    3    0  503 -0.27127585462E+02 -0.50728587577E+02  0.45521070709E+03  0.45885528584E+03  0.47000000000E+01 0.  1.
         13    1    4    4    0    0 -0.67145862707E+01 -0.84919012977E+01  0.15986377051E+03  0.16022990725E+03  0.00000000000E+00 0. -1.
        -14    1    4    4    0    0  0.11294892295E+02  0.63679256574E+02  0.11910477480E+03  0.13553069649E+03  0.00000000000E+00 0.  1.
</event>
<event>
12    1  0.8406581E-002  0.2017950E+03  0.7818608E-02  0.1149496E+00
         21   -1    0    0  501  502  0.00000000000E+00  0.00000000000E+00  0.76186447630E+02  0.76186447630E+02  0.00000000000E+00 0. -1.
         21   -1    0    0  502  503 -0.00000000000E+00 -0.00000000000E+00 -0.73929708332E+03  0.73929708332E+03  0.00000000000E+00 0. -1.
         -6    2    1    2    0  503 -0.88338781565E+02  0.27168554140E+02 -0.55768886255E+03  0.59307510771E+03  0.17938602317E+03 0.  0.
        -24    2    3    3    0    0 -0.85187602253E+02  0.55022208568E+02 -0.54809250945E+03  0.56307617458E+03  0.79781003096E+02 0.  0.
          6    2    1    2  501    0  0.88338781565E+02 -0.27168554140E+02 -0.10542177314E+03  0.22240842324E+03  0.17265539613E+03 0.  0.
         24    2    5    5    0    0  0.58943765130E+02  0.47340088623E+02 -0.30876733824E+02  0.11288829850E+03  0.77941925862E+02 0.  0.
          5    1    5    5  501    0  0.29395016435E+02 -0.74508642763E+02 -0.74545039314E+02  0.10952012474E+03  0.47000000000E+01 0. -1.
        -13    1    6    6    0    0  0.20245853346E+02 -0.36827692628E+01 -0.43039131148E+02  0.47705599012E+02  0.00000000000E+00 0.  1.
         14    1    6    6    0    0  0.38697911785E+02  0.51022857886E+02  0.12162397324E+02  0.65182699484E+02  0.00000000000E+00 0. -1.
         -5    1    3    3    0  503 -0.31511793119E+01 -0.27853654428E+02 -0.95963531070E+01  0.29998933131E+02  0.47000000000E+01 0.  1.
         11    1    4    4    0    0 -0.23041679312E+02  0.14350751868E+02 -0.35741469145E+03  0.35844403292E+03  0.00000000000E+00 0. -1.
        -12    1    4    4    0    0 -0.62145922941E+02  0.40671456700E+02 -0.19067781799E+03  0.20463214166E+03  0.00000000000E+00 0.  1.
</event>
<event>
12    1  0.8406581E-002  0.2676936E+03  0.7818608E-02  0.1103389E+00
         21   -1    0    0  501  502  0.00000000000E+00  0.00000000000E+00  0.50559800290E+03  0.50559800290E+03  0.00000000000E+00 0. -1.
         21   -1    0    0  502  503 -0.00000000000E+00 -0.00000000000E+00 -0.20293588374E+03  0.20293588374E+03  0.00000000000E+00 0.  1.
         -6    2    1    2    0  503  0.10012124869E+03 -0.17019454100E+03 -0.46599013306E+02  0.27171920279E+03  0.18074681436E+03 0.  0.
        -24    2    3    3    0    0  0.13176620797E+03 -0.11303332227E+03 -0.75752358125E+02  0.20001971961E+03  0.64269767127E+02 0.  0.
          6    2    1    2  501    0 -0.10012124869E+03  0.17019454100E+03  0.34926113247E+03  0.43681468384E+03  0.17272314014E+03 0.  0.
         24    2    5    5    0    0 -0.11154152154E+03  0.64703181440E+02  0.24256504681E+03  0.28626570753E+03  0.80512363392E+02 0.  0.
          5    1    5    5  501    0  0.11420272845E+02  0.10549135956E+03  0.10669608566E+03  0.15054897631E+03  0.47000000000E+01 0. -1.
        -11    1    6    6    0    0  0.77358005337E+01  0.15857516819E+02  0.97634068071E+01  0.20165008357E+02  0.00000000000E+00 0.  1.
         12    1    6    6    0    0 -0.11927732207E+03  0.48845664621E+02  0.23280164000E+03  0.26610069917E+03  0.00000000000E+00 0. -1.
         -5    1    3    3    0  503 -0.31644959277E+02 -0.57161218728E+02  0.29153344819E+02  0.71699483180E+02  0.47000000000E+01 0.  1.
         13    1    4    4    0    0  0.12659704093E+02  0.80283785966E+01 -0.31316364861E+01  0.15314376177E+02  0.00000000000E+00 0. -1.
        -14    1    4    4    0    0  0.11910650388E+03 -0.12106170087E+03 -0.72620721639E+02  0.18470534344E+03  0.00000000000E+00 0.  1.
</event>
<event>
12    1  0.8406581E-002  0.4648616E+03  0.7818608E-02  0.1023409E+00
         21   -1    0    0  501  502  0.00000000000E+00  0.00000000000E+00  0.27618018589E+03  0.27618018589E+03  0.00000000000E+00 0.  1.
         21   -1    0    0  502  503 -0.00000000000E+00 -0.00000000000E+00 -0.78372820602E+03  0.78372820602E+03  0.00000000000E+00 0.  1.
         -6    2    1    2    0  503  0.43141482248E+03  0.10097692575E+02 -0.28032896903E+03  0.54284493282E+03  0.17284553153E+03 0.  0.
        -24    2    3    3    0    0  0.41069857112E+03  0.47745151515E+02 -0.25402191635E+03  0.49224211417E+03  0.82596907731E+02 0.  0.
          6    2    1    2  501    0 -0.43141482248E+03 -0.10097692575E+02 -0.22721905110E+03  0.51706345909E+03  0.17177139195E+03 0.  0.
         24    2    5    5    0    0 -0.35461908341E+03 -0.52860860160E+02 -0.13886767737E+03  0.39234646232E+03  0.78118818653E+02 0.  0.
          5    1    5    5  501    0 -0.76795739069E+02  0.42763167585E+02 -0.88351373732E+02  0.12471699676E+03  0.47000000000E+01 0. -1.
        -11    1    6    6    0    0 -0.19353084917E+03  0.47923592117E+01 -0.95382693642E+02  0.21581245222E+03  0.00000000000E+00 0.  1.
         12    1    6    6    0    0 -0.16108823424E+03 -0.57653219372E+02 -0.43484983725E+02  0.17653401011E+03  0.00000000000E+00 0. -1.
         -5    1    3    3    0  503  0.20716251359E+02 -0.37647458940E+02 -0.26307052679E+02  0.50602818653E+02  0.47000000000E+01 0.  1.
         13    1    4    4    0    0  0.18792616485E+03  0.41589775717E+02 -0.75706908324E+02  0.20682719562E+03  0.00000000000E+00 0. -1.
        -14    1    4    4    0    0  0.22277240627E+03  0.61553757976E+01 -0.17831500803E+03  0.28541491855E+03  0.00000000000E+00 0.  1.
</event>
<event>
12    1  0.8406581E-002  0.1788365E+03  0.7818608E-02  0.1169454E+00
         21   -1    0    0  503  502  0.00000000000E+00  0.00000000000E+00  0.17522132385E+03  0.17522132385E+03  0.00000000000E+00 0. -1.
         21   -1    0    0  501  503 -0.00000000000E+00 -0.00000000000E+00 -0.49230269852E+03  0.49230269852E+03  0.00000000000E+00 0. -1.
          6    2    1    2  501    0  0.46074066283E+02  0.18330007377E+01 -0.42456079985E+03  0.46068901740E+03  0.17278981022E+03 0.  0.
         24    2    3    3    0    0 -0.33935563296E+02 -0.13178025999E+02 -0.29053941701E+03  0.30381106228E+03  0.81010652986E+02 0.  0.
         -6    2    1    2    0  502 -0.46074066283E+02 -0.18330007377E+01  0.10747942517E+03  0.20683500496E+03  0.17059517274E+03 0.  0.
        -24    2    5    5    0    0 -0.46053070773E+01  0.11586605218E+02  0.13344180194E+03  0.15588523733E+03  0.79611773240E+02 0.  0.
          5    1    3    3  501    0  0.80009629580E+02  0.15011026737E+02 -0.13402138283E+03  0.15687795513E+03  0.47000000000E+01 0. -1.
        -13    1    4    4    0    0 -0.41226060134E+02  0.15016183384E+02 -0.79778062193E+02  0.91047311903E+02  0.00000000000E+00 0.  1.
         14    1    4    4    0    0  0.72904968370E+01 -0.28194209383E+02 -0.21076135482E+03  0.21276375037E+03  0.00000000000E+00 0. -1.
         -5    1    5    5    0  502 -0.41468759206E+02 -0.13419605956E+02 -0.25962376764E+02  0.50949767628E+02  0.47000000000E+01 0.  1.
         11    1    6    6    0    0 -0.34377020565E+02 -0.26999390879E+01  0.11029206902E+03  0.11555695437E+03  0.00000000000E+00 0. -1.
        -12    1    6    6    0    0  0.29771713488E+02  0.14286544306E+02  0.23149732915E+02  0.40328282957E+02  0.00000000000E+00 0.  1.
</event>
<event>
12    1  0.8406581E-002  0.2100023E+03  0.7818608E-02  0.1141667E+00
         21   -1    0    0  501  502  0.00000000000E+00  0.00000000000E+00  0.15047588747E+03  0.15047588747E+03  0.00000000000E+00 0.  1.
         21   -1    0    0  502  503 -0.00000000000E+00 -0.00000000000E+00 -0.30353706077E+03  0.30353706077E+03  0.00000000000E+00 0. -1.
         -6    2    1    2    0  503  0.94966657843E+02  0.72138531412E+02 -0.12001144303E+03  0.24142586583E+03  0.17222389038E+03 0.  0.
        -24    2    3    3    0    0  0.44286520142E+02  0.16125365529E+02 -0.13569664855E+03  0.16413377838E+03  0.79403989190E+02 0.  0.
          6    2    1    2  501    0 -0.94966657843E+02 -0.72138531412E+02 -0.33049730272E+02  0.21258708241E+03  0.17285354818E+03 0.  0.
         24    2    5    5    0    0  0.10237298611E+02 -0.16352396524E+02 -0.45770097168E+02  0.92737747687E+02  0.78314653139E+02 0.  0.
          5    1    5    5  501    0 -0.10520395645E+03 -0.55786134887E+02  0.12720366896E+02  0.11984933472E+03  0.47000000000E+01 0. -1.
        -11    1    6    6    0    0  0.19355049464E+02  0.28437380616E+02 -0.14353239368E+02  0.37273556798E+02  0.00000000000E+00 0.  1.
         12    1    6    6    0    0 -0.91177508536E+01 -0.44789777140E+02 -0.31416857801E+02  0.55464190889E+02  0.00000000000E+00 0. -1.
         -5    1    3    3    0  503  0.50680137701E+02  0.56013165883E+02  0.15685205521E+02  0.77292087446E+02  0.47000000000E+01 0.  1.
         11    1    4    4    0    0 -0.13723522874E+02  0.53888209837E+01 -0.85236357583E+02  0.86502087407E+02  0.00000000000E+00 0. -1.
        -12    1    4    4    0    0  0.58010043016E+02  0.10736544545E+02 -0.50460290964E+02  0.77631690975E+02  0.00000000000E+00 0.  1.
</event>
<event>
12    1  0.8406581E-002  0.2132968E+03  0.7818608E-02  0.1139110E+00
         21   -1    0    0  501  502  0.00000000000E+00  0.00000000000E+00  0.20642820051E+03  0.20642820051E+03  0.00000000000E+00 0.  1.
         21   -1    0    0  502  503 -0.00000000000E+00 -0.00000000000E+00 -0.31852485074E+03  0.31852485074E+03  0.00000000000E+00 0. -1.
         -6    2    1    2    0  503 -0.10629526311E+03 -0.65060514139E+02 -0.20230018513E+03  0.29397428330E+03  0.17310101350E+03 0.  0.
        -24    2    3    3    0    0 -0.13149041811E+03 -0.37969397044E+02 -0.12615772358E+03  0.20918932643E+03  0.95462023360E+02 0.  0.
          6    2    1    2  501    0  0.10629526311E+03  0.65060514139E+02  0.90203534903E+02  0.23097876795E+03  0.17228743446E+03 0.  0.
         24    2    5    5    0    0  0.74468903600E+02 -0.24042496781E+02  0.46526973127E+02  0.12666196315E+03  0.88061537722E+02 0.  0.
          5    1    5    5  501    0  0.31826359511E+02  0.89103010920E+02  0.43676561776E+02  0.10431680480E+03  0.47000000000E+01 0. -1.
        -13    1    6    6    0    0  0.62353673019E+02 -0.25160841666E+02  0.71949942625E+02  0.98477625560E+02  0.00000000000E+00 0.  1.
         14    1    6    6    0    0  0.12115230580E+02  0.11183448848E+01 -0.25422969498E+02  0.28184337590E+02  0.00000000000E+00 0. -1.
         -5    1    3    3    0  503  0.25195155001E+02 -0.27091117095E+02 -0.76142461547E+02  0.84784956870E+02  0.47000000000E+01 0.  1.
         11    1    4    4    0    0 -0.41843590116E+02 -0.61114193982E+02 -0.61345534437E+02  0.96172269055E+02  0.00000000000E+00 0. -1.
        -12    1    4    4    0    0 -0.89646827995E+02  0.23144796938E+02 -0.64812189145E+02  0.11301705737E+03  0.00000000000E+00 0.  1.
</event>
<event>
12    1  0.8406581E-002  0.2195527E+03  0.7818608E-02  0.1134219E+00
         21   -1    0    0  501  502  0.00000000000E+00  0.00000000000E+00  0.79494166284E+03  0.79494166284E+03  0.00000000000E+00 0.  1.
         21   -1    0    0  502  503 -0.00000000000E+00 -0.00000000000E+00 -0.91729014781E+02  0.91729014781E+02  0.00000000000E+00 0. -1.
         -6    2    1    2    0  503  0.13461748564E+03  0.10844884895E+02  0.60972802931E+03  0.64805221821E+03  0.17310092094E+03 0.  0.
        -24    2    3    3    0    0  0.46036641257E+02 -0.51864663941E+02  0.37400533137E+03  0.38850196521E+03  0.79021980341E+02 0.  0.
          6    2    1    2  501    0 -0.13461748564E+03 -0.10844884895E+02  0.93484618750E+02  0.23861845941E+03  0.17308933030E+03 0.  0.
         24    2    5    5    0    0 -0.88090016058E+02 -0.67366079258E+02  0.88179408952E+02  0.16506789117E+03  0.84698057646E+02 0.  0.
          5    1    5    5  501    0 -0.46527469580E+02  0.56521194363E+02  0.53052097978E+01  0.73550568242E+02  0.47000000000E+01 0. -1.
        -13    1    6    6    0    0 -0.19062167996E+02 -0.66602442380E+02  0.33220146633E+02  0.76829875192E+02  0.00000000000E+00 0.  1.
         14    1    6    6    0    0 -0.69027848062E+02 -0.76363687768E+00  0.54959262319E+02  0.88238015979E+02  0.00000000000E+00 0. -1.
         -5    1    3    3    0  503  0.88580844381E+02  0.62709548836E+02  0.23572269794E+03  0.25955025300E+03  0.47000000000E+01 0.  1.
         13    1    4    4    0    0 -0.24170760733E-01 -0.58515843151E+02  0.20064089188E+03  0.20899969373E+03  0.00000000000E+00 0. -1.
        -14    1    4    4    0    0  0.46060812018E+02  0.66511792095E+01  0.17336443949E+03  0.17950227149E+03  0.00000000000E+00 0.  1.
</event>
<event>
12    1  0.8406581E-002  0.2205412E+03  0.7818608E-02  0.1133591E+00
         21   -1    0    0  501  502  0.00000000000E+00  0.00000000000E+00  0.35884666565E+03  0.35884666565E+03  0.00000000000E+00 0. -1.
         21   -1    0    0  502  503 -0.00000000000E+00 -0.00000000000E+00 -0.26644002936E+03  0.26644002936E+03  0.00000000000E+00 0. -1.
         -6    2    1    2    0  503 -0.20942177915E+02 -0.13715894752E+03 -0.17327205564E+03  0.27999898699E+03  0.17066070358E+03 0.  0.
        -24    2    3    3    0    0 -0.30986082397E+02 -0.14200257806E+03 -0.19452353256E+03  0.25554380256E+03  0.79613823122E+02 0.  0.
          6    2    1    2  501    0  0.20942177915E+02  0.13715894752E+03  0.26567869193E+03  0.34528770802E+03  0.17142719231E+03 0.  0.
         24    2    5    5    0    0  0.57048952979E+02  0.23430833458E+02  0.12043106564E+03  0.15725381194E+03  0.80134467022E+02 0.  0.
          5    1    5    5  501    0 -0.36106775064E+02  0.11372811406E+03  0.14524762629E+03  0.18803389608E+03  0.47000000000E+01 0. -1.
        -11    1    6    6    0    0  0.30908329424E+02  0.55718757500E+01 -0.13395218142E+01  0.31435090995E+02  0.00000000000E+00 0.  1.
         12    1    6    6    0    0  0.26140623555E+02  0.17858957708E+02  0.12177058746E+03  0.12581872095E+03  0.00000000000E+00 0. -1.
         -5    1    3    3    0  503  0.10043904482E+02  0.48436305370E+01  0.21251476917E+02  0.24455184424E+02  0.47000000000E+01 0.  1.
         11    1    4    4    0    0 -0.23832556193E+02 -0.15034133540E+03 -0.16729164238E+03  0.22617913580E+03  0.00000000000E+00 0. -1.
        -12    1    4    4    0    0 -0.71535262038E+01  0.83387573389E+01 -0.27231890178E+02  0.29364666758E+02  0.00000000000E+00 0.  1.
</event>
<event>
12    1  0.8406581E-002  0.1762135E+03  0.7818608E-02  0.1171777E+00
         21   -1    0    0  503  502  0.00000000000E+00  0.00000000000E+00  0.14275161655E+03  0.14275161655E+03  0.00000000000E+00 0.  1.
         21   -1    0    0  501  503 -0.00000000000E+00 -0.00000000000E+00 -0.21691595294E+03  0.21691595294E+03  0.00000000000E+00 0. -1.
          6    2    1    2  501    0 -0.34638043167E+02 -0.10913961529E+02 -0.26950677547E+02  0.17723862044E+03  0.17137176245E+03 0.  0.
         24    2    3    3    0    0 -0.25948054536E+02 -0.21900709275E+02  0.49882364246E+02  0.98997768966E+02  0.78481624578E+02 0.  0.
         -6    2    1    2    0  502  0.34638043167E+02  0.10913961529E+02 -0.47213658846E+02  0.18242894904E+03  0.17243051724E+03 0.  0.
        -24    2    5    5    0    0  0.69953212301E+02 -0.12856973870E+02 -0.74331892620E+02  0.13173667011E+03  0.82283450964E+02 0.  0.
          5    1    3    3  501    0 -0.86899886315E+01  0.10986747746E+02 -0.76833041794E+02  0.78240851476E+02  0.47000000000E+01 0. -1.
        -13    1    4    4    0    0 -0.20390769872E+02 -0.50719780834E+02  0.23387842822E+02  0.59458143729E+02  0.00000000000E+00 0.  1.
         14    1    4    4    0    0 -0.55572846636E+01  0.28819071559E+02  0.26494521424E+02  0.39539625237E+02  0.00000000000E+00 0. -1.
         -5    1    5    5    0  502 -0.35315169134E+02  0.23770935399E+02  0.27118233775E+02  0.50692278936E+02  0.47000000000E+01 0.  1.
         11    1    6    6    0    0  0.27374272703E+01  0.16053092296E+02 -0.53111911286E+02  0.55552411296E+02  0.00000000000E+00 0. -1.
        -12    1    6    6    0    0  0.67215785031E+02 -0.28910066166E+02 -0.21219981334E+02  0.76184258813E+02  0.00000000000E+00 0.  1.
</event>
<event>
12    1  0.8406581E-002  0.2158413E+03  0.7818608E-02  0.1140898E+00
         21   -1    0    0  503  502  0.00000000000E+00  0.00000000000E+00  0.95983552465E+02  0.95983552465E+02  0.00000000000E+00 0. -1.
         21   -1    0    0  501  503 -0.00000000000E+00 -0.00000000000E+00 -0.63515750000E+03  0.63515750000E+03  0.00000000000E+00 0. -1.
          6    2    1    2  501    0 -0.32843761903E+02 -0.88949473600E+02 -0.47933813954E+03  0.52569241695E+03  0.19389879750E+03 0.  0.
         24    2    3    3    0    0 -0.24191321727E+02  0.30188097619E+02 -0.14319019656E+03  0.16892056385E+03  0.80834294793E+02 0.  0.
         -6    2    1    2    0  502  0.32843761903E+02  0.88949473600E+02 -0.59835808001E+02  0.20544863552E+03  0.17215718506E+03 0.  0.
        -24    2    5    5    0    0  0.34276578154E+02  0.34965301536E+02  0.31436258564E+02  0.99292976553E+02  0.80457446634E+02 0.  0.
          5    1    3    3  501    0 -0.86524401764E+01 -0.11913757122E+03 -0.33614794298E+03  0.35677185310E+03  0.47000000000E+01 0. -1.
        -13    1    4    4    0    0 -0.38233642757E+01 -0.19205415389E+02 -0.42173766512E+01  0.20031284544E+02  0.00000000000E+00 0.  1.
         14    1    4    4    0    0 -0.20367957451E+02  0.49393513008E+02 -0.13897281991E+03  0.14888927930E+03  0.00000000000E+00 0. -1.
         -5    1    5    5    0  502 -0.14328162504E+01  0.53984172063E+02 -0.91272066565E+02  0.10615565897E+03  0.47000000000E+01 0.  1.
         11    1    6    6    0    0  0.51850878635E+02  0.42333002529E+02  0.40452676488E+02  0.78211353098E+02  0.00000000000E+00 0. -1.
        -12    1    6    6    0    0 -0.17574300481E+02 -0.73677009930E+01 -0.90164179240E+01  0.21081623455E+02  0.00000000000E+00 0.  1.
</event>
<event>
12    1  0.8406581E-002  0.2438039E+03  0.7818608E-02  0.1117448E+00
         21   -1    0    0  501  502  0.00000000000E+00  0.00000000000E+00  0.50633450503E+03  0.50633450503E+03  0.00000000000E+00 0. -1.
         21   -1    0    0  502  503 -0.00000000000E+00 -0.00000000000E+00 -0.12335016043E+03  0.12335016043E+03  0.00000000000E+00 0. -1.
         -6    2    1    2    0  503 -0.16921818447E+03 -0.29496497553E+02  0.11994428876E+03  0.27171118490E+03  0.17301878010E+03 0.  0.
        -24    2    3    3    0    0 -0.71136950211E+02 -0.79443049755E+02  0.60599627638E+02  0.14657739492E+03  0.80255554271E+02 0.  0.
          6    2    1    2  501    0  0.16921818447E+03  0.29496497553E+02  0.26304005584E+03  0.35797348057E+03  0.17161032746E+03 0.  0.
         24    2    5    5    0    0  0.39999630025E+02  0.10798712905E+02  0.18302788477E+03  0.20477074076E+03  0.81946733112E+02 0.  0.
          5    1    5    5  501    0  0.12921855445E+03  0.18697784648E+02  0.80012171072E+02  0.15320273980E+03  0.47000000000E+01 0. -1.
        -13    1    6    6    0    0 -0.86927751999E+01 -0.15895177310E+02  0.57622528145E+01  0.19011169346E+02  0.00000000000E+00 0.  1.
         14    1    6    6    0    0  0.48692405225E+02  0.26693890215E+02  0.17726563195E+03  0.18575957142E+03  0.00000000000E+00 0. -1.
         -5    1    3    3    0  503 -0.98081234261E+02  0.49946552202E+02  0.59344661123E+02  0.12513378998E+03  0.47000000000E+01 0.  1.
         13    1    4    4    0    0 -0.11613822391E+02  0.49003612791E+01  0.39165246058E+02  0.41143783370E+02  0.00000000000E+00 0. -1.
        -14    1    4    4    0    0 -0.59523127820E+02 -0.84343411034E+02  0.21434381580E+02  0.10543361155E+03  0.00000000000E+00 0.  1.
</event>
<event>
12    1  0.8406581E-002  0.2011993E+03  0.7818608E-02  0.1149013E+00
         21   -1    0    0  503  502  0.00000000000E+00  0.00000000000E+00  0.31234856431E+03  0.31234856431E+03  0.00000000000E+00 0.  1.
         21   -1    0    0  501  503 -0.00000000000E+00 -0.00000000000E+00 -0.12909932160E+03  0.12909932160E+03  0.00000000000E+00 0.  1.
          6    2    1    2  501    0 -0.85615095011E+02 -0.57162561937E+02  0.10357187541E+03  0.22629249126E+03  0.17286889612E+03 0.  0.
         24    2    3    3    0    0  0.12912819100E+02  0.20144139875E+02  0.76839192083E+02  0.98148812675E+02  0.56181854019E+02 0.  0.
         -6    2    1    2    0  502  0.85615095011E+02  0.57162561937E+02  0.79677367305E+02  0.21515539465E+03  0.17130632798E+03 0.  0.
        -24    2    5    5    0    0 -0.19419538082E+02  0.32272525596E+02  0.12411312495E+02  0.87881673138E+02  0.78425209136E+02 0.  0.
          5    1    3    3  501    0 -0.98527914111E+02 -0.77306701812E+02  0.26732683324E+02  0.12814367859E+03  0.47000000000E+01 0. -1.
        -11    1    4    4    0    0 -0.18542808493E+02 -0.19976519532E+01  0.43176740191E+02  0.47032512730E+02  0.00000000000E+00 0.  1.
         12    1    4    4    0    0  0.31455627593E+02  0.22141791829E+02  0.33662451892E+02  0.51116299945E+02  0.00000000000E+00 0. -1.
         -5    1    5    5    0  502  0.10503463309E+03  0.24890036341E+02  0.67266054810E+02  0.12727372151E+03  0.47000000000E+01 0.  1.
         11    1    6    6    0    0 -0.19948663596E+02 -0.66799881543E+01 -0.25816074086E+02  0.33302268725E+02  0.00000000000E+00 0. -1.
        -12    1    6    6    0    0  0.52912551360E+00  0.38952513751E+02  0.38227386581E+02  0.54579404414E+02  0.00000000000E+00 0.  1.
</event>
<event>
12    1  0.8406581E-002  0.1881244E+03  0.7818608E-02  0.1161566E+00
         21   -1    0    0  503  502  0.00000000000E+00  0.00000000000E+00  0.20750545411E+04  0.20750545411E+04  0.00000000000E+00 0.  1.
         21   -1    0    0  501  503 -0.00000000000E+00 -0.00000000000E+00 -0.16690423069E+02  0.16690423069E+02  0.00000000000E+00 0. -1.
          6    2    1    2  501    0 -0.37393797285E+02 -0.48126271880E+02  0.90473802575E+03  0.92288057563E+03  0.17159028966E+03 0.  0.
         24    2    3    3    0    0  0.44480639712E+01 -0.90556163080E+02  0.64357179654E+03  0.65496094905E+03  0.81049266135E+02 0.  0.
         -6    2    1    2    0  502  0.37393797285E+02  0.48126271880E+02  0.11536260923E+04  0.11688643885E+04  0.17797854899E+03 0.  0.
        -24    2    5    5    0    0  0.73855678287E+02 -0.13220390564E+02  0.67532708728E+03  0.68524789798E+03  0.88704943123E+02 0.  0.
          5    1    3    3  501    0 -0.41841861256E+02  0.42429891200E+02  0.26116622922E+03  0.26791962657E+03  0.47000000000E+01 0. -1.
        -11    1    4    4    0    0 -0.10624821123E+02 -0.35585893434E+02  0.48564213030E+03  0.48706007983E+03  0.00000000000E+00 0.  1.
         12    1    4    4    0    0  0.15072885094E+02 -0.54970269646E+02  0.15792966623E+03  0.16790086923E+03  0.00000000000E+00 0. -1.
         -5    1    5    5    0  502 -0.36461881003E+02  0.61346662444E+02  0.47829900499E+03  0.48361649055E+03  0.47000000000E+01 0.  1.
         11    1    6    6    0    0  0.94716365670E+01 -0.18145000557E+02  0.27869570538E+02  0.34578402312E+02  0.00000000000E+00 0. -1.
        -12    1    6    6    0    0  0.64384041720E+02  0.49246099931E+01  0.64745751674E+03  0.65066949567E+03  0.00000000000E+00 0.  1.
</event>
<event>
12    1  0.8406581E-002  0.2065491E+03  0.7818608E-02  0.1144927E+00
         21   -1    0    0  501  502  0.00000000000E+00  0.00000000000E+00  0.14479973508E+03  0.14479973508E+03  0.00000000000E+00 0. -1.
         21   -1    0    0  502  503 -0.00000000000E+00 -0.00000000000E+00 -0.32040462704E+03  0.32040462704E+03  0.00000000000E+00 0.  1.
         -6    2    1    2    0  503  0.12735782176E+02  0.10994345774E+03 -0.15948691114E+03  0.26095712179E+03  0.17439260460E+03 0.  0.
        -24    2    3    3    0    0  0.10360490851E+02 -0.14782793112E+02 -0.61502149248E+02  0.10225808832E+03  0.79676417597E+02 0.  0.
          6    2    1    2  501    0 -0.12735782176E+02 -0.10994345774E+03 -0.16117980815E+02  0.20424724032E+03  0.17090167297E+03 0.  0.
         24    2    5    5    0    0 -0.19426633177E+02 -0.42759430534E+01 -0.36530387745E+02  0.96316023779E+02  0.86871338439E+02 0.  0.
          5    1    5    5  501    0  0.66908510013E+01 -0.10566751469E+03  0.20412406930E+02  0.10793121654E+03  0.47000000000E+01 0. -1.
        -13    1    6    6    0    0 -0.50230361733E+02 -0.15905327319E+02 -0.91155705244E+01  0.53471135232E+02  0.00000000000E+00 0.  1.
         14    1    6    6    0    0  0.30803728556E+02  0.11629384266E+02 -0.27414817221E+02  0.42844888547E+02  0.00000000000E+00 0. -1.
         -5    1    3    3    0  503  0.23752913250E+01  0.12472625086E+03 -0.97984761896E+02  0.15869903347E+03  0.47000000000E+01 0.  1.
         13    1    4    4    0    0  0.33014560654E+02 -0.88055496381E+01  0.23437991372E+01  0.34248975372E+02  0.00000000000E+00 0. -1.
        -14    1    4    4    0    0 -0.22654069804E+02 -0.59772434734E+01 -0.63845948385E+02  0.68009112944E+02  0.00000000000E+00 0.  1.
</event>
<event>
12    1  0.8406581E-002  0.1946335E+03  0.7818608E-02  0.1158227E+00
         21   -1    0    0  503  502  0.00000000000E+00  0.00000000000E+00  0.23425960028E+03  0.23425960028E+03  0.00000000000E+00 0. -1.
         21   -1    0    0  501  503 -0.00000000000E+00 -0.00000000000E+00 -0.17564628452E+03  0.17564628452E+03  0.00000000000E+00 0. -1.
          6    2    1    2  501    0 -0.65296100618E+02 -0.60375414854E+02 -0.50867589950E+02  0.20117081577E+03  0.17312831639E+03 0.  0.
         24    2    3    3    0    0 -0.74250339896E+02 -0.31817913707E+02  0.33481173689E+02  0.11154652665E+03  0.69254212937E+02 0.  0.
         -6    2    1    2    0  502  0.65296100618E+02  0.60375414854E+02  0.10948090570E+03  0.20873506902E+03  0.15386841408E+03 0.  0.
        -24    2    5    5    0    0 -0.16765809791E+02 -0.94953204114E+01  0.44180307380E+02  0.82630608645E+02  0.67116796982E+02 0.  0.
          5    1    3    3  501    0  0.89542392779E+01 -0.28557501147E+02 -0.84348763639E+02  0.89624289120E+02  0.47000000000E+01 0. -1.
        -13    1    4    4    0    0  0.38710580025E+01 -0.14258696221E+01  0.27173165449E+02  0.27484525005E+02  0.00000000000E+00 0.  1.
         14    1    4    4    0    0 -0.78121397898E+02 -0.30392044084E+02  0.63080082400E+01  0.84062001648E+02  0.00000000000E+00 0. -1.
         -5    1    5    5    0  502  0.82061910409E+02  0.69870735265E+02  0.65300598323E+02  0.12610446038E+03  0.47000000000E+01 0.  1.
         13    1    6    6    0    0  0.14450952432E+02 -0.86051695359E+01  0.48286987451E+02  0.51132300223E+02  0.00000000000E+00 0. -1.
        -14    1    6    6    0    0 -0.31216762223E+02 -0.89015087551E+00 -0.41066800712E+01  0.31498308422E+02  0.00000000000E+00 0.  1.
</event>
<event>
12    1  0.8406581E-002  0.2449253E+03  0.7818608E-02  0.1117905E+00
         21   -1    0    0  503  502  0.00000000000E+00  0.00000000000E+00  0.27042941866E+03  0.27042941866E+03  0.00000000000E+00 0.  1.
         21   -1    0    0  501  503 -0.00000000000E+00 -0.00000000000E+00 -0.21982341149E+03  0.21982341149E+03  0.00000000000E+00 0.  1.
          6    2    1    2  501    0  0.12692034940E+03 -0.91320501974E+02 -0.12477289756E+02  0.24524294728E+03  0.18852111621E+03 0.  0.
         24    2    3    3    0    0  0.59760684965E+02 -0.32435324208E+02  0.66288953756E+02  0.12606201002E+03  0.82909681318E+02 0.  0.
         -6    2    1    2    0  502 -0.12692034940E+03  0.91320501974E+02  0.63083296924E+02  0.24500988288E+03  0.17776988267E+03 0.  0.
        -24    2    5    5    0    0 -0.92213539868E+02  0.65394351744E+02  0.11379747541E+03  0.17814624707E+03  0.77501366187E+02 0.  0.
          5    1    3    3  501    0  0.67159664439E+02 -0.58885177765E+02 -0.78766243513E+02  0.11918093726E+03  0.47000000000E+01 0. -1.
        -13    1    4    4    0    0  0.44278783580E+02  0.22837780983E+02  0.30250221715E+02  0.58285940238E+02  0.00000000000E+00 0.  1.
         14    1    4    4    0    0  0.15481901385E+02 -0.55273105192E+02  0.36038732041E+02  0.67776069782E+02  0.00000000000E+00 0. -1.
         -5    1    5    5    0  502 -0.34706809537E+02  0.25926150230E+02 -0.50714178487E+02  0.66863635809E+02  0.47000000000E+01 0.  1.
         11    1    6    6    0    0 -0.43083050963E+02  0.43960819302E+02  0.11445082609E+02  0.62607450275E+02  0.00000000000E+00 0. -1.
        -12    1    6    6    0    0 -0.49130488905E+02  0.21433532442E+02  0.10235239280E+03  0.11553879680E+03  0.00000000000E+00 0.  1.
</event>
<event>
12    1  0.8406581E-002  0.2895086E+03  0.7818608E-02  0.1090851E+00
         21   -1    0    0  503  502  0.00000000000E+00  0.00000000000E+00  0.51919194927E+02  0.51919194927E+02  0.00000000000E+00 0. -1.
         21   -1    0    0  501  503 -0.00000000000E+00 -0.00000000000E+00 -0.21046831299E+04  0.21046831299E+04  0.00000000000E+00 0.  1.
          6    2    1    2  501    0  0.19573112233E+03 -0.12063727819E+03 -0.15498043826E+04  0.15762717732E+04  0.17284401541E+03 0.  0.
         24    2    3    3    0    0  0.20045983243E+03 -0.14626415526E+03 -0.14078969078E+04  0.14319148582E+04  0.81419349665E+02 0.  0.
         -6    2    1    2    0  502 -0.19573112233E+03  0.12063727819E+03 -0.50295955240E+03  0.58033055161E+03  0.17592956728E+03 0.  0.
        -24    2    5    5    0    0 -0.21172500985E+03  0.12873374577E+03 -0.41142943367E+03  0.48694313351E+03  0.80246989238E+02 0.  0.
          5    1    3    3  501    0 -0.47287101012E+01  0.25626877076E+02 -0.14190747477E+03  0.14435691505E+03  0.47000000000E+01 0. -1.
        -13    1    4    4    0    0  0.69710362341E+02 -0.42643312302E+02 -0.69342603725E+03  0.69822464569E+03  0.00000000000E+00 0.  1.
         14    1    4    4    0    0  0.13074947009E+03 -0.10362084296E+03 -0.71447087057E+03  0.73369021250E+03  0.00000000000E+00 0. -1.
         -5    1    5    5    0  502  0.15993887520E+02 -0.80964675833E+01 -0.91530118728E+02  0.93387418101E+02  0.47000000000E+01 0.  1.
         11    1    6    6    0    0 -0.10250805707E+03  0.36051586677E+02 -0.11796038681E+03  0.16038164335E+03  0.00000000000E+00 0. -1.
        -12    1    6    6    0    0 -0.10921695278E+03  0.92682159094E+02 -0.29346904686E+03  0.32656149016E+03  0.00000000000E+00 0.  1.
</event>
<event>
12    1  0.8406581E-002  0.1976430E+03  0.7818608E-02  0.1152075E+00
         21   -1    0    0  503  502  0.00000000000E+00  0.00000000000E+00  0.37672567760E+02  0.37672567760E+02  0.00000000000E+00 0. -1.
         21   -1    0    0  501  503 -0.00000000000E+00 -0.00000000000E+00 -0.15508019689E+04  0.15508019689E+04  0.00000000000E+00 0.  1.
          6    2    1    2  501    0  0.26501209776E+02  0.90019775618E+02 -0.12193098211E+04  0.12352243579E+04  0.17394510722E+03 0.  0.
         24    2    3    3    0    0  0.20220559652E+02  0.11457882905E+03 -0.85086989666E+03  0.86588351042E+03  0.11062320501E+03 0.  0.
         -6    2    1    2    0  502 -0.26501209776E+02 -0.90019775618E+02 -0.29381958002E+03  0.35325017877E+03  0.17219137341E+03 0.  0.
        -24    2    5    5    0    0 -0.17728657633E+02  0.16098629248E+02 -0.77677851097E+02  0.11225762597E+03  0.77423865005E+02 0.  0.
          5    1    3    3  501    0  0.62806501249E+01 -0.24559053428E+02 -0.36843992444E+03  0.36934084745E+03  0.47000000000E+01 0. -1.
        -11    1    4    4    0    0  0.44744988007E+02  0.25851503550E+02 -0.51633122719E+03  0.51891073448E+03  0.00000000000E+00 0.  1.
         12    1    4    4    0    0 -0.24524428356E+02  0.88727325496E+02 -0.33453866946E+03  0.34697277594E+03  0.00000000000E+00 0. -1.
         -5    1    5    5    0  502 -0.87725521437E+01 -0.10611840487E+03 -0.21614172893E+03  0.24099255280E+03  0.47000000000E+01 0.  1.
         13    1    6    6    0    0 -0.39476301532E+02  0.41401141616E+01 -0.11117000928E+02  0.41220221222E+02  0.00000000000E+00 0. -1.
        -14    1    6    6    0    0  0.21747643899E+02  0.11958515087E+02 -0.66560850169E+02  0.71037404749E+02  0.00000000000E+00 0.  1.
</event>
<event>
12    1  0.8406581E-002  0.2805618E+03  0.7818608E-02  0.1095445E+00
         21   -1    0    0  503  502  0.00000000000E+00  0.00000000000E+00  0.34557194092E+03  0.34557194092E+03  0.00000000000E+00 0. -1.
         21   -1    0    0  501  503 -0.00000000000E+00 -0.00000000000E+00 -0.24520733524E+03  0.24520733524E+03  0.00000000000E+00 0.  1.
          6    2    1    2  501    0  0.43999477152E+02  0.21727129193E+03 -0.29362328557E+02  0.28209406637E+03  0.17196554206E+03 0.  0.
         24    2    3    3    0    0  0.36762711595E+02  0.72457676279E+02  0.40282965741E+02  0.12117200116E+03  0.80363702758E+02 0.  0.
         -6    2    1    2    0  502 -0.43999477152E+02 -0.21727129193E+03  0.12972693424E+03  0.30868520979E+03  0.17121539939E+03 0.  0.
        -24    2    5    5    0    0  0.12159131400E+02 -0.17251714740E+03  0.13917550514E+03  0.23610361254E+03  0.80405746064E+02 0.  0.
          5    1    3    3  501    0  0.72367655564E+01  0.14481361565E+03 -0.69645294298E+02  0.16092206521E+03  0.47000000000E+01 0. -1.
        -13    1    4    4    0    0  0.13120247083E+02  0.29713734758E+02 -0.24035752264E+02  0.40407478314E+02  0.00000000000E+00 0.  1.
         14    1    4    4    0    0  0.23642464513E+02  0.42743941521E+02  0.64318718005E+02  0.80764522847E+02  0.00000000000E+00 0. -1.
         -5    1    5    5    0  502 -0.56158608552E+02 -0.44754144532E+02 -0.94485708971E+01  0.72581597249E+02  0.47000000000E+01 0.  1.
         11    1    6    6    0    0  0.21329552040E+02 -0.11775269377E+03  0.47147759247E+02  0.12862176286E+03  0.00000000000E+00 0. -1.
        -12    1    6    6    0    0 -0.91704206400E+01 -0.54764453635E+02  0.92027745892E+02  0.10748184968E+03  0.00000000000E+00 0.  1.
</event>
<event>
12    1  0.8406581E-002  0.1784121E+03  0.7818608E-02  0.1169605E+00
         21   -1    0    0  503  502  0.00000000000E+00  0.00000000000E+00  0.39055390243E+03  0.39055390243E+03  0.00000000000E+00 0.  1.
         21   -1    0    0  501  503 -0.00000000000E+00 -0.00000000000E+00 -0.10594201320E+03  0.10594201320E+03  0.00000000000E+00 0.  1.
          6    2    1    2  501    0  0.39382976184E+02 -0.21253998997E+02  0.22236267816E+02  0.17979245805E+03  0.17270820791E+03 0.  0.
         24    2    3    3    0    0  0.42080043591E+02  0.99575538769E+01 -0.48326710970E+02  0.10244480663E+03  0.79306900483E+02 0.  0.
         -6    2    1    2    0  502 -0.39382976184E+02  0.21253998997E+02  0.26237562142E+03  0.31670345758E+03  0.17163147158E+03 0.  0.
        -24    2    5    5    0    0 -0.79295869434E+02 -0.84160545424E+01  0.13195836077E+03  0.17704636681E+03  0.87027249416E+02 0.  0.
          5    1    3    3  501    0 -0.26970674077E+01 -0.31211552874E+02  0.70562978786E+02  0.77347651423E+02  0.47000000000E+01 0. -1.
        -11    1    4    4    0    0  0.98456341807E+01  0.39442832981E+02 -0.41739256788E+02  0.58265248160E+02  0.00000000000E+00 0.  1.
         12    1    4    4    0    0  0.32234409411E+02 -0.29485279104E+02 -0.65874541821E+01  0.44179558469E+02  0.00000000000E+00 0. -1.
         -5    1    5    5    0  502  0.39912893251E+02  0.29670053540E+02  0.13041726066E+03  0.13965709077E+03  0.47000000000E+01 0.  1.
         13    1    6    6    0    0 -0.67612859605E+02  0.10646274753E+01  0.29988688487E+02  0.73972654764E+02  0.00000000000E+00 0. -1.
        -14    1    6    6    0    0 -0.11683009829E+02 -0.94806820177E+01  0.10196967228E+03  0.10307371205E+03  0.00000000000E+00 0.  1.
</event>
<event>
12    1  0.8406581E-002  0.1948015E+03  0.7818608E-02  0.1154274E+00
         21   -1    0    0  501  502  0.00000000000E+00  0.00000000000E+00  0.43290962549E+03  0.43290962549E+03  0.00000000000E+00 0.  1.
         21   -1    0    0  502  503 -0.00000000000E+00 -0.00000000000E+00 -0.93704889304E+02  0.93704889304E+02  0.00000000000E+00 0. -1.
         -6    2    1    2    0  503  0.17697877132E+02 -0.88936449982E+02  0.10173805222E+03  0.21946948667E+03  0.17202708310E+03 0.  0.
        -24    2    3    3    0    0  0.40728098479E+02 -0.45940739245E+02 -0.67857329791E+01  0.10039587838E+03  0.79145162180E+02 0.  0.
          6    2    1    2  501    0 -0.17697877132E+02  0.88936449982E+02  0.23746668397E+03  0.30714502813E+03  0.17240862889E+03 0.  0.
         24    2    5    5    0    0  0.42053548750E+02  0.95106337123E+02  0.18520075069E+03  0.22738214087E+03  0.81176373444E+02 0.  0.
          5    1    5    5  501    0 -0.59751425882E+02 -0.61698871409E+01  0.52265933284E+02  0.79762887262E+02  0.47000000000E+01 0. -1.
        -13    1    6    6    0    0 -0.89152249887E+01  0.24746419493E+02  0.10800008741E+03  0.11115703034E+03  0.00000000000E+00 0.  1.
         14    1    6    6    0    0  0.50968773739E+02  0.70359917629E+02  0.77200663282E+02  0.11622511052E+03  0.00000000000E+00 0. -1.
         -5    1    3    3    0  503 -0.23030221346E+02 -0.42995710737E+02  0.10852378520E+03  0.11907360829E+03  0.47000000000E+01 0.  1.
         11    1    4    4    0    0  0.19819938532E+02  0.12781112498E+02 -0.26063798488E+02  0.35149799313E+02  0.00000000000E+00 0. -1.
        -12    1    4    4    0    0  0.20908159947E+02 -0.58721851743E+02  0.19278065509E+02  0.65246079072E+02  0.00000000000E+00 0.  1.
</event>
<event>
12    1  0.8406581E-002  0.2278181E+03  0.7818608E-02  0.1128498E+00
         21   -1    0    0  503  502  0.00000000000E+00  0.00000000000E+00  0.15037439307E+03  0.15037439307E+03  0.00000000000E+00 0.  1.
         21   -1    0    0  501  503 -0.00000000000E+00 -0.00000000000E+00 -0.90104733752E+03  0.90104733752E+03  0.00000000000E+00 0. -1.
          6    2    1    2  501    0 -0.13408973026E+03  0.65125402061E+02  0.38020284514E+02  0.23096885153E+03  0.17227795735E+03 0.  0.
         24    2    3    3    0    0 -0.23902762363E+02  0.54108602369E+02  0.60990466519E+02  0.11777761057E+03  0.81563752039E+02 0.  0.
         -6    2    1    2    0  502  0.13408973026E+03 -0.65125402061E+02 -0.78869322897E+03  0.82045287906E+03  0.16995453383E+03 0.  0.
        -24    2    5    5    0    0  0.12660181171E+02  0.11082288334E+02 -0.26535667884E+03  0.27781489460E+03  0.80522365563E+02 0.  0.
          5    1    3    3  501    0 -0.11018696790E+03  0.11016799693E+02 -0.22970182004E+02  0.11319124096E+03  0.47000000000E+01 0. -1.
        -13    1    4    4    0    0 -0.41958718199E+02  0.10450558059E+02  0.35241927481E+01  0.43383961681E+02  0.00000000000E+00 0.  1.
         14    1    4    4    0    0  0.18055955835E+02  0.43658044310E+02  0.57466273771E+02  0.74393648890E+02  0.00000000000E+00 0. -1.
         -5    1    5    5    0  502  0.12142954909E+03 -0.76207690395E+02 -0.52333655014E+03  0.54263798446E+03  0.47000000000E+01 0.  1.
         13    1    6    6    0    0  0.11030498921E+02 -0.18952169859E+02 -0.23146241486E+03  0.23249883041E+03  0.00000000000E+00 0. -1.
        -14    1    6    6    0    0  0.16296822493E+01  0.30034458192E+02 -0.33894263978E+02  0.45316064191E+02  0.00000000000E+00 0.  1.
</event>
<event>
12    1  0.8406581E-002  0.1929323E+03  0.7818608E-02  0.1156777E+00
         21   -1    0    0  503  502  0.00000000000E+00  0.00000000000E+00  0.24186725742E+04  0.24186725742E+04  0.00000000000E+00 0.  1.
         21   -1    0    0  501  503 -0.00000000000E+00 -0.00000000000E+00 -0.18206657365E+02  0.18206657365E+02  0.00000000000E+00 0.  1.
          6    2    1    2  501    0  0.78329080876E+02 -0.37501400405E+02  0.68273125051E+03  0.70834365288E+03  0.16759167705E+03 0.  0.
         24    2    3    3    0    0  0.10171471319E+02 -0.63004311157E+02  0.25660331221E+03  0.27602089384E+03  0.79178734147E+02 0.  0.
         -6    2    1    2    0  502 -0.78329080876E+02  0.37501400405E+02  0.17177346663E+04  0.17285355787E+04  0.17228192859E+03 0.  0.
        -24    2    5    5    0    0  0.10409285004E+02 -0.23933213554E+02  0.71835677917E+03  0.72333561812E+03  0.80602743974E+02 0.  0.
          5    1    3    3  501    0  0.68157609558E+02  0.25502910752E+02  0.42612793829E+03  0.43232275905E+03  0.47000000000E+01 0. -1.
        -11    1    4    4    0    0  0.16466103074E+02 -0.80738148730E+02  0.19769795199E+03  0.21418277576E+03  0.00000000000E+00 0.  1.
         12    1    4    4    0    0 -0.62946317554E+01  0.17733837573E+02  0.58905360228E+02  0.61838118080E+02  0.00000000000E+00 0. -1.
         -5    1    5    5    0  502 -0.88738365880E+02  0.61434613959E+02  0.99937788713E+03  0.10051999605E+04  0.47000000000E+01 0.  1.
         11    1    6    6    0    0 -0.25598532072E+02 -0.38201872349E+02  0.39400499053E+03  0.39667946816E+03  0.00000000000E+00 0. -1.
        -12    1    6    6    0    0  0.36007817075E+02  0.14268658795E+02  0.32435178864E+03  0.32665614996E+03  0.00000000000E+00 0.  1.
</event>
<event>
12    1  0.8406581E-002  0.1988395E+03  0.7818608E-02  0.1151635E+00
         21   -1    0    0  501  502  0.00000000000E+00  0.00000000000E+00  0.49667967673E+02  0.49667967673E+02  0.00000000000E+00 0. -1.
         21   -1    0    0  502  503 -0.00000000000E+00 -0.00000000000E+00 -0.98566979847E+03  0.98566979847E+03  0.00000000000E+00 0. -1.
         -6    2    1    2    0  503 -0.22161473949E+02 -0.98465162650E+02 -0.70896237788E+03  0.73631841596E+03  0.17132027681E+03 0.  0.
        -24    2    3    3    0    0 -0.53646319254E+02 -0.12397529106E+03 -0.52213959217E+03  0.54509366495E+03  0.79054092239E+02 0.  0.
          6    2    1    2  501    0  0.22161473949E+02  0.98465162650E+02 -0.22703945291E+03  0.29901935018E+03  0.16637048843E+03 0.  0.
         24    2    5    5    0    0  0.75322870181E+02  0.58299651424E+02 -0.12647808037E+03  0.17829618758E+03  0.81978299339E+02 0.  0.
          5    1    5    5  501    0 -0.53161396233E+02  0.40165511226E+02 -0.10056137254E+03  0.12072316260E+03  0.47000000000E+01 0. -1.
        -13    1    6    6    0    0  0.40762386099E+02  0.54548419426E+02 -0.12635059126E+03  0.14353248445E+03  0.00000000000E+00 0.  1.
         14    1    6    6    0    0  0.34560484082E+02  0.37512319976E+01 -0.12748911293E+00  0.34763703125E+02  0.00000000000E+00 0. -1.
         -5    1    3    3    0  503  0.31484845306E+02  0.25510128410E+02 -0.18682278571E+03  0.19122475101E+03  0.47000000000E+01 0.  1.
         13    1    4    4    0    0 -0.10072994839E+01 -0.43343367111E+02 -0.29810959008E+03  0.30124572997E+03  0.00000000000E+00 0. -1.
        -14    1    4    4    0    0 -0.52639019770E+02 -0.80631923949E+02 -0.22403000209E+03  0.24384793499E+03  0.00000000000E+00 0.  1.
</event>
<event>
12    1  0.8406581E-002  0.1944891E+03  0.7818608E-02  0.1154575E+00
         21   -1    0    0  501  502  0.00000000000E+00  0.00000000000E+00  0.30190370766E+03  0.30190370766E+03  0.00000000000E+00 0. -1.
         21   -1    0    0  502  503 -0.00000000000E+00 -0.00000000000E+00 -0.12507884705E+03  0.12507884705E+03  0.00000000000E+00 0.  1.
         -6    2    1    2    0  503  0.85582411064E+02 -0.29285634116E+02  0.82935711139E+02  0.21143405463E+03  0.17217441688E+03 0.  0.
        -24    2    3    3    0    0  0.68751989064E+02 -0.84988346880E+02  0.65484214759E+02  0.15050212507E+03  0.80080285733E+02 0.  0.
          6    2    1    2  501    0 -0.85582411064E+02  0.29285634116E+02  0.93889149469E+02  0.21554850007E+03  0.17165076768E+03 0.  0.
         24    2    5    5    0    0 -0.53309306561E+02 -0.12840569108E+02 -0.13020142025E+02  0.96100365385E+02  0.77839538460E+02 0.  0.
          5    1    5    5  501    0 -0.32273104503E+02  0.42126203224E+02  0.10690929149E+03  0.11944813469E+03  0.47000000000E+01 0. -1.
        -13    1    6    6    0    0 -0.25695671629E+02 -0.43396093274E+02 -0.20138884924E+02  0.54305277256E+02  0.00000000000E+00 0.  1.
         14    1    6    6    0    0 -0.27613634932E+02  0.30555524166E+02  0.71187428989E+01  0.41795088129E+02  0.00000000000E+00 0. -1.
         -5    1    3    3    0  503  0.16830422000E+02  0.55702712764E+02  0.17451496381E+02  0.60931929560E+02  0.47000000000E+01 0.  1.
         13    1    4    4    0    0  0.62073086272E+02 -0.28950100488E+02  0.64465060048E+02  0.94058068897E+02  0.00000000000E+00 0. -1.
        -14    1    4    4    0    0  0.66789027919E+01 -0.56038246393E+02  0.10191547107E+01  0.56444056176E+02  0.00000000000E+00 0.  1.
</event>
<event>
12    1  0.8406581E-002  0.1778349E+03  0.7818608E-02  0.1170326E+00
         21   -1    0    0  501  502  0.00000000000E+00  0.00000000000E+00  0.42742291318E+03  0.42742291318E+03  0.00000000000E+00 0. -1.
         21   -1    0    0  502  503 -0.00000000000E+00 -0.00000000000E+00 -0.77128359557E+02  0.77128359557E+02  0.00000000000E+00 0. -1.
         -6    2    1    2    0  503 -0.12356565790E+01 -0.40017694711E+02  0.11816466577E+03  0.21213114388E+03  0.17156279093E+03 0.  0.
        -24    2    3    3    0    0  0.11815385217E+02 -0.21298819838E+02  0.15017560774E+03  0.17253927131E+03  0.81387000990E+02 0.  0.
          6    2    1    2  501    0  0.12356565790E+01  0.40017694711E+02  0.23212988785E+03  0.29242012885E+03  0.17326945543E+03 0.  0.
         24    2    5    5    0    0 -0.66301429884E+02  0.42535046983E+02  0.11711857990E+03  0.15893872165E+03  0.73072879071E+02 0.  0.
          5    1    5    5  501    0  0.67537086463E+02 -0.25173522718E+01  0.11501130795E+03  0.13348140720E+03  0.47000000000E+01 0. -1.
        -11    1    6    6    0    0 -0.45958701462E+01 -0.93781183427E+01 -0.57878446416E+01  0.11940279379E+02  0.00000000000E+00 0.  1.
         12    1    6    6    0    0 -0.61705559738E+02  0.51913165326E+02  0.12290642455E+03  0.14699844227E+03  0.00000000000E+00 0. -1.
         -5    1    3    3    0  503 -0.13051041796E+02 -0.18718874873E+02 -0.32010941969E+02  0.39591872578E+02  0.47000000000E+01 0.  1.
         13    1    4    4    0    0  0.37149582328E+02 -0.33484038592E+02  0.60147235685E+02  0.78223796048E+02  0.00000000000E+00 0. -1.
        -14    1    4    4    0    0 -0.25334197111E+02  0.12185218754E+02  0.90028372050E+02  0.94315475259E+02  0.00000000000E+00 0.  1.
</event>
<event>
12    1  0.8406581E-002  0.1758252E+03  0.7818608E-02  0.1171986E+00
         21   -1    0    0  501  502  0.00000000000E+00  0.00000000000E+00  0.23555378081E+03  0.23555378081E+03  0.00000000000E+00 0.  1.
         21   -1    0    0  502  503 -0.00000000000E+00 -0.00000000000E+00 -0.29411256718E+03  0.29411256718E+03  0.00000000000E+00 0.  1.
         -6    2    1    2    0  503  0.27176516707E+02 -0.17923091886E+02 -0.22651421807E+03  0.28674589217E+03  0.17278517125E+03 0.  0.
        -24    2    3    3    0    0 -0.88073187056E+01  0.43595107975E+02 -0.68223106340E+02  0.11308676808E+03  0.78460962105E+02 0.  0.
          6    2    1    2  501    0 -0.27176516707E+02  0.17923091886E+02  0.16795543170E+03  0.24292045582E+03  0.17245730061E+03 0.  0.
         24    2    5    5    0    0  0.10387810570E+02  0.59374215451E+01  0.15495053390E+02  0.85373662984E+02  0.83098772967E+02 0.  0.
          5    1    5    5  501    0 -0.37564327277E+02  0.11985670341E+02  0.15246037831E+03  0.15754679284E+03  0.47000000000E+01 0. -1.
        -13    1    6    6    0    0  0.33367624075E+02 -0.25999330353E+02  0.17950845839E+02  0.45952109653E+02  0.00000000000E+00 0.  1.
         14    1    6    6    0    0 -0.22979813505E+02  0.31936751898E+02 -0.24557924491E+01  0.39421553331E+02  0.00000000000E+00 0. -1.
         -5    1    3    3    0  503  0.35983835412E+02 -0.61518199861E+02 -0.15829111173E+03  0.17365912408E+03  0.47000000000E+01 0.  1.
         13    1    4    4    0    0 -0.22841997537E+02  0.22548808002E+02  0.77446302015E+01  0.33017948010E+02  0.00000000000E+00 0. -1.
        -14    1    4    4    0    0  0.14034678832E+02  0.21046299973E+02 -0.75967736542E+02  0.80068820072E+02  0.00000000000E+00 0.  1.
</event>
<event>
12    1  0.8406581E-002  0.2097092E+03  0.7818608E-02  0.1141882E+00
         21   -1    0    0  501  502  0.00000000000E+00  0.00000000000E+00  0.17237072327E+03  0.17237072327E+03  0.00000000000E+00 0. -1.
         21   -1    0    0  502  503 -0.00000000000E+00 -0.00000000000E+00 -0.26120327088E+03  0.26120327088E+03  0.00000000000E+00 0. -1.
         -6    2    1    2    0  503 -0.86549409201E+01  0.11958837092E+03 -0.78812800087E+02  0.22362557974E+03  0.17152450552E+03 0.  0.
        -24    2    3    3    0    0  0.43246679904E+02  0.51468349073E+02  0.68801719496E+01  0.10238412199E+03  0.76914923064E+02 0.  0.
          6    2    1    2  501    0  0.86549409201E+01 -0.11958837092E+03 -0.10019747518E+02  0.20994841442E+03  0.17205131477E+03 0.  0.
         24    2    5    5    0    0  0.39532680287E+02 -0.14077731087E+03 -0.31577133290E+02  0.16648329224E+03  0.73064951798E+02 0.  0.
          5    1    5    5  501    0 -0.30877739367E+02  0.21188939950E+02  0.21557385772E+02  0.43465122178E+02  0.47000000000E+01 0. -1.
        -11    1    6    6    0    0  0.27002626371E+02 -0.70828078937E+01 -0.13442112497E+02  0.30983840740E+02  0.00000000000E+00 0.  1.
         12    1    6    6    0    0  0.12530053916E+02 -0.13369450298E+03 -0.18135020792E+02  0.13549945150E+03  0.00000000000E+00 0. -1.
         -5    1    3    3    0  503 -0.51901620824E+02  0.68120021847E+02 -0.85692972037E+02  0.12124145775E+03  0.47000000000E+01 0.  1.
         11    1    4    4    0    0  0.42898095488E+02  0.26417930824E+02 -0.29372424812E+02  0.58317175899E+02  0.00000000000E+00 0. -1.
        -12    1    4    4    0    0  0.34858441575E+00  0.25050418250E+02  0.36252596761E+02  0.44066946088E+02  0.00000000000E+00 0.  1.
</event>
<event>
12    1  0.8406581E-002  0.2099379E+03  0.7818608E-02  0.1141783E+00
         21   -1    0    0  501  502  0.00000000000E+00  0.00000000000E+00  0.12868482449E+04  0.12868482449E+04  0.00000000000E+00 0. -1.
         21   -1    0    0  502  503 -0.00000000000E+00 -0.00000000000E+00 -0.59456775125E+02  0.59456775125E+02  0.00000000000E+00 0.  1.
         -6    2    1    2    0  503  0.57617046282E+02  0.10584446429E+03  0.17348603877E+03  0.27169319430E+03  0.17087133036E+03 0.  0.
        -24    2    3    3    0    0  0.10273299443E+03  0.67470982003E+02  0.10095458907E+03  0.17793353285E+03  0.79762845358E+02 0.  0.
          6    2    1    2  501    0 -0.57617046282E+02 -0.10584446429E+03  0.10539054310E+04  0.10746118257E+04  0.17190446136E+03 0.  0.
         24    2    5    5    0    0 -0.83041987368E+02 -0.51004838076E+02  0.43670848552E+03  0.45444412925E+03  0.79421030655E+02 0.  0.
          5    1    5    5  501    0  0.25424941087E+02 -0.54839626218E+02  0.61719694546E+03  0.62016769644E+03  0.47000000000E+01 0. -1.
        -13    1    6    6    0    0 -0.67026065449E+02 -0.72195022918E+02  0.32383372601E+03  0.33848618419E+03  0.00000000000E+00 0.  1.
         14    1    6    6    0    0 -0.16015921920E+02  0.21190184843E+02  0.11287475951E+03  0.11595794506E+03  0.00000000000E+00 0. -1.
         -5    1    3    3    0  503 -0.45115948153E+02  0.38373482290E+02  0.72531449698E+02  0.93759661455E+02  0.47000000000E+01 0.  1.
         13    1    4    4    0    0  0.22741009843E+02 -0.47075225396E+01  0.57037859103E+02  0.61584345967E+02  0.00000000000E+00 0. -1.
        -14    1    4    4    0    0  0.79991984592E+02  0.72178504543E+02  0.43916729969E+02  0.11634918688E+03  0.00000000000E+00 0.  1.
</event>
<event>
12    1  0.8406581E-002  0.1992588E+03  0.7818608E-02  0.1150464E+00
         21   -1    0    0  501  502  0.00000000000E+00  0.00000000000E+00  0.12247592922E+03  0.12247592922E+03  0.00000000000E+00 0. -1.
         21   -1    0    0  502  503 -0.00000000000E+00 -0.00000000000E+00 -0.39754906901E+03  0.39754906901E+03  0.00000000000E+00 0. -1.
         -6    2    1    2    0  503 -0.37947821180E+02 -0.91477904958E+02 -0.24993894782E+03  0.31964599400E+03  0.17290413419E+03 0.  0.
        -24    2    3    3    0    0 -0.64679446582E+02 -0.85146466829E+02 -0.25834704262E+03  0.29053494861E+03  0.78955749060E+02 0.  0.
          6    2    1    2  501    0  0.37947821180E+02  0.91477904958E+02 -0.25134191972E+02  0.20037900422E+03  0.17237103440E+03 0.  0.
         24    2    5    5    0    0  0.83376257152E+02  0.66131554589E+02 -0.58643514612E+02  0.13832141020E+03  0.66096656084E+02 0.  0.
          5    1    5    5  501    0 -0.45428435972E+02  0.25346350369E+02  0.33509322640E+02  0.62057594021E+02  0.47000000000E+01 0. -1.
        -13    1    6    6    0    0  0.56160601407E+02  0.59275163303E+02 -0.70476088292E+02  0.10786304815E+03  0.00000000000E+00 0.  1.
         14    1    6    6    0    0  0.27215655745E+02  0.68563912863E+01  0.11832573681E+02  0.30458362054E+02  0.00000000000E+00 0. -1.
         -5    1    3    3    0  503  0.26731625403E+02 -0.63314381297E+01  0.84080948063E+01  0.29111045390E+02  0.47000000000E+01 0.  1.
         13    1    4    4    0    0 -0.77622274444E+02 -0.49095316286E+02 -0.15312306185E+03  0.17855598462E+03  0.00000000000E+00 0. -1.
        -14    1    4    4    0    0  0.12942827862E+02 -0.36051150543E+02 -0.10522398077E+03  0.11197896400E+03  0.00000000000E+00 0.  1.
</event>
<event>
12    1  0.8406581E-002  0.2075933E+03  0.7818608E-02  0.1143642E+00
         21   -1    0    0  503  502  0.00000000000E+00  0.00000000000E+00  0.59085686288E+03  0.59085686288E+03  0.00000000000E+00 0. -1.
         21   -1    0    0  501  503 -0.00000000000E+00 -0.00000000000E+00 -0.14410736332E+03  0.14410736332E+03  0.00000000000E+00 0. -1.
          6    2    1    2  501    0 -0.10910719858E+03  0.36909803658E+02 -0.35580229020E+02  0.20985763108E+03  0.17177764185E+03 0.  0.
         24    2    3    3    0    0 -0.27875078986E+02 -0.10473235806E+02 -0.68531165397E+02  0.11009960439E+03  0.80862188687E+02 0.  0.
         -6    2    1    2    0  502  0.10910719858E+03 -0.36909803658E+02  0.48232972859E+03  0.52510659512E+03  0.17270858337E+03 0.  0.
        -24    2    5    5    0    0  0.10790467016E+03 -0.83093241717E+02  0.30605397896E+03  0.34281675466E+03  0.72844935167E+02 0.  0.
          5    1    3    3  501    0 -0.81232119590E+02  0.47383039464E+02  0.32950936377E+02  0.99758026694E+02  0.47000000000E+01 0. -1.
        -13    1    4    4    0    0  0.13972839719E+02  0.18539939889E+02 -0.51355770952E+02  0.56359425396E+02  0.00000000000E+00 0.  1.
         14    1    4    4    0    0 -0.41847918705E+02 -0.29013175695E+02 -0.17175394446E+02  0.53740178993E+02  0.00000000000E+00 0. -1.
         -5    1    5    5    0  502  0.12025284149E+01  0.46183438059E+02  0.17627574963E+03  0.18228984045E+03  0.47000000000E+01 0.  1.
         13    1    6    6    0    0  0.19845951027E+01 -0.24517875732E+01  0.82978509676E+02  0.83038442592E+02  0.00000000000E+00 0. -1.
        -14    1    6    6    0    0  0.10592007506E+03 -0.80641454144E+02  0.22307546928E+03  0.25977831207E+03  0.00000000000E+00 0.  1.
</event>
<event>
12    1  0.8406581E-002  0.3257801E+03  0.7818608E-02  0.1073309E+00
         21   -1    0    0  501  502  0.00000000000E+00  0.00000000000E+00  0.94807524960E+02  0.94807524960E+02  0.00000000000E+00 0. -1.
         21   -1    0    0  502  503 -0.00000000000E+00 -0.00000000000E+00 -0.11194429883E+04  0.11194429883E+04  0.00000000000E+00 0.  1.
         -6    2    1    2    0  503  0.11517445169E+03  0.24898763766E+03 -0.56406340619E+03  0.65010578840E+03  0.17090936744E+03 0.  0.
        -24    2    3    3    0    0  0.86038634224E+02  0.80719110810E+02 -0.17887641578E+03  0.22873386175E+03  0.80026157972E+02 0.  0.
          6    2    1    2  501    0 -0.11517445169E+03 -0.24898763766E+03 -0.46057205719E+03  0.56414472489E+03  0.17570615452E+03 0.  0.
         24    2    5    5    0    0 -0.42132361072E+02 -0.54062421088E+02 -0.84027882630E+02  0.13386738126E+03  0.78497831063E+02 0.  0.
          5    1    5    5  501    0 -0.73042090622E+02 -0.19492521657E+03 -0.37654417456E+03  0.43027734364E+03  0.47000000000E+01 0. -1.
        -11    1    6    6    0    0 -0.22168695038E+02  0.13698709455E+02 -0.47886367254E+02  0.54517977303E+02  0.00000000000E+00 0.  1.
         12    1    6    6    0    0 -0.19963666034E+02 -0.67761130543E+02 -0.36141515376E+02  0.79349403952E+02  0.00000000000E+00 0. -1.
         -5    1    3    3    0  503  0.29135817470E+02  0.16826852685E+03 -0.38518699042E+03  0.42137192666E+03  0.47000000000E+01 0.  1.
         11    1    4    4    0    0 -0.10770316213E+02  0.23229766641E+00 -0.39375995860E+02  0.40823066072E+02  0.00000000000E+00 0. -1.
        -12    1    4    4    0    0  0.96808950437E+02  0.80486813143E+02 -0.13950041991E+03  0.18791079567E+03  0.00000000000E+00 0.  1.
</event>
<event>
12    1  0.8406581E-002  0.2176641E+03  0.7818608E-02  0.1135746E+00
         21   -1    0    0  503  502  0.00000000000E+00  0.00000000000E+00  0.70574806666E+02  0.70574806666E+02  0.00000000000E+00 0. -1.
         21   -1    0    0  501  503 -0.00000000000E+00 -0.00000000000E+00 -0.70596216957E+03  0.70596216957E+03  0.00000000000E+00 0.  1.
          6    2    1    2  501    0 -0.12268420930E+03 -0.56388799789E+02 -0.40549551104E+03  0.45994905629E+03  0.16998650814E+03 0.  0.
         24    2    3    3    0    0  0.42271972891E+00 -0.52941640912E+01 -0.19380888247E+03  0.20975054213E+03  0.80032494225E+02 0.  0.
         -6    2    1    2    0  502  0.12268420930E+03  0.56388799789E+02 -0.22989185186E+03  0.31658791995E+03  0.17072356473E+03 0.  0.
        -24    2    5    5    0    0  0.11632632313E+03 -0.13948518398E+02 -0.12565876938E+03  0.19059432277E+03  0.82520875747E+02 0.  0.
          5    1    3    3  501    0 -0.12310692903E+03 -0.51094635698E+02 -0.21168662857E+03  0.25019851416E+03  0.47000000000E+01 0. -1.
        -13    1    4    4    0    0 -0.40224264724E+01 -0.30047105874E+02 -0.17682280245E+03  0.17940265314E+03  0.00000000000E+00 0.  1.
         14    1    4    4    0    0  0.44451462013E+01  0.24752941783E+02 -0.16986080024E+02  0.30347888992E+02  0.00000000000E+00 0. -1.
         -5    1    5    5    0  502  0.63578861717E+01  0.70337318187E+02 -0.10423308248E+03  0.12599359717E+03  0.47000000000E+01 0.  1.
         13    1    6    6    0    0  0.11703153828E+02  0.28171156300E+02 -0.27904916102E+02  0.41343224348E+02  0.00000000000E+00 0. -1.
        -14    1    6    6    0    0  0.10462316930E+03 -0.42119674698E+02 -0.97753853279E+02  0.14925109843E+03  0.00000000000E+00 0.  1.
</event>
<event>
12    1  0.8406581E-002  0.3353295E+03  0.7818608E-02  0.1068836E+00
         21   -1    0    0  503  502  0.00000000000E+00  0.00000000000E+00  0.33803578873E+03  0.33803578873E+03  0.00000000000E+00 0.  1.
         21   -1    0    0  501  503 -0.00000000000E+00 -0.00000000000E+00 -0.36187720346E+03  0.36187720346E+03  0.00000000000E+00 0.  1.
          6    2    1    2  501    0  0.13520588319E+03  0.25399738795E+03 -0.11190771578E+03  0.35350980741E+03  0.17219333072E+03 0.  0.
         24    2    3    3    0    0  0.12480680405E+02  0.15190066537E+03 -0.84588993483E+02  0.19148012263E+03  0.79244936881E+02 0.  0.
         -6    2    1    2    0  502 -0.13520588319E+03 -0.25399738795E+03  0.88066301054E+02  0.34640318479E+03  0.17159309169E+03 0.  0.
        -24    2    5    5    0    0 -0.61772983762E+01 -0.55610815697E+02  0.31953257823E+02  0.10314124496E+03  0.80538089671E+02 0.  0.
          5    1    3    3  501    0  0.12272520278E+03  0.10209672258E+03 -0.27318722300E+02  0.16202968478E+03  0.47000000000E+01 0. -1.
        -11    1    4    4    0    0  0.45729832204E+02  0.87984300372E+02 -0.41206104975E+02  0.10737968966E+03  0.00000000000E+00 0.  1.
         12    1    4    4    0    0 -0.33249151799E+02  0.63916364996E+02 -0.43382888508E+02  0.84100432966E+02  0.00000000000E+00 0. -1.
         -5    1    5    5    0  502 -0.12902858481E+03 -0.19838657226E+03  0.56113043231E+02  0.24326193983E+03  0.47000000000E+01 0.  1.
         13    1    6    6    0    0  0.19399645636E+02 -0.29058086432E+02 -0.19369796892E+02  0.39948813118E+02  0.00000000000E+00 0. -1.
        -14    1    6    6    0    0 -0.25576944012E+02 -0.26552729265E+02  0.51323054715E+02  0.63192431839E+02  0.00000000000E+00 0.  1.
</event>
<event>
12    1  0.8406581E-002  0.2315333E+03  0.7818608E-02  0.1125658E+00
         21   -1    0    0  501  502  0.00000000000E+00  0.00000000000E+00  0.10119228774E+03  0.10119228774E+03  0.00000000000E+00 0.  1.
         21   -1    0    0  502  503 -0.00000000000E+00 -0.00000000000E+00 -0.10219378338E+04  0.10219378338E+04  0.00000000000E+00 0.  1.
         -6    2    1    2    0  503  0.28801010381E+02 -0.15156995873E+03 -0.70448835188E+02  0.24201385805E+03  0.17264043130E+03 0.  0.
        -24    2    3    3    0    0  0.51241084065E+02 -0.14350826431E+03 -0.10476176700E+03  0.19996608625E+03  0.76099521705E+02 0.  0.
          6    2    1    2  501    0 -0.28801010381E+02  0.15156995873E+03 -0.85029671088E+03  0.88111626350E+03  0.17192563129E+03 0.  0.
         24    2    5    5    0    0 -0.39378439665E+02  0.23111379855E+02 -0.47516939083E+03  0.48443492446E+03  0.82501204046E+02 0.  0.
          5    1    5    5  501    0  0.10577429283E+02  0.12845857888E+03 -0.37512732005E+03  0.39668133904E+03  0.47000000000E+01 0. -1.
        -11    1    6    6    0    0 -0.16460676524E+02 -0.30392954661E+02 -0.22095397895E+03  0.22364111066E+03  0.00000000000E+00 0.  1.
         12    1    6    6    0    0 -0.22917763141E+02  0.53504334516E+02 -0.25421541187E+03  0.26079381380E+03  0.00000000000E+00 0. -1.
         -5    1    3    3    0  503 -0.22440073684E+02 -0.80616944252E+01  0.34312931812E+02  0.42047771801E+02  0.47000000000E+01 0.  1.
         13    1    4    4    0    0  0.40443520677E+02 -0.10543216929E+03 -0.32385169752E+02  0.11747518847E+03  0.00000000000E+00 0. -1.
        -14    1    4    4    0    0  0.10797563389E+02 -0.38076095011E+02 -0.72376597247E+02  0.82490897774E+02  0.00000000000E+00 0.  1.
</event>
<event>
12    1  0.8406581E-002  0.1758552E+03  0.7818608E-02  0.1171943E+00
         21   -1    0    0  503  502  0.00000000000E+00  0.00000000000E+00  0.14962861472E+02  0.14962861472E+02  0.00000000000E+00 0. -1.
         21   -1    0    0  501  503 -0.00000000000E+00 -0.00000000000E+00 -0.22948475452E+04  0.22948475452E+04  0.00000000000E+00 0. -1.
          6    2    1    2  501    0 -0.77748652181E+01  0.34943590436E+02 -0.15057517076E+04  0.15159546850E+04  0.17189793118E+03 0.  0.
         24    2    3    3    0    0  0.82382981171E+00 -0.43371819165E+02 -0.64750576870E+03  0.65408728063E+03  0.81759750417E+02 0.  0.
         -6    2    1    2    0  502  0.77748652181E+01 -0.34943590436E+02 -0.77413297610E+03  0.79385572173E+03  0.17217299204E+03 0.  0.
        -24    2    5    5    0    0 -0.53051871299E+02 -0.27694253645E+02 -0.29241430314E+03  0.30823507282E+03  0.76949741426E+02 0.  0.
          5    1    3    3  501    0 -0.85986950298E+01  0.78315409601E+02 -0.85824593893E+03  0.86186740432E+03  0.47000000000E+01 0. -1.
        -11    1    4    4    0    0  0.21725298903E+01 -0.30080951934E+01 -0.52663195091E+03  0.52664502299E+03  0.00000000000E+00 0.  1.
         12    1    4    4    0    0 -0.13487000786E+01 -0.40363723972E+02 -0.12087381780E+03  0.12744225765E+03  0.00000000000E+00 0. -1.
         -5    1    5    5    0  502  0.60826736517E+02 -0.72493367910E+01 -0.48171867296E+03  0.48562064890E+03  0.47000000000E+01 0.  1.
         13    1    6    6    0    0 -0.88490942845E+01 -0.41346263798E+02 -0.20519180175E+03  0.20950297255E+03  0.00000000000E+00 0. -1.
        -14    1    6    6    0    0 -0.44202777015E+02  0.13652010153E+02 -0.87222501387E+02  0.98732100277E+02  0.00000000000E+00 0.  1.
</event>
<event>
12    1  0.8406581E-002  0.2026764E+03  0.7818608E-02  0.1147699E+00
         21   -1    0    0  503  502  0.00000000000E+00  0.00000000000E+00  0.57714390057E+03  0.57714390057E+03  0.00000000000E+00 0. -1.
         21   -1    0    0  501  503 -0.00000000000E+00 -0.00000000000E+00 -0.80839636460E+02  0.80839636460E+02  0.00000000000E+00 0. -1.
          6    2    1    2  501    0 -0.71969281865E+02  0.78560184228E+02  0.13192391467E+03  0.24102938432E+03  0.17128912624E+03 0.  0.
         24    2    3    3    0    0 -0.75332221574E+02  0.44469996019E+02  0.15813591937E+03  0.19764033633E+03  0.80013807549E+02 0.  0.
         -6    2    1    2    0  502  0.71969281865E+02 -0.78560184228E+02  0.36438034944E+03  0.41695415271E+03  0.17241359090E+03 0.  0.
        -24    2    5    5    0    0 -0.10831919061E+02  0.77192055805E+01  0.15811677107E+03  0.17848628120E+03  0.81728346844E+02 0.  0.
          5    1    3    3  501    0  0.33629397090E+01  0.34090188208E+02 -0.26212004693E+02  0.43389047991E+02  0.47000000000E+01 0. -1.
        -11    1    4    4    0    0 -0.22083427383E+02  0.58774451821E+02  0.73991840573E+02  0.97040746201E+02  0.00000000000E+00 0.  1.
         12    1    4    4    0    0 -0.53248794190E+02 -0.14304455802E+02  0.84144078793E+02  0.10059959013E+03  0.00000000000E+00 0. -1.
         -5    1    5    5    0  502  0.82801200925E+02 -0.86279389808E+02  0.20626357837E+03  0.23846787151E+03  0.47000000000E+01 0.  1.
         13    1    6    6    0    0  0.21835655707E+02 -0.25509496048E+02  0.89048643540E+02  0.95169276372E+02  0.00000000000E+00 0. -1.
        -14    1    6    6    0    0 -0.32667574768E+02  0.33228701629E+02  0.69068127528E+02  0.83317004827E+02  0.00000000000E+00 0.  1.
</event>
<event>
12    1  0.8406581E-002  0.1850089E+03  0.7818608E-02  0.1165768E+00
         21   -1    0    0  501  502  0.00000000000E+00  0.00000000000E+00  0.16422143862E+03  0.16422143862E+03  0.00000000000E+00 0.  1.
         21   -1    0    0  502  503 -0.00000000000E+00 -0.00000000000E+00 -0.20180322123E+03  0.20180322123E+03  0.00000000000E+00 0. -1.
         -6    2    1    2    0  503 -0.12204528588E+02 -0.14969892657E+02 -0.50649193216E+02  0.19181671194E+03  0.18399799456E+03 0.  0.
        -24    2    3    3    0    0 -0.23047348320E+02  0.52326791655E+02 -0.69891644257E+02  0.12083240113E+03  0.80289188795E+02 0.  0.
          6    2    1    2  501    0  0.12204528588E+02  0.14969892657E+02  0.13067410607E+02  0.17420794791E+03  0.17264009873E+03 0.  0.
         24    2    5    5    0    0 -0.29059865262E+02  0.27568515150E+02  0.62685717468E+02  0.10828722382E+03  0.78690055738E+02 0.  0.
          5    1    5    5  501    0  0.41264393850E+02 -0.12598622493E+02 -0.49618306860E+02  0.65920724088E+02  0.47000000000E+01 0. -1.
        -13    1    6    6    0    0  0.22008392895E+01 -0.23578260211E+02  0.35001360507E+02  0.42259594006E+02  0.00000000000E+00 0.  1.
         14    1    6    6    0    0 -0.31260704551E+02  0.51146775361E+02  0.27684356961E+02  0.66027629817E+02  0.00000000000E+00 0. -1.
         -5    1    3    3    0  503  0.10842819732E+02 -0.67296684312E+02  0.19242451040E+02  0.70984310810E+02  0.47000000000E+01 0.  1.
         11    1    4    4    0    0 -0.49069481882E+02  0.13381820540E+02 -0.28367075382E+02  0.58237257308E+02  0.00000000000E+00 0. -1.
        -12    1    4    4    0    0  0.26022133562E+02  0.38944971115E+02 -0.41524568875E+02  0.62595143825E+02  0.00000000000E+00 0.  1.
</event>
<event>
12    1  0.8406581E-002  0.1970695E+03  0.7818608E-02  0.1153801E+00
         21   -1    0    0  501  502  0.00000000000E+00  0.00000000000E+00  0.53941062342E+03  0.53941062342E+03  0.00000000000E+00 0.  1.
         21   -1    0    0  502  503 -0.00000000000E+00 -0.00000000000E+00 -0.89963673920E+02  0.89963673920E+02  0.00000000000E+00 0.  1.
         -6    2    1    2    0  503  0.26156516088E+02 -0.78076340768E+02  0.77537309850E+02  0.21177444735E+03  0.17904274297E+03 0.  0.
        -24    2    3    3    0    0 -0.55695139157E+02 -0.38432403878E+02  0.43523671923E+02  0.11456152247E+03  0.81553873113E+02 0.  0.
          6    2    1    2  501    0 -0.26156516088E+02  0.78076340768E+02  0.37190963965E+03  0.41759984999E+03  0.17115132580E+03 0.  0.
         24    2    5    5    0    0  0.15699531328E+02  0.78952382423E+02  0.35413821044E+03  0.37187666276E+03  0.79990163388E+02 0.  0.
          5    1    5    5  501    0 -0.41856047417E+02 -0.87604165512E+00  0.17771429216E+02  0.45723187233E+02  0.47000000000E+01 0. -1.
        -13    1    6    6    0    0  0.96675139473E+01  0.50435904583E+02  0.73126132554E+02  0.89356995021E+02  0.00000000000E+00 0.  1.
         14    1    6    6    0    0  0.60320173812E+01  0.28516477841E+02  0.28101207788E+03  0.28251966774E+03  0.00000000000E+00 0. -1.
         -5    1    3    3    0  503  0.81851655246E+02 -0.39643936890E+02  0.34013637927E+02  0.97212924880E+02  0.47000000000E+01 0.  1.
         13    1    4    4    0    0 -0.22371942238E+02 -0.59042715945E+01 -0.23480106618E+02  0.32964824122E+02  0.00000000000E+00 0. -1.
        -14    1    4    4    0    0 -0.33323196919E+02 -0.32528132284E+02  0.67003778542E+02  0.81596698350E+02  0.00000000000E+00 0.  1.
</event>
<event>
12    1  0.8406581E-002  0.1808845E+03  0.7818608E-02  0.1167483E+00
         21   -1    0    0  503  502  0.00000000000E+00  0.00000000000E+00  0.42929343588E+03  0.42929343588E+03  0.00000000000E+00 0. -1.
         21   -1    0    0  501  503 -0.00000000000E+00 -0.00000000000E+00 -0.11049038377E+04  0.11049038377E+04  0.00000000000E+00 0. -1.
          6    2    1    2  501    0  0.25665886624E+02 -0.42868860544E+02 -0.10781646972E+04  0.10928706605E+04  0.17155375070E+03 0.  0.
         24    2    3    3    0    0  0.75289219237E+02 -0.29377853675E+02 -0.90445763880E+03  0.91165058838E+03  0.80818624648E+02 0.  0.
         -6    2    1    2    0  502 -0.25665886624E+02  0.42868860544E+02  0.40255429540E+03  0.44132661306E+03  0.17384689156E+03 0.  0.
        -24    2    5    5    0    0 -0.78874518262E+01 -0.43450742573E+02  0.24274033954E+03  0.25876227614E+03  0.78005539460E+02 0.  0.
          5    1    3    3  501    0 -0.49623332613E+02 -0.13491006869E+02 -0.17370705842E+03  0.18122007216E+03  0.47000000000E+01 0. -1.
        -13    1    4    4    0    0  0.66853338570E+02 -0.43411898120E+02 -0.45744290847E+03  0.46433605964E+03  0.00000000000E+00 0.  1.
         14    1    4    4    0    0  0.84358806668E+01  0.14034044445E+02 -0.44701473033E+03  0.44731452874E+03  0.00000000000E+00 0. -1.
         -5    1    5    5    0  502 -0.17778434797E+02  0.86319603117E+02  0.15981395586E+03  0.18256433692E+03  0.47000000000E+01 0.  1.
         13    1    6    6    0    0  0.38114698850E+01 -0.50927322967E+02  0.76725590866E+02  0.92167976114E+02  0.00000000000E+00 0. -1.
        -14    1    6    6    0    0 -0.11698921711E+02  0.74765803943E+01  0.16601474867E+03  0.16659430002E+03  0.00000000000E+00 0.  1.
</event>
<event>
12    1  0.8406581E-002  0.1930795E+03  0.7818608E-02  0.1155747E+00
         21   -1    0    0  501  502  0.00000000000E+00  0.00000000000E+00  0.64219940452E+02  0.64219940452E+02  0.00000000000E+00 0. -1.
         21   -1    0    0  502  503 -0.00000000000E+00 -0.00000000000E+00 -0.74027326843E+03  0.74027326843E+03  0.00000000000E+00 0. -1.
         -6    2    1    2    0  503  0.30287003724E+02  0.84047047421E+02 -0.15077589013E+03  0.24485397881E+03  0.17099383941E+03 0.  0.
        -24    2    3    3    0    0  0.89738591393E+01  0.10882622886E+03 -0.64395303799E+02  0.15237720518E+03  0.84548088515E+02 0.  0.
          6    2    1    2  501    0 -0.30287003724E+02 -0.84047047421E+02 -0.52527743784E+03  0.55963923008E+03  0.17116796534E+03 0.  0.
         24    2    5    5    0    0  0.13591995242E+02 -0.11153485261E+02 -0.50677826668E+02  0.77450761858E+02  0.55868021519E+02 0.  0.
          5    1    5    5  501    0 -0.43878998966E+02 -0.72893562160E+02 -0.47459961118E+03  0.48218846822E+03  0.47000000000E+01 0. -1.
        -11    1    6    6    0    0 -0.15237877372E+02  0.12976284494E+02 -0.24517204581E+02  0.31649173552E+02  0.00000000000E+00 0.  1.
         12    1    6    6    0    0  0.28829872614E+02 -0.24129769755E+02 -0.26160622088E+02  0.45801588306E+02  0.00000000000E+00 0. -1.
         -5    1    3    3    0  503  0.21313144584E+02 -0.24779181438E+02 -0.86380586334E+02  0.92476773626E+02  0.47000000000E+01 0.  1.
         13    1    4    4    0    0 -0.19153004988E+02  0.10804759859E+03 -0.47627986039E+02  0.11962251551E+03  0.00000000000E+00 0. -1.
        -14    1    4    4    0    0  0.28126864127E+02  0.77863026426E+00 -0.16767317760E+02  0.32754689673E+02  0.00000000000E+00 0.  1.
</event>
<event>
12    1  0.8406581E-002  0.2077495E+03  0.7818608E-02  0.1144158E+00
         21   -1    0    0  501  502  0.00000000000E+00  0.00000000000E+00  0.34893552789E+02  0.34893552789E+02  0.00000000000E+00 0.  1.
         21   -1    0    0  502  503 -0.00000000000E+00 -0.00000000000E+00 -0.12842345816E+04  0.12842345816E+04  0.00000000000E+00 0.  1.
         -6    2    1    2    0  503  0.73536930672E+02 -0.81791994937E+02 -0.78496250262E+03  0.81198891123E+03  0.17624486044E+03 0.  0.
        -24    2    3    3    0    0  0.12862876611E+02 -0.43804060014E+02 -0.16902386238E+03  0.19188656276E+03  0.78531125328E+02 0.  0.
          6    2    1    2  501    0 -0.73536930672E+02  0.81791994937E+02 -0.46437852616E+03  0.50713922313E+03  0.17159593664E+03 0.  0.
         24    2    5    5    0    0 -0.21820764302E+02  0.41329007447E+02 -0.97727019812E+02  0.13462448204E+03  0.79930896107E+02 0.  0.
          5    1    5    5  501    0 -0.51716166371E+02  0.40462987490E+02 -0.36665150634E+03  0.37251474108E+03  0.47000000000E+01 0. -1.
        -13    1    6    6    0    0 -0.27912809586E+02  0.34231202971E+02 -0.11038016487E+03  0.11888936450E+03  0.00000000000E+00 0.  1.
         14    1    6    6    0    0  0.60920452839E+01  0.70978044759E+01  0.12653145056E+02  0.15735117538E+02  0.00000000000E+00 0. -1.
         -5    1    3    3    0  503  0.60674054061E+02 -0.37987934923E+02 -0.61593864025E+03  0.62010234847E+03  0.47000000000E+01 0.  1.
         13    1    4    4    0    0  0.20476895303E+02  0.16621912745E+02 -0.29047702434E+02  0.39234681612E+02  0.00000000000E+00 0. -1.
        -14    1    4    4    0    0 -0.76140186919E+01 -0.60425972758E+02 -0.13997615994E+03  0.15265188114E+03  0.00000000000E+00 0.  1.
</event>
<event>
12    1  0.8406581E-002  0.1755300E+03  0.7818608E-02  0.1172596E+00
         21   -1    0    0  503  502  0.00000000000E+00  0.00000000000E+00  0.18320043829E+03  0.18320043829E+03  0.00000000000E+00 0.  1.
         21   -1    0    0  501  503 -0.00000000000E+00 -0.00000000000E+00 -0.17001013944E+03  0.17001013944E+03  0.00000000000E+00 0.  1.
          6    2    1    2  501    0  0.20402116274E+01 -0.28482946494E+02  0.31294762313E+02  0.17674941330E+03  0.17159706364E+03 0.  0.
         24    2    3    3    0    0  0.57482587478E+02 -0.61611322062E+01 -0.14968272818E+02  0.10102307143E+03  0.81482540201E+02 0.  0.
         -6    2    1    2    0  502 -0.20402116274E+01  0.28482946494E+02 -0.18104463465E+02  0.17646116443E+03  0.17319159982E+03 0.  0.
        -24    2    5    5    0    0 -0.44490442355E+02 -0.34051442929E+02 -0.47505380360E+01  0.99565200463E+02  0.82169101888E+02 0.  0.
          5    1    3    3  501    0 -0.55442375851E+02 -0.22321814288E+02  0.46263035131E+02  0.75726341868E+02  0.47000000000E+01 0. -1.
        -13    1    4    4    0    0  0.50583704340E+02 -0.38309123148E+02  0.30564280700E+01  0.63526701580E+02  0.00000000000E+00 0.  1.
         14    1    4    4    0    0  0.68988831388E+01  0.32147990942E+02 -0.18024700888E+02  0.37496369854E+02  0.00000000000E+00 0. -1.
         -5    1    5    5    0  502  0.42450230728E+02  0.62534389424E+02 -0.13353925429E+02  0.76895963963E+02  0.47000000000E+01 0.  1.
         11    1    6    6    0    0  0.28915473841E+00 -0.46866155296E+02  0.14658480890E+02  0.49105918021E+02  0.00000000000E+00 0. -1.
        -12    1    6    6    0    0 -0.44779597094E+02  0.12814712367E+02 -0.19409018926E+02  0.50459282442E+02  0.00000000000E+00 0.  1.
</event>
<event>
12    1  0.8406581E-002  0.1872916E+03  0.7818608E-02  0.1160961E+00
         21   -1    0    0  503  502  0.00000000000E+00  0.00000000000E+00  0.10558662673E+04  0.10558662673E+04  0.00000000000E+00 0. -1.
         21   -1    0    0  501  503 -0.00000000000E+00 -0.00000000000E+00 -0.87449572254E+02  0.87449572254E+02  0.00000000000E+00 0. -1.
          6    2    1    2  501    0 -0.53467003666E+02  0.51350062382E+02  0.34011887265E+02  0.19035481504E+03  0.17199592363E+03 0.  0.
         24    2    3    3    0    0 -0.18954976312E+02 -0.11782700579E+02  0.62890878996E+02  0.11268299289E+03  0.90796867054E+02 0.  0.
         -6    2    1    2    0  502  0.53467003666E+02 -0.51350062382E+02  0.93440480779E+03  0.95296102452E+03  0.17183369884E+03 0.  0.
        -24    2    5    5    0    0  0.31254816467E+01  0.23298916712E+02  0.62715778078E+03  0.63275864396E+03  0.80647450971E+02 0.  0.
          5    1    3    3  501    0 -0.34512027354E+02  0.63132762962E+02 -0.28878991731E+02  0.77671822141E+02  0.47000000000E+01 0. -1.
        -11    1    4    4    0    0  0.68515558575E+01  0.36918065515E+02  0.18208654550E+02  0.41730594047E+02  0.00000000000E+00 0.  1.
         12    1    4    4    0    0 -0.25806532169E+02 -0.48700766094E+02  0.44682224446E+02  0.70952398847E+02  0.00000000000E+00 0. -1.
         -5    1    5    5    0  502  0.50341522019E+02 -0.74648979094E+02  0.30724702700E+03  0.32020238057E+03  0.47000000000E+01 0.  1.
         11    1    6    6    0    0  0.30102720114E+01 -0.19363219840E+02  0.45400183927E+03  0.45442454388E+03  0.00000000000E+00 0. -1.
        -12    1    6    6    0    0  0.11520963527E+00  0.42662136552E+02  0.17315594151E+03  0.17833410008E+03  0.00000000000E+00 0.  1.
</event>
<event>
12    1  0.8406581E-002  0.2457842E+03  0.7818608E-02  0.1116121E+00
         21   -1    0    0  503  502  0.00000000000E+00  0.00000000000E+00  0.68126101930E+03  0.68126101930E+03  0.00000000000E+00 0.  1.
         21   -1    0    0  501  503 -0.00000000000E+00 -0.00000000000E+00 -0.13995688590E+03  0.13995688590E+03  0.00000000000E+00 0.  1.
          6    2    1    2  501    0  0.16626785297E+03  0.52847217498E+02  0.21175932748E+02  0.24594126715E+03  0.17204900299E+03 0.  0.
         24    2    3    3    0    0  0.16901695305E+03 -0.26208122455E+01  0.15119795852E+01  0.18683948267E+03  0.79580821355E+02 0.  0.
         -6    2    1    2    0  502 -0.16626785297E+03 -0.52847217498E+02  0.52012820066E+03  0.57527663805E+03  0.17312434213E+03 0.  0.
        -24    2    5    5    0    0 -0.57004486085E+02  0.14003011027E+02  0.34060349500E+03  0.35468958870E+03  0.79676645119E+02 0.  0.
          5    1    3    3  501    0 -0.27491000745E+01  0.55468029744E+02  0.19663953163E+02  0.59101784481E+02  0.47000000000E+01 0. -1.
        -13    1    4    4    0    0  0.16309736224E+03  0.18106591209E+02 -0.54416160997E+01  0.16418955326E+03  0.00000000000E+00 0.  1.
         14    1    4    4    0    0  0.59195908120E+01 -0.20727403455E+02  0.69535956849E+01  0.22649929411E+02  0.00000000000E+00 0. -1.
         -5    1    5    5    0  502 -0.10926336689E+03 -0.66850228525E+02  0.17952470566E+03  0.22058704935E+03  0.47000000000E+01 0.  1.
         11    1    6    6    0    0 -0.66457928340E+01 -0.29529005481E+02  0.75130974420E+02  0.80998716313E+02  0.00000000000E+00 0. -1.
        -12    1    6    6    0    0 -0.50358693251E+02  0.43532016507E+02  0.26547252058E+03  0.27369087239E+03  0.00000000000E+00 0.  1.
</event>
<event>
12    1  0.8406581E-002  0.2009721E+03  0.7818608E-02  0.1149346E+00
         21   -1    0    0  501  502  0.00000000000E+00  0.00000000000E+00  0.21750158015E+02  0.21750158015E+02  0.00000000000E+00 0.  1.
         21   -1    0    0  502  503 -0.00000000000E+00 -0.00000000000E+00 -0.22227814952E+04  0.22227814952E+04  0.00000000000E+00 0.  1.
         -6    2    1    2    0  503  0.40186038527E+02 -0.93397482098E+02 -0.15717840303E+04  0.15845803257E+04  0.17335444427E+03 0.  0.
        -24    2    3    3    0    0  0.42376007713E+02  0.11771475619E+02 -0.56121450145E+03  0.56853988936E+03  0.79634135241E+02 0.  0.
          6    2    1    2  501    0 -0.40186038527E+02  0.93397482098E+02 -0.62924730682E+03  0.65995132744E+03  0.17101337404E+03 0.  0.
         24    2    5    5    0    0 -0.42574342443E+02  0.75030968509E+02 -0.22505436504E+03  0.25530696878E+03  0.84201901481E+02 0.  0.
          5    1    5    5  501    0  0.23883039156E+01  0.18366513589E+02 -0.40419294178E+03  0.40464435867E+03  0.47000000000E+01 0. -1.
        -11    1    6    6    0    0  0.11655579416E+02  0.62601361408E+02 -0.13814987421E+03  0.15211893612E+03  0.00000000000E+00 0.  1.
         12    1    6    6    0    0 -0.54229921859E+02  0.12429607101E+02 -0.86904490827E+02  0.10318803266E+03  0.00000000000E+00 0. -1.
         -5    1    3    3    0  503 -0.21899691856E+01 -0.10516895772E+03 -0.10105695289E+04  0.10160404364E+04  0.47000000000E+01 0.  1.
         11    1    4    4    0    0  0.30034810561E+02  0.48507122755E+01 -0.54901560953E+03  0.54985794416E+03  0.00000000000E+00 0. -1.
        -12    1    4    4    0    0  0.12341197152E+02  0.69207633431E+01 -0.12198891919E+02  0.18681945200E+02  0.00000000000E+00 0.  1.
</event>
<event>
12    1  0.8406581E-002  0.1847073E+03  0.7818608E-02  0.1163609E+00
         21   -1    0    0  501  502  0.00000000000E+00  0.00000000000E+00  0.12265752781E+03  0.12265752781E+03  0.00000000000E+00 0.  1.
         21   -1    0    0  502  503 -0.00000000000E+00 -0.00000000000E+00 -0.45927866858E+03  0.45927866858E+03  0.00000000000E+00 0.  1.
         -6    2    1    2    0  503 -0.65083903127E+02 -0.11632164985E+02 -0.35229107529E+03  0.39777603762E+03  0.17246899047E+03 0.  0.
        -24    2    3    3    0    0 -0.44616097102E+02 -0.61739062106E+02 -0.13995942939E+03  0.17860384488E+03  0.80674553740E+02 0.  0.
          6    2    1    2  501    0  0.65083903127E+02  0.11632164985E+02  0.15669934511E+02  0.18416015876E+03  0.17116715666E+03 0.  0.
         24    2    5    5    0    0  0.15415772078E+02  0.24955902022E+02 -0.49172746352E+02  0.10126800912E+03  0.83527286638E+02 0.  0.
          5    1    5    5  501    0  0.49668131049E+02 -0.13323737037E+02  0.64842680863E+02  0.82892149641E+02  0.47000000000E+01 0. -1.
        -13    1    6    6    0    0 -0.22858307448E+01  0.49073834180E+02 -0.70916779470E+01  0.49636258113E+02  0.00000000000E+00 0.  1.
         14    1    6    6    0    0  0.17701602823E+02 -0.24117932158E+02 -0.42081068405E+02  0.51631751008E+02  0.00000000000E+00 0. -1.
         -5    1    3    3    0  503 -0.20467806025E+02  0.50106897121E+02 -0.21233164590E+03  0.21917219274E+03  0.47000000000E+01 0.  1.
         11    1    4    4    0    0 -0.51486382035E+02 -0.37440441078E+02 -0.39273983843E+02  0.74800267179E+02  0.00000000000E+00 0. -1.
        -12    1    4    4    0    0  0.68702849331E+01 -0.24298621028E+02 -0.10068544555E+03  0.10380357770E+03  0.00000000000E+00 0.  1.
</event>
<event>
12    1  0.8406581E-002  0.3471752E+03  0.7818608E-02  0.1063839E+00
         21   -1    0    0  501  502  0.00000000000E+00  0.00000000000E+00  0.47328658003E+03  0.47328658003E+03  0.00000000000E+00 0.  1.
         21   -1    0    0  502  503 -0.00000000000E+00 -0.00000000000E+00 -0.28943340103E+03  0.28943340103E+03  0.00000000000E+00 0. -1.
         -6    2    1    2    0  503  0.13200648202E+03 -0.26989000124E+03 -0.41099692768E+02  0.34903600718E+03  0.17283120521E+03 0.  0.
        -24    2    3    3    0    0  0.12826456778E+03 -0.14649495634E+03  0.19849879606E+02  0.21127796059E+03  0.79572528721E+02 0.  0.
          6    2    1    2  501    0 -0.13200648202E+03  0.26989000124E+03  0.22495287177E+03  0.41368397389E+03  0.17396640960E+03 0.  0.
         24    2    5    5    0    0 -0.44621741608E+01  0.75428471148E+02  0.11616355828E+03  0.15689604216E+03  0.73573300283E+02 0.  0.
          5    1    5    5  501    0 -0.12754430786E+03  0.19446153009E+03  0.10878931349E+03  0.25678793173E+03  0.47000000000E+01 0. -1.
        -11    1    6    6    0    0  0.26430425338E+02  0.31636024286E+02  0.17846330796E+02  0.44921007770E+02  0.00000000000E+00 0.  1.
         12    1    6    6    0    0 -0.30892599499E+02  0.43792446862E+02  0.98317227483E+02  0.11197503439E+03  0.00000000000E+00 0. -1.
         -5    1    3    3    0  503  0.37419142379E+01 -0.12339504490E+03 -0.60949572374E+02  0.13775804659E+03  0.47000000000E+01 0.  1.
         13    1    4    4    0    0  0.98551616203E+02 -0.13819486592E+03 -0.77090236077E+01  0.16991077384E+03  0.00000000000E+00 0. -1.
        -14    1    4    4    0    0  0.29712951582E+02 -0.83000904191E+01  0.27558903214E+02  0.41367186743E+02  0.00000000000E+00 0.  1.
</event>
<event>
12    1  0.8406581E-002  0.1793528E+03  0.7818608E-02  0.1168665E+00
         21   -1    0    0  503  502  0.00000000000E+00  0.00000000000E+00  0.14961724325E+03  0.14961724325E+03  0.00000000000E+00 0. -1.
         21   -1    0    0  501  503 -0.00000000000E+00 -0.00000000000E+00 -0.29255624034E+03  0.29255624034E+03  0.00000000000E+00 0. -1.
          6    2    1    2  501    0  0.48504518713E+02 -0.20978218906E+02 -0.18628347851E+03  0.25859033366E+03  0.17139035063E+03 0.  0.
         24    2    3    3    0    0  0.49392655818E+02  0.52102097536E+02 -0.10502973317E+03  0.14920211413E+03  0.77947180802E+02 0.  0.
         -6    2    1    2    0  502 -0.48504518713E+02  0.20978218906E+02  0.43344481421E+02  0.18358314993E+03  0.17038560639E+03 0.  0.
        -24    2    5    5    0    0 -0.54948526487E+02  0.56859714090E+02  0.73774833631E+02  0.13586414671E+03  0.82243374415E+02 0.  0.
          5    1    3    3  501    0 -0.88813710507E+00 -0.73080316442E+02 -0.81253745344E+02  0.10938821953E+03  0.47000000000E+01 0. -1.
        -11    1    4    4    0    0  0.54806044720E+01  0.47589155752E+02 -0.91076141425E+02  0.10290591969E+03  0.00000000000E+00 0.  1.
         12    1    4    4    0    0  0.43912051346E+02  0.45129417843E+01 -0.13953591743E+02  0.46296194438E+02  0.00000000000E+00 0. -1.
         -5    1    5    5    0  502  0.64440077741E+01 -0.35881495184E+02 -0.30430352210E+02  0.47719003221E+02  0.47000000000E+01 0.  1.
         11    1    6    6    0    0 -0.72939243132E+02  0.28510955831E+02  0.63286405960E+02  0.10068851459E+03  0.00000000000E+00 0. -1.
        -12    1    6    6    0    0  0.17990716645E+02  0.28348758259E+02  0.10488427671E+02  0.35175632123E+02  0.00000000000E+00 0.  1.
</event>
<event>
12    1  0.8406581E-002  0.1815258E+03  0.7818608E-02  0.1166795E+00
         21   -1    0    0  501  502  0.00000000000E+00  0.00000000000E+00  0.19258006704E+03  0.19258006704E+03  0.00000000000E+00 0.  1.
         21   -1    0    0  502  503 -0.00000000000E+00 -0.00000000000E+00 -0.33576946187E+03  0.33576946187E+03  0.00000000000E+00 0.  1.
         -6    2    1    2    0  503  0.41367362581E+01 -0.49166297001E+02  0.11460291462E+03  0.21305842399E+03  0.17270097466E+03 0.  0.
        -24    2    3    3    0    0 -0.54731106334E+02  0.16972103846E+02  0.54411477709E+02  0.10589121802E+03  0.70489678950E+02 0.  0.
          6    2    1    2  501    0 -0.41367362581E+01  0.49166297001E+02 -0.25779230945E+03  0.31529110492E+03  0.17469163884E+03 0.  0.
         24    2    5    5    0    0 -0.51989294373E+02 -0.34480223233E+01 -0.20628784085E+03  0.22735400124E+03  0.80127354962E+02 0.  0.
          5    1    5    5  501    0  0.47852558115E+02  0.52614319325E+02 -0.51504468605E+02  0.87937103673E+02  0.47000000000E+01 0. -1.
        -11    1    6    6    0    0 -0.48446114531E+01 -0.19933550204E+01 -0.16376465163E+03  0.16384842034E+03  0.00000000000E+00 0.  1.
         12    1    6    6    0    0 -0.47144682920E+02 -0.14546673029E+01 -0.42523189211E+02  0.63505580899E+02  0.00000000000E+00 0. -1.
         -5    1    3    3    0  503  0.58867842593E+02 -0.66138400847E+02  0.60191436908E+02  0.10716720597E+03  0.47000000000E+01 0.  1.
         13    1    4    4    0    0 -0.23241396301E+02 -0.19968885310E+02  0.47974552025E+02  0.56925183570E+02  0.00000000000E+00 0. -1.
        -14    1    4    4    0    0 -0.31489710034E+02  0.36940989156E+02  0.64369256836E+01  0.48966034453E+02  0.00000000000E+00 0.  1.
</event>
<event>
12    1  0.8406581E-002  0.1820749E+03  0.7818608E-02  0.1167674E+00
         21   -1    0    0  503  502  0.00000000000E+00  0.00000000000E+00  0.26053284938E+03  0.26053284938E+03  0.00000000000E+00 0.  1.
         21   -1    0    0  501  503 -0.00000000000E+00 -0.00000000000E+00 -0.24166510952E+03  0.24166510952E+03  0.00000000000E+00 0.  1.
          6    2    1    2  501    0  0.26773491199E+02 -0.10466418786E+02 -0.16737195710E+03  0.24174352752E+03  0.17204707298E+03 0.  0.
         24    2    3    3    0    0  0.15649807789E+02  0.21846724465E+02 -0.18478714379E+03  0.20310087898E+03  0.79884182902E+02 0.  0.
         -6    2    1    2    0  502 -0.26773491199E+02  0.10466418786E+02  0.18623969697E+03  0.26045443138E+03  0.17979132444E+03 0.  0.
        -24    2    5    5    0    0  0.12744267739E+02 -0.40303145152E+02  0.17255457385E+03  0.19451070924E+03  0.79199590809E+02 0.  0.
          5    1    3    3  501    0  0.11123683410E+02 -0.32313143251E+02  0.17415186684E+02  0.38642648546E+02  0.47000000000E+01 0. -1.
        -11    1    4    4    0    0  0.46736269706E+02  0.20633720541E+02 -0.91945688560E+02  0.10518573560E+03  0.00000000000E+00 0.  1.
         12    1    4    4    0    0 -0.31086461917E+02  0.12130039239E+01 -0.92841455228E+02  0.97915143374E+02  0.00000000000E+00 0. -1.
         -5    1    5    5    0  502 -0.39517758938E+02  0.50769563938E+02  0.13685123122E+02  0.65943722133E+02  0.47000000000E+01 0.  1.
         11    1    6    6    0    0 -0.43831842770E+01  0.98948736990E+01 -0.29085921728E+01  0.11206281201E+02  0.00000000000E+00 0. -1.
        -12    1    6    6    0    0  0.17127452016E+02 -0.50198018851E+02  0.17546316602E+03  0.18330442804E+03  0.00000000000E+00 0.  1.
</event>
<event>
12    1  0.8406581E-002  0.3449085E+03  0.7818608E-02  0.1064779E+00
         21   -1    0    0  501  502  0.00000000000E+00  0.00000000000E+00  0.15551338799E+04  0.15551338799E+04  0.00000000000E+00 0. -1.
         21   -1    0    0  502  503 -0.00000000000E+00 -0.00000000000E+00 -0.77551369405E+02  0.77551369405E+02  0.00000000000E+00 0. -1.
         -6    2    1    2    0  503  0.29877333927E+03 -0.11617071251E+02  0.83969611823E+03  0.90777278177E+03  0.17193425412E+03 0.  0.
        -24    2    3    3    0    0  0.98355336139E+02  0.13879843317E+02  0.20932569885E+03  0.24580116284E+03  0.82064250791E+02 0.  0.
          6    2    1    2  501    0 -0.29877333927E+03  0.11617071251E+02  0.63788639228E+03  0.72491246756E+03  0.17087589518E+03 0.  0.
         24    2    5    5    0    0 -0.16192593236E+03 -0.39266045511E+02  0.45377012899E+03  0.48988652695E+03  0.79496222691E+02 0.  0.
          5    1    5    5  501    0 -0.13684740691E+03  0.50883116762E+02  0.18411626330E+03  0.23502594061E+03  0.47000000000E+01 0. -1.
        -11    1    6    6    0    0 -0.52598470058E+02  0.21672601421E+02  0.18190117004E+03  0.19058944453E+03  0.00000000000E+00 0.  1.
         12    1    6    6    0    0 -0.10932746230E+03 -0.60938646933E+02  0.27186895895E+03  0.29929708242E+03  0.00000000000E+00 0. -1.
         -5    1    3    3    0  503  0.20041800313E+03 -0.25496914567E+02  0.63037041938E+03  0.66197161892E+03  0.47000000000E+01 0.  1.
         13    1    4    4    0    0  0.98643571076E+02 -0.13451971276E+02  0.14477928028E+03  0.17570586115E+03  0.00000000000E+00 0. -1.
        -14    1    4    4    0    0 -0.28823493692E+00  0.27331814592E+02  0.64546418577E+02  0.70095301693E+02  0.00000000000E+00 0.  1.
</event>
<event>
12    1  0.8406581E-002  0.1848958E+03  0.7818608E-02  0.1164151E+00
         21   -1    0    0  503  502  0.00000000000E+00  0.00000000000E+00  0.12825867844E+03  0.12825867844E+03  0.00000000000E+00 0. -1.
         21   -1    0    0  501  503 -0.00000000000E+00 -0.00000000000E+00 -0.29497831981E+03  0.29497831981E+03  0.00000000000E+00 0. -1.
          6    2    1    2  501    0  0.35623392777E+02 -0.46703893355E+02 -0.15489181026E+03  0.23796322197E+03  0.17083542478E+03 0.  0.
         24    2    3    3    0    0  0.71656350126E+02  0.59158732559E+01 -0.13008654410E+03  0.16937309818E+03  0.81210266342E+02 0.  0.
         -6    2    1    2    0  502 -0.35623392777E+02  0.46703893355E+02 -0.11827831111E+02  0.18527377627E+03  0.17531741162E+03 0.  0.
        -24    2    5    5    0    0 -0.64958997420E+01  0.73616574197E+02 -0.59314090383E+02  0.12322751885E+03  0.78773494103E+02 0.  0.
          5    1    3    3  501    0 -0.36032957349E+02 -0.52619766611E+02 -0.24805266156E+02  0.68590123798E+02  0.47000000000E+01 0. -1.
        -11    1    4    4    0    0  0.10449576086E+02  0.29904449816E+02 -0.82050993376E+02  0.87953597272E+02  0.00000000000E+00 0.  1.
         12    1    4    4    0    0  0.61206774040E+02 -0.23988576560E+02 -0.48035550727E+02  0.81419500904E+02  0.00000000000E+00 0. -1.
         -5    1    5    5    0  502 -0.29127493035E+02 -0.26912680842E+02  0.47486259272E+02  0.62046257424E+02  0.47000000000E+01 0.  1.
         11    1    6    6    0    0 -0.14236254061E+02  0.28004311264E+02 -0.69129975677E+02  0.75933299127E+02  0.00000000000E+00 0. -1.
        -12    1    6    6    0    0  0.77403543188E+01  0.45612262933E+02  0.98158852942E+01  0.47294219720E+02  0.00000000000E+00 0.  1.
</event>
<event>
12    1  0.8406581E-002  0.1787096E+03  0.7818608E-02  0.1169191E+00
         21   -1    0    0  503  502  0.00000000000E+00  0.00000000000E+00  0.12524007130E+03  0.12524007130E+03  0.00000000000E+00 0. -1.
         21   -1    0    0  501  503 -0.00000000000E+00 -0.00000000000E+00 -0.27656786981E+03  0.27656786981E+03  0.00000000000E+00 0. -1.
          6    2    1    2  501    0 -0.15697997403E+02 -0.45019266864E+02 -0.13265135673E+03  0.22212504939E+03  0.17166826619E+03 0.  0.
         24    2    3    3    0    0  0.34458019030E+02 -0.12603755588E+02 -0.13764297045E+02  0.88998739765E+02  0.79906883785E+02 0.  0.
         -6    2    1    2    0  502  0.15697997403E+02  0.45019266864E+02 -0.18676441778E+02  0.17968289172E+03  0.17223231575E+03 0.  0.
        -24    2    5    5    0    0 -0.12588695873E+02  0.32102064565E+02  0.52916632267E+02  0.10148666814E+03  0.79437749374E+02 0.  0.
          5    1    3    3  501    0 -0.50156016433E+02 -0.32415511276E+02 -0.11888705968E+03  0.13312630963E+03  0.47000000000E+01 0. -1.
        -13    1    4    4    0    0  0.24784446004E+02 -0.21414009563E+02 -0.44696491788E+02  0.55413039507E+02  0.00000000000E+00 0.  1.
         14    1    4    4    0    0  0.96735730264E+01  0.88102539752E+01  0.30932194743E+02  0.33585700258E+02  0.00000000000E+00 0. -1.
         -5    1    5    5    0  502  0.28286693276E+02  0.12917202299E+02 -0.71593074045E+02  0.78196223585E+02  0.47000000000E+01 0.  1.
         11    1    6    6    0    0 -0.58260668026E+01  0.34136670217E+02 -0.11648190504E+02  0.36536771203E+02  0.00000000000E+00 0. -1.
        -12    1    6    6    0    0 -0.67626290699E+01 -0.20346056522E+01  0.64564822771E+02  0.64949896932E+02  0.00000000000E+00 0.  1.
</event>
<event>
12    1  0.8406581E-002  0.1877409E+03  0.7818608E-02  0.1160605E+00
         21   -1    0    0  503  502  0.00000000000E+00  0.00000000000E+00  0.33220537612E+03  0.33220537612E+03  0.00000000000E+00 0.  1.
         21   -1    0    0  501  503 -0.00000000000E+00 -0.00000000000E+00 -0.24257072415E+03  0.24257072415E+03  0.00000000000E+00 0.  1.
          6    2    1    2  501    0 -0.34268718338E+02 -0.63949544176E+02 -0.17094074762E+03  0.25361229232E+03  0.17272685478E+03 0.  0.
         24    2    3    3    0    0 -0.47662077116E+01 -0.97538798774E+02 -0.16557657277E+03  0.20834088269E+03  0.80335471308E+02 0.  0.
         -6    2    1    2    0  502  0.34268718338E+02  0.63949544176E+02  0.26057539959E+03  0.32116380795E+03  0.17315531586E+03 0.  0.
        -24    2    5    5    0    0 -0.37551059091E+02  0.10840568150E+02  0.17942195895E+03  0.20038874971E+03  0.80223510904E+02 0.  0.
          5    1    3    3  501    0 -0.29502510626E+02  0.33589254597E+02 -0.53641748532E+01  0.45271409626E+02  0.47000000000E+01 0. -1.
        -13    1    4    4    0    0  0.10250855786E+02 -0.88140681461E+02 -0.75407626302E+02  0.11644814244E+03  0.00000000000E+00 0.  1.
         14    1    4    4    0    0 -0.15017063498E+02 -0.93981173131E+01 -0.90168946466E+02  0.91892740257E+02  0.00000000000E+00 0. -1.
         -5    1    5    5    0  502  0.71819777429E+02  0.53108976027E+02  0.81153440641E+02  0.12077505824E+03  0.47000000000E+01 0.  1.
         13    1    6    6    0    0 -0.59583345128E+02  0.71170028253E+01  0.89661555574E+02  0.10788893036E+03  0.00000000000E+00 0. -1.
        -14    1    6    6    0    0  0.22032286036E+02  0.37235653243E+01  0.89760403375E+02  0.92499819355E+02  0.00000000000E+00 0.  1.
</event>
<event>
12    1  0.8406581E-002  0.1918761E+03  0.7818608E-02  0.1156795E+00
         21   -1    0    0  501  502  0.00000000000E+00  0.00000000000E+00  0.18349949844E+02  0.18349949844E+02  0.00000000000E+00 0. -1.
         21   -1    0    0  502  503 -0.00000000000E+00 -0.00000000000E+00 -0.20093577394E+04  0.20093577394E+04  0.00000000000E+00 0.  1.
         -6    2    1    2    0  503 -0.70376915545E+02 -0.46996177236E+02 -0.95170277742E+03  0.97083904101E+03  0.17212993954E+03 0.  0.
        -24    2    3    3    0    0 -0.47674533247E+01 -0.60102518451E+02 -0.30484769115E+03  0.32051606714E+03  0.78507280932E+02 0.  0.
          6    2    1    2  501    0  0.70376915545E+02  0.46996177236E+02 -0.10393050121E+04  0.10568686482E+04  0.17220592455E+03 0.  0.
         24    2    5    5    0    0 -0.62874468511E+01  0.59379827422E+02 -0.76128972192E+03  0.76817266481E+03  0.83436840539E+02 0.  0.
          5    1    5    5  501    0  0.76664362396E+02 -0.12383650186E+02 -0.27801529018E+03  0.28869598339E+03  0.47000000000E+01 0. -1.
        -11    1    6    6    0    0  0.27720605505E+02  0.51383221694E+02 -0.61518457530E+03  0.61794880785E+03  0.00000000000E+00 0.  1.
         12    1    6    6    0    0 -0.34008052356E+02  0.79966057284E+01 -0.14610514663E+03  0.15022385696E+03  0.00000000000E+00 0. -1.
         -5    1    3    3    0  503 -0.65609462221E+02  0.13106341214E+02 -0.64685508627E+03  0.65032297387E+03  0.47000000000E+01 0.  1.
         13    1    4    4    0    0 -0.53725068745E+01 -0.20088686913E+02 -0.10197094352E+02  0.23160308833E+02  0.00000000000E+00 0. -1.
        -14    1    4    4    0    0  0.60505354980E+00 -0.40013831538E+02 -0.29465059680E+03  0.29735575831E+03  0.00000000000E+00 0.  1.
</event>
<event>
12    1  0.8406581E-002  0.2484840E+03  0.7818608E-02  0.1114301E+00
         21   -1    0    0  501  502  0.00000000000E+00  0.00000000000E+00  0.24149118123E+03  0.24149118123E+03  0.00000000000E+00 0.  1.
         21   -1    0    0  502  503 -0.00000000000E+00 -0.00000000000E+00 -0.44833622312E+03  0.44833622312E+03  0.00000000000E+00 0.  1.
         -6    2    1    2    0  503 -0.11789249678E+03  0.13476789923E+03 -0.32967670952E+03  0.41283293655E+03  0.17228834331E+03 0.  0.
        -24    2    3    3    0    0  0.14086750081E+02  0.36814270825E+02 -0.12518085762E+03  0.15043232991E+03  0.73524905326E+02 0.  0.
          6    2    1    2  501    0  0.11789249678E+03 -0.13476789923E+03  0.12283166763E+03  0.27699446780E+03  0.17198049063E+03 0.  0.
         24    2    5    5    0    0  0.43405439363E+02 -0.68528581890E+02  0.13455445742E+03  0.17651818858E+03  0.80458499765E+02 0.  0.
          5    1    5    5  501    0  0.74487057420E+02 -0.66239317341E+02 -0.11722789796E+02  0.10047627922E+03  0.47000000000E+01 0. -1.
        -11    1    6    6    0    0  0.11045124969E+02 -0.78258968785E+02  0.80816750252E+02  0.11303896718E+03  0.00000000000E+00 0.  1.
         12    1    6    6    0    0  0.32360314394E+02  0.97303868943E+01  0.53737707172E+02  0.63479221395E+02  0.00000000000E+00 0. -1.
         -5    1    3    3    0  503 -0.13197924686E+03  0.97953628407E+02 -0.20449585189E+03  0.26240060664E+03  0.47000000000E+01 0.  1.
         11    1    4    4    0    0 -0.64274796926E+01 -0.19076619877E+02 -0.54028886873E+02  0.57657181148E+02  0.00000000000E+00 0. -1.
        -12    1    4    4    0    0  0.20514229774E+02  0.55890890702E+02 -0.71151970750E+02  0.92775148764E+02  0.00000000000E+00 0.  1.
</event>
<event>
12    1  0.8406581E-002  0.2611231E+03  0.7818608E-02  0.1106526E+00
         21   -1    0    0  501  502  0.00000000000E+00  0.00000000000E+00  0.99909569544E+03  0.99909569544E+03  0.00000000000E+00 0. -1.
         21   -1    0    0  502  503 -0.00000000000E+00 -0.00000000000E+00 -0.19438693254E+03  0.19438693254E+03  0.00000000000E+00 0. -1.
         -6    2    1    2    0  503 -0.19587845983E+03 -0.18714889754E+02 -0.78635300299E+02  0.27235180671E+03  0.17109464645E+03 0.  0.
        -24    2    3    3    0    0 -0.20979985909E+03 -0.46071939669E+02 -0.58815481016E+02  0.23551257797E+03  0.76604889392E+02 0.  0.
          6    2    1    2  501    0  0.19587845983E+03  0.18714889754E+02  0.88334406320E+03  0.92113082127E+03  0.17165849174E+03 0.  0.
         24    2    5    5    0    0  0.26502225986E+02  0.25225436935E+02  0.37567920081E+03  0.38589592114E+03  0.80262752141E+02 0.  0.
          5    1    5    5  501    0  0.16937623384E+03 -0.65105471814E+01  0.50766486238E+03  0.53523490013E+03  0.47000000000E+01 0. -1.
        -11    1    6    6    0    0  0.26965954695E+02  0.47213463347E+02  0.15769831388E+03  0.16680836920E+03  0.00000000000E+00 0.  1.
         12    1    6    6    0    0 -0.46372870914E+00 -0.21988026412E+02  0.21798088693E+03  0.21908755194E+03  0.00000000000E+00 0. -1.
         -5    1    3    3    0  503  0.13921399262E+02  0.27357049915E+02 -0.19819819283E+02  0.36839228736E+02  0.47000000000E+01 0.  1.
         13    1    4    4    0    0 -0.14264277324E+03 -0.25072102870E+02 -0.16253823065E+01  0.14483857555E+03  0.00000000000E+00 0. -1.
        -14    1    4    4    0    0 -0.67157085849E+02 -0.20999836799E+02 -0.57190098709E+02  0.90674002425E+02  0.00000000000E+00 0.  1.
</event>
<event>
12    1  0.8406581E-002  0.1775030E+03  0.7818608E-02  0.1170813E+00
         21   -1    0    0  503  502  0.00000000000E+00  0.00000000000E+00  0.86411733789E+02  0.86411733789E+02  0.00000000000E+00 0.  1.
         21   -1    0    0  501  503 -0.00000000000E+00 -0.00000000000E+00 -0.48146223142E+03  0.48146223142E+03  0.00000000000E+00 0.  1.
          6    2    1    2  501    0  0.49460892024E+01 -0.35838421987E+02 -0.34115352488E+03  0.38456862744E+03  0.17377699901E+03 0.  0.
         24    2    3    3    0    0  0.29367010048E+02 -0.76548371338E+02 -0.29878455943E+03  0.32076501794E+03  0.83041612170E+02 0.  0.
         -6    2    1    2    0  502 -0.49460892024E+01  0.35838421987E+02 -0.53896972743E+02  0.18330533776E+03  0.17142668081E+03 0.  0.
        -24    2    5    5    0    0 -0.25991721903E+02  0.66155825354E+02  0.11179968996E+02  0.10834426821E+03  0.81002011771E+02 0.  0.
          5    1    3    3  501    0 -0.24420920846E+02  0.40709949351E+02 -0.42368965458E+02  0.63803609499E+02  0.47000000000E+01 0. -1.
        -13    1    4    4    0    0  0.33390833523E+01 -0.67863309284E+02 -0.10512481849E+03  0.12517110564E+03  0.00000000000E+00 0.  1.
         14    1    4    4    0    0  0.26027926696E+02 -0.86850620543E+01 -0.19365974094E+03  0.19559391231E+03  0.00000000000E+00 0. -1.
         -5    1    5    5    0  502  0.21045632700E+02 -0.30317403366E+02 -0.65076941739E+02  0.74961069554E+02  0.47000000000E+01 0.  1.
         11    1    6    6    0    0  0.28970980736E+02  0.15812673304E+02  0.66787092794E+01  0.33674374819E+02  0.00000000000E+00 0. -1.
        -12    1    6    6    0    0 -0.54962702639E+02  0.50343152049E+02  0.45012597167E+01  0.74669893388E+02  0.00000000000E+00 0.  1.
</event>
<event>
12    1  0.8406581E-002  0.2072894E+03  0.7818608E-02  0.1143877E+00
         21   -1    0    0  501  502  0.00000000000E+00  0.00000000000E+00  0.30574093232E+02  0.30574093232E+02  0.00000000000E+00 0. -1.
         21   -1    0    0  502  503 -0.00000000000E+00 -0.00000000000E+00 -0.27290623649E+04  0.27290623649E+04  0.00000000000E+00 0. -1.
         -6    2    1    2    0  503 -0.56856303785E+02 -0.10038384907E+03 -0.23107686089E+04  0.23199826971E+04  0.17134349832E+03 0.  0.
        -24    2    3    3    0    0  0.29396195651E+02 -0.62975363086E+02 -0.91385890812E+03  0.91990495259E+03  0.79101107236E+02 0.  0.
          6    2    1    2  501    0  0.56856303785E+02  0.10038384907E+03 -0.38771966271E+03  0.43965376100E+03  0.17221886155E+03 0.  0.
         24    2    5    5    0    0  0.16405256984E+02  0.33860417546E+01 -0.26747594372E+03  0.27988673133E+03  0.80700707385E+02 0.  0.
          5    1    5    5  501    0  0.40451046802E+02  0.96997807315E+02 -0.12024371899E+03  0.15976702967E+03  0.47000000000E+01 0. -1.
        -11    1    6    6    0    0 -0.75850093263E+01  0.38118703590E+02 -0.15353019295E+03  0.15837325556E+03  0.00000000000E+00 0.  1.
         12    1    6    6    0    0  0.23990266310E+02 -0.34732661835E+02 -0.11394575077E+03  0.12151347577E+03  0.00000000000E+00 0. -1.
         -5    1    3    3    0  503 -0.86252499436E+02 -0.37408485983E+02 -0.13969097008E+04  0.14000777445E+04  0.47000000000E+01 0.  1.
         13    1    4    4    0    0 -0.22848396868E+02 -0.44025176849E+02 -0.40924346021E+03  0.41223837177E+03  0.00000000000E+00 0. -1.
        -14    1    4    4    0    0  0.52244592519E+02 -0.18950186237E+02 -0.50461544791E+03  0.50766658082E+03  0.00000000000E+00 0.  1.
</event>
<event>
12    1  0.8406581E-002  0.2666485E+03  0.7818608E-02  0.1103804E+00
         21   -1    0    0  501  502  0.00000000000E+00  0.00000000000E+00  0.28424230343E+03  0.28424230343E+03  0.00000000000E+00 0. -1.
         21   -1    0    0  502  503 -0.00000000000E+00 -0.00000000000E+00 -0.41377569702E+03  0.41377569702E+03  0.00000000000E+00 0.  1.
         -6    2    1    2    0  503  0.87775730591E+02  0.18113715750E+03 -0.28704401445E+03  0.39178526599E+03  0.17488904970E+03 0.  0.
        -24    2    3    3    0    0  0.34628250330E+02  0.66675535826E+02 -0.22662918962E+03  0.25179184273E+03  0.79959988007E+02 0.  0.
          6    2    1    2  501    0 -0.87775730591E+02 -0.18113715750E+03  0.15751062086E+03  0.30623273446E+03  0.16868207748E+03 0.  0.
         24    2    5    5    0    0 -0.37265848432E+02 -0.14121807726E+02  0.49683180690E+02  0.10106396952E+03  0.78468710821E+02 0.  0.
          5    1    5    5  501    0 -0.50509882159E+02 -0.16701534977E+03  0.10782744017E+03  0.20516876495E+03  0.47000000000E+01 0. -1.
        -11    1    6    6    0    0  0.61439988845E+01 -0.37359917050E+02  0.14482803783E+02  0.40537189465E+02  0.00000000000E+00 0.  1.
         12    1    6    6    0    0 -0.43409847316E+02  0.23238109323E+02  0.35200376907E+02  0.60526780051E+02  0.00000000000E+00 0. -1.
         -5    1    3    3    0  503  0.53147480261E+02  0.11446162167E+03 -0.60414824833E+02  0.13999342325E+03  0.47000000000E+01 0.  1.
         11    1    4    4    0    0  0.23676792397E+02 -0.88063993760E+01 -0.10680740854E+03  0.10975411467E+03  0.00000000000E+00 0. -1.
        -12    1    4    4    0    0  0.10951457933E+02  0.75481935202E+02 -0.11982178108E+03  0.14203772806E+03  0.00000000000E+00 0.  1.
</event>
<event>
12    1  0.8406581E-002  0.2257151E+03  0.7818608E-02  0.1132153E+00
         21   -1    0    0  501  502  0.00000000000E+00  0.00000000000E+00  0.11085209309E+04  0.11085209309E+04  0.00000000000E+00 0.  1.
         21   -1    0    0  502  503 -0.00000000000E+00 -0.00000000000E+00 -0.92913931234E+02  0.92913931234E+02  0.00000000000E+00 0.  1.
         -6    2    1    2    0  503 -0.67158904793E+02  0.10358900564E+03  0.61827304471E+02  0.22131088459E+03  0.17295921912E+03 0.  0.
        -24    2    3    3    0    0  0.18699039393E+01  0.44928532981E+02  0.80986150253E+02  0.12860069713E+03  0.89203773201E+02 0.  0.
          6    2    1    2  501    0  0.67158904793E+02 -0.10358900564E+03  0.95377969524E+03  0.98012397759E+03  0.18896111719E+03 0.  0.
         24    2    5    5    0    0  0.89109287744E+02 -0.37428897528E+02  0.81665933693E+03  0.82623095669E+03  0.79898270776E+02 0.  0.
          5    1    5    5  501    0 -0.21950382951E+02 -0.66160108108E+02  0.13712035831E+03  0.15389302090E+03  0.47000000000E+01 0. -1.
        -13    1    6    6    0    0  0.33046148073E+02  0.22236753717E+02  0.18166727204E+03  0.18598257674E+03  0.00000000000E+00 0.  1.
         14    1    6    6    0    0  0.56063139672E+02 -0.59665651245E+02  0.63499206489E+03  0.64024837996E+03  0.00000000000E+00 0. -1.
         -5    1    3    3    0  503 -0.69028808733E+02  0.58660472655E+02 -0.19158845782E+02  0.92710187460E+02  0.47000000000E+01 0.  1.
         13    1    4    4    0    0  0.28108635227E+02  0.18740837240E+02 -0.57549160335E+01  0.34270007489E+02  0.00000000000E+00 0. -1.
        -14    1    4    4    0    0 -0.26238731288E+02  0.26187695742E+02  0.86741066287E+02  0.94330689642E+02  0.00000000000E+00 0.  1.
</event>
<event>
12    1  0.8406581E-002  0.1992902E+03  0.7818608E-02  0.1150997E+00
         21   -1    0    0  501  502  0.00000000000E+00  0.00000000000E+00  0.30826890743E+03  0.30826890743E+03  0.00000000000E+00 0.  1.
         21   -1    0    0  502  503 -0.00000000000E+00 -0.00000000000E+00 -0.13176513658E+03  0.13176513658E+03  0.00000000000E+00 0.  1.
         -6    2    1    2    0  503 -0.10147332869E+03  0.26053913679E+02  0.45115359406E+02  0.20133028711E+03  0.16590010850E+03 0.  0.
        -24    2    3    3    0    0 -0.23278505448E+02  0.61487298064E+02  0.52315662595E+02  0.11505230917E+03  0.78597256020E+02 0.  0.
          6    2    1    2  501    0  0.10147332869E+03 -0.26053913679E+02  0.13138841144E+03  0.23870375691E+03  0.16953148984E+03 0.  0.
         24    2    5    5    0    0  0.26775355339E+02 -0.60527127194E+02  0.30444103128E+02  0.10839630104E+03  0.80264948045E+02 0.  0.
          5    1    5    5  501    0  0.74697973350E+02  0.34473213515E+02  0.10094430831E+03  0.13030745586E+03  0.47000000000E+01 0. -1.
        -13    1    6    6    0    0  0.20388789047E+02  0.15336649049E+02  0.18072575827E+02  0.31265532458E+02  0.00000000000E+00 0.  1.
         14    1    6    6    0    0  0.63865662924E+01 -0.75863776243E+02  0.12371527302E+02  0.77130768586E+02  0.00000000000E+00 0. -1.
         -5    1    3    3    0  503 -0.78194823242E+02 -0.35433384386E+02 -0.72003031887E+01  0.86277977937E+02  0.47000000000E+01 0.  1.
         13    1    4    4    0    0  0.23135770421E+02 -0.26586432620E+01  0.12370756752E+02  0.26369828964E+02  0.00000000000E+00 0. -1.
        -14    1    4    4    0    0 -0.46414275869E+02  0.64145941326E+02  0.39944905843E+02  0.88682480208E+02  0.00000000000E+00 0.  1.
</event>
<event>
12    1  0.8406581E-002  0.2007616E+03  0.7818608E-02  0.1149227E+00
         21   -1    0    0  501  502  0.00000000000E+00  0.00000000000E+00  0.17624830575E+02  0.17624830575E+02  0.00000000000E+00 0. -1.
         21   -1    0    0  502  503 -0.00000000000E+00 -0.00000000000E+00 -0.24501085075E+04  0.24501085075E+04  0.00000000000E+00 0.  1.
         -6    2    1    2    0  503 -0.59073206645E+02  0.83738015160E+02 -0.88927784151E+03  0.91152337190E+03  0.17192463230E+03 0.  0.
        -24    2    3    3    0    0 -0.53446370004E+02  0.48773796346E+02 -0.25354743658E+03  0.27478999312E+03  0.77381134976E+02 0.  0.
          6    2    1    2  501    0  0.59073206645E+02 -0.83738015160E+02 -0.15432058354E+04  0.15562099662E+04  0.17263692955E+03 0.  0.
         24    2    5    5    0    0 -0.70784512428E+01 -0.66268539815E+02 -0.49535623035E+03  0.50611848957E+03  0.79602177709E+02 0.  0.
          5    1    5    5  501    0  0.66151657888E+02 -0.17469475345E+02 -0.10478496051E+04  0.10500914766E+04  0.47000000000E+01 0. -1.
        -13    1    6    6    0    0  0.26783488530E+01 -0.69250025344E+02 -0.48944612954E+03  0.49432808264E+03  0.00000000000E+00 0.  1.
         14    1    6    6    0    0 -0.97568000958E+01  0.29814855287E+01 -0.59101008141E+01  0.11790406935E+02  0.00000000000E+00 0. -1.
         -5    1    3    3    0  503 -0.56268366408E+01  0.34964218813E+02 -0.63573040494E+03  0.63673337878E+03  0.47000000000E+01 0.  1.
         11    1    4    4    0    0 -0.15232241640E+02  0.63087640421E+02 -0.14668530623E+03  0.16040152936E+03  0.00000000000E+00 0. -1.
        -12    1    4    4    0    0 -0.38214128364E+02 -0.14313844074E+02 -0.10686213035E+03  0.11438846376E+03  0.00000000000E+00 0.  1.
</event>
<event>
12    1  0.8406581E-002  0.2257595E+03  0.7818608E-02  0.1129787E+00
         21   -1    0    0  501  502  0.00000000000E+00  0.00000000000E+00  0.17980893670E+03  0.17980893670E+03  0.00000000000E+00 0.  1.
         21   -1    0    0  502  503 -0.00000000000E+00 -0.00000000000E+00 -0.28287113158E+03  0.28287113158E+03  0.00000000000E+00 0. -1.
         -6    2    1    2    0  503  0.10071006459E+03  0.10515207058E+03 -0.58976086183E+02  0.23265634153E+03  0.17161386733E+03 0.  0.
        -24    2    3    3    0    0  0.10830301640E+03  0.44833601355E+02 -0.86005901589E+02  0.16595797898E+03  0.80033995941E+02 0.  0.
          6    2    1    2  501    0 -0.10071006459E+03 -0.10515207058E+03 -0.44086108694E+02  0.23002372674E+03  0.17253363390E+03 0.  0.
         24    2    5    5    0    0 -0.29934910713E+02 -0.83074156360E+02  0.21082489831E+02  0.13120271209E+03  0.94722045739E+02 0.  0.
          5    1    5    5  501    0 -0.70775153875E+02 -0.22077914219E+02 -0.65168598525E+02  0.98821014648E+02  0.47000000000E+01 0. -1.
        -13    1    6    6    0    0  0.31366587411E+02 -0.87349388279E+01  0.10783456863E+02  0.34299342619E+02  0.00000000000E+00 0.  1.
         14    1    6    6    0    0 -0.61301498124E+02 -0.74339217532E+02  0.10299032968E+02  0.96903369475E+02  0.00000000000E+00 0. -1.
         -5    1    3    3    0  503 -0.75929518136E+01  0.60318469225E+02  0.27029815406E+02  0.66698362557E+02  0.47000000000E+01 0.  1.
         13    1    4    4    0    0  0.22648389302E+02 -0.17149121765E+02  0.18813846249E+01  0.28470713434E+02  0.00000000000E+00 0. -1.
        -14    1    4    4    0    0  0.85654627099E+02  0.61982723120E+02 -0.87887286214E+02  0.13748726554E+03  0.00000000000E+00 0.  1.
</event>
<event>
12    1  0.8406581E-002  0.2787083E+03  0.7818608E-02  0.1096843E+00
         21   -1    0    0  503  502  0.00000000000E+00  0.00000000000E+00  0.13716094797E+04  0.13716094797E+04  0.00000000000E+00 0.  1.
         21   -1    0    0  501  503 -0.00000000000E+00 -0.00000000000E+00 -0.57054529743E+02  0.57054529743E+02  0.00000000000E+00 0. -1.
          6    2    1    2  501    0 -0.19130670517E+03 -0.10688810729E+03  0.75161289785E+03  0.80050634734E+03  0.16692855058E+03 0.  0.
         24    2    3    3    0    0 -0.16634052054E+03 -0.69078524152E+02  0.71624752932E+03  0.74283768824E+03  0.79726385453E+02 0.  0.
         -6    2    1    2    0  502  0.19130670517E+03  0.10688810729E+03  0.56294205208E+03  0.62815766207E+03  0.17220618892E+03 0.  0.
        -24    2    5    5    0    0  0.12047549311E+03  0.96765015486E+02  0.51403237292E+03  0.54136028709E+03  0.70454718524E+02 0.  0.
          5    1    3    3  501    0 -0.24966184626E+02 -0.37809583134E+02  0.35365368531E+02  0.57668659105E+02  0.47000000000E+01 0. -1.
        -11    1    4    4    0    0 -0.51885743938E+02 -0.63140441099E+02  0.26909072775E+03  0.28122707104E+03  0.00000000000E+00 0.  1.
         12    1    4    4    0    0 -0.11445477660E+03 -0.59380830535E+01  0.44715680157E+03  0.46161061720E+03  0.00000000000E+00 0. -1.
         -5    1    5    5    0  502  0.70831212054E+02  0.10123091800E+02  0.48909679152E+02  0.86797374979E+02  0.47000000000E+01 0.  1.
         13    1    6    6    0    0  0.12051301264E+03  0.10497604607E+03  0.46635666698E+03  0.49298265416E+03  0.00000000000E+00 0. -1.
        -14    1    6    6    0    0 -0.37519530283E-01 -0.82110305805E+01  0.47675705943E+02  0.48377632932E+02  0.00000000000E+00 0.  1.
</event>
<event>
12    1  0.8406581E-002  0.2420276E+03  0.7818608E-02  0.1119129E+00
         21   -1    0    0  503  502  0.00000000000E+00  0.00000000000E+00  0.95515020926E+02  0.95515020926E+02  0.00000000000E+00 0.  1.
         21   -1    0    0  501  503 -0.00000000000E+00 -0.00000000000E+00 -0.60310819024E+03  0.60310819024E+03  0.00000000000E+00 0. -1.
          6    2    1    2  501    0  0.54793432133E+02 -0.16100793861E+03 -0.25070770439E+03  0.34847056657E+03  0.17219612720E+03 0.  0.
         24    2    3    3    0    0  0.99536585674E+02 -0.14041367558E+03 -0.20117217974E+03  0.27845677035E+03  0.86280906776E+02 0.  0.
         -6    2    1    2    0  502 -0.54793432133E+02  0.16100793861E+03 -0.25688546492E+03  0.35015264460E+03  0.16640569680E+03 0.  0.
        -24    2    5    5    0    0 -0.69780918048E+02  0.37186244733E+02 -0.12474913804E+03  0.16838758885E+03  0.80869273000E+02 0.  0.
          5    1    3    3  501    0 -0.44743153541E+02 -0.20594263034E+02 -0.49535524647E+02  0.70013796217E+02  0.47000000000E+01 0. -1.
        -13    1    4    4    0    0  0.20241571449E+02 -0.70190405596E+02 -0.34051165538E+02  0.80597122324E+02  0.00000000000E+00 0.  1.
         14    1    4    4    0    0  0.79295014226E+02 -0.70223269984E+02 -0.16712101421E+03  0.19785964803E+03  0.00000000000E+00 0. -1.
         -5    1    5    5    0  502  0.14987485915E+02  0.12382169388E+03 -0.13213632689E+03  0.18176505575E+03  0.47000000000E+01 0.  1.
         11    1    6    6    0    0 -0.85797094915E+02  0.38301478556E+02 -0.11833118549E+03  0.15109736667E+03  0.00000000000E+00 0. -1.
        -12    1    6    6    0    0  0.16016176867E+02 -0.11152338228E+01 -0.64179525429E+01  0.17290222172E+02  0.00000000000E+00 0.  1.
</event>
<event>
12    1  0.8406581E-002  0.2196909E+03  0.7818608E-02  0.1135596E+00
         21   -1    0    0  501  502  0.00000000000E+00  0.00000000000E+00  0.14701612766E+03  0.14701612766E+03  0.00000000000E+00 0. -1.
         21   -1    0    0  502  503 -0.00000000000E+00 -0.00000000000E+00 -0.36475979169E+03  0.36475979169E+03  0.00000000000E+00 0. -1.
         -6    2    1    2    0  503  0.83358495591E+02  0.93454172000E+02 -0.19998181097E+03  0.29136822029E+03  0.17093973800E+03 0.  0.
        -24    2    3    3    0    0  0.53353286230E+02 -0.13244137023E+02 -0.12232036706E+03  0.15594949335E+03  0.79598944476E+02 0.  0.
          6    2    1    2  501    0 -0.83358495591E+02 -0.93454172000E+02 -0.17761853058E+02  0.22040769905E+03  0.18050415321E+03 0.  0.
         24    2    5    5    0    0 -0.12080203857E+03 -0.96732377825E+02  0.94768856993E+01  0.17375146224E+03  0.78418580873E+02 0.  0.
          5    1    5    5  501    0  0.37443542979E+02  0.32782058253E+01 -0.27238738757E+02  0.46656236811E+02  0.47000000000E+01 0. -1.
        -11    1    6    6    0    0  0.96352666423E+01 -0.83349875604E-01  0.60417372810E+01  0.11373121816E+02  0.00000000000E+00 0.  1.
         12    1    6    6    0    0 -0.13043730521E+03 -0.96649027949E+02  0.34351484183E+01  0.16237834042E+03  0.00000000000E+00 0. -1.
         -5    1    3    3    0  503  0.30005209360E+02  0.10669830902E+03 -0.77661443906E+02  0.13541872694E+03  0.47000000000E+01 0.  1.
         11    1    4    4    0    0  0.68921405871E+02  0.35020241711E+01 -0.11032069716E+03  0.13012717081E+03  0.00000000000E+00 0. -1.
        -12    1    4    4    0    0 -0.15568119640E+02 -0.16746161194E+02 -0.11999669902E+02  0.25822322545E+02  0.00000000000E+00 0.  1.
</event>
<event>
12    1  0.8406581E-002  0.2876645E+03  0.7818608E-02  0.1091758E+00
         21   -1    0    0  503  502  0.00000000000E+00  0.00000000000E+00  0.23041853527E+03  0.23041853527E+03  0.00000000000E+00 0.  1.
         21   -1    0    0  501  503 -0.00000000000E+00 -0.00000000000E+00 -0.51512055161E+03  0.51512055161E+03  0.00000000000E+00 0. -1.
          6    2    1    2  501    0 -0.51223998268E+02 -0.22304475176E+03 -0.34884974095E+03  0.45215814204E+03  0.17429281213E+03 0.  0.
         24    2    3    3    0    0  0.42921981850E+02 -0.91066105695E+02 -0.10329508116E+03  0.15787764738E+03  0.64188360452E+02 0.  0.
         -6    2    1    2    0  502  0.51223998268E+02  0.22304475176E+03  0.64147724617E+02  0.29338094484E+03  0.17200171201E+03 0.  0.
        -24    2    5    5    0    0  0.53430364951E+02  0.13647520472E+03 -0.25218760671E+02  0.16885137718E+03  0.79965719428E+02 0.  0.
          5    1    3    3  501    0 -0.94145980117E+02 -0.13197864607E+03 -0.24555465979E+03  0.29428049466E+03  0.47000000000E+01 0. -1.
        -13    1    4    4    0    0  0.17035303445E+02  0.56667157522E+01 -0.80381723436E+01  0.19670420573E+02  0.00000000000E+00 0.  1.
         14    1    4    4    0    0  0.25886678404E+02 -0.96732821447E+02 -0.95256908818E+02  0.13820722681E+03  0.00000000000E+00 0. -1.
         -5    1    5    5    0  502 -0.22063666839E+01  0.86569547040E+02  0.89366485288E+02  0.12452956766E+03  0.47000000000E+01 0.  1.
         13    1    6    6    0    0  0.41688173792E+02  0.41994101851E+02 -0.41481755703E+02  0.72264406734E+02  0.00000000000E+00 0. -1.
        -14    1    6    6    0    0  0.11742191160E+02  0.94481102871E+02  0.16262995032E+02  0.96586970448E+02  0.00000000000E+00 0.  1.
</event>
<event>
12    1  0.8406581E-002  0.2146226E+03  0.7818608E-02  0.1137979E+00
         21   -1    0    0  501  502  0.00000000000E+00  0.00000000000E+00  0.10907965287E+04  0.10907965287E+04  0.00000000000E+00 0.  1.
         21   -1    0    0  502  503 -0.00000000000E+00 -0.00000000000E+00 -0.42273537035E+02  0.42273537035E+02  0.00000000000E+00 0.  1.
         -6    2    1    2    0  503 -0.86384927541E+02  0.94705616272E+02  0.50152215781E+03  0.54547090804E+03  0.17199571880E+03 0.  0.
        -24    2    3    3    0    0 -0.94657637449E+02  0.10276287140E+03  0.27671461872E+03  0.32031790068E+03  0.80698830350E+02 0.  0.
          6    2    1    2  501    0  0.86384927541E+02 -0.94705616272E+02  0.54700083383E+03  0.58759915767E+03  0.17213758574E+03 0.  0.
         24    2    5    5    0    0  0.15280508866E+02 -0.85069712467E+02  0.18666302244E+03  0.22015648552E+03  0.78456639241E+02 0.  0.
          5    1    5    5  501    0  0.71104418675E+02 -0.96359038043E+01  0.36033781139E+03  0.36744267215E+03  0.47000000000E+01 0. -1.
        -13    1    6    6    0    0  0.42820365460E+02 -0.37670874415E+02  0.12651276444E+03  0.13877376569E+03  0.00000000000E+00 0.  1.
         14    1    6    6    0    0 -0.27539856594E+02 -0.47398838053E+02  0.60150257995E+02  0.81382719830E+02  0.00000000000E+00 0. -1.
         -5    1    3    3    0  503  0.82727099079E+01 -0.80572551268E+01  0.22480753910E+03  0.22515300736E+03  0.47000000000E+01 0.  1.
         13    1    4    4    0    0 -0.44173136909E+02  0.86156468676E+02  0.11629048473E+03  0.15131979367E+03  0.00000000000E+00 0. -1.
        -14    1    4    4    0    0 -0.50484500539E+02  0.16606402722E+02  0.16042413399E+03  0.16899810701E+03  0.00000000000E+00 0.  1.
</event>
<event>
12    1  0.8406581E-002  0.1774101E+03  0.7818608E-02  0.1170512E+00
         21   -1    0    0  501  502  0.00000000000E+00  0.00000000000E+00  0.25813729989E+02  0.25813729989E+02  0.00000000000E+00 0. -1.
         21   -1    0    0  502  503 -0.00000000000E+00 -0.00000000000E+00 -0.14196135090E+04  0.14196135090E+04  0.00000000000E+00 0. -1.
         -6    2    1    2    0  503 -0.30085923401E+02 -0.29606076168E+02 -0.97050836178E+03  0.98646103438E+03  0.17157275284E+03 0.  0.
        -24    2    3    3    0    0 -0.45312234632E+02  0.20565433206E+02 -0.35200168877E+03  0.36571824105E+03  0.85840009833E+02 0.  0.
          6    2    1    2  501    0  0.30085923401E+02  0.29606076168E+02 -0.42329141723E+03  0.45896620462E+03  0.17231561318E+03 0.  0.
         24    2    5    5    0    0  0.57544053253E+01 -0.42784956833E+02 -0.14804654947E+03  0.17328401816E+03  0.79031034581E+02 0.  0.
          5    1    5    5  501    0  0.24331518076E+02  0.72391033001E+02 -0.27524486776E+03  0.28568218645E+03  0.47000000000E+01 0. -1.
        -13    1    6    6    0    0  0.11459311667E+02 -0.21551748583E+02 -0.14928077079E+03  0.15126315553E+03  0.00000000000E+00 0.  1.
         14    1    6    6    0    0 -0.57049063417E+01 -0.21233208250E+02  0.12342213191E+01  0.22020862636E+02  0.00000000000E+00 0. -1.
         -5    1    3    3    0  503  0.15226311231E+02 -0.50171509374E+02 -0.61850667301E+03  0.62074279333E+03  0.47000000000E+01 0.  1.
         11    1    4    4    0    0 -0.21722528728E+02  0.22086767009E+02 -0.33541078997E+03  0.33683837602E+03  0.00000000000E+00 0. -1.
        -12    1    4    4    0    0 -0.23589705904E+02 -0.15213338031E+01 -0.16590898804E+02  0.28879865032E+02  0.00000000000E+00 0.  1.
</event>
<event>
12    1  0.8406581E-002  0.2014173E+03  0.7818608E-02  0.1148671E+00
         21   -1    0    0  501  502  0.00000000000E+00  0.00000000000E+00  0.25913661976E+03  0.25913661976E+03  0.00000000000E+00 0. -1.
         21   -1    0    0  502  503 -0.00000000000E+00 -0.00000000000E+00 -0.17190966372E+03  0.17190966372E+03  0.00000000000E+00 0. -1.
         -6    2    1    2    0  503  0.73899183987E+02 -0.74285878007E+02 -0.21684955413E+02  0.20258125359E+03  0.17201583051E+03 0.  0.
        -24    2    3    3    0    0  0.68403728646E+02  0.10845805163E+02 -0.44399663534E+02  0.11417508031E+03  0.79170179100E+02 0.  0.
          6    2    1    2  501    0 -0.73899183987E+02  0.74285878007E+02  0.10891191146E+03  0.22846502990E+03  0.17133296344E+03 0.  0.
         24    2    5    5    0    0 -0.91887965461E+02  0.13838898447E+02  0.23725116210E+02  0.12236925391E+03  0.76002893741E+02 0.  0.
          5    1    5    5  501    0  0.17988781475E+02  0.60446979560E+02  0.85186795248E+02  0.10609577598E+03  0.47000000000E+01 0. -1.
        -11    1    6    6    0    0 -0.31339935031E+02 -0.16828395366E+02  0.39014452867E+02  0.52796912323E+02  0.00000000000E+00 0.  1.
         12    1    6    6    0    0 -0.60548030430E+02  0.30667293813E+02 -0.15289336657E+02  0.69572341589E+02  0.00000000000E+00 0. -1.
         -5    1    3    3    0  503  0.54954553402E+01 -0.85131683170E+02  0.22714708121E+02  0.88406173278E+02  0.47000000000E+01 0.  1.
         11    1    4    4    0    0  0.75317641551E+02 -0.25945568186E+01 -0.92679681894E+01  0.75930060505E+02  0.00000000000E+00 0. -1.
        -12    1    4    4    0    0 -0.69139129048E+01  0.13440361981E+02 -0.35131695345E+02  0.38245019802E+02  0.00000000000E+00 0.  1.
</event>
<event>
12    1  0.8406581E-002  0.1838004E+03  0.7818608E-02  0.1164569E+00
         21   -1    0    0  503  502  0.00000000000E+00  0.00000000000E+00  0.41689463560E+03  0.41689463560E+03  0.00000000000E+00 0. -1.
         21   -1    0    0  501  503 -0.00000000000E+00 -0.00000000000E+00 -0.19250195948E+03  0.19250195948E+03  0.00000000000E+00 0. -1.
          6    2    1    2  501    0  0.64189451588E+02  0.60876448594E+01 -0.12021127151E+03  0.21962087043E+03  0.17211981819E+03 0.  0.
         24    2    3    3    0    0 -0.18862945657E+02  0.40474052869E+02 -0.79899437383E+02  0.12099399927E+03  0.79130702578E+02 0.  0.
         -6    2    1    2    0  502 -0.64189451588E+02 -0.60876448594E+01  0.34460394764E+03  0.38977572465E+03  0.17034051100E+03 0.  0.
        -24    2    5    5    0    0 -0.11963459408E+02  0.47811726675E+02  0.11662944692E+03  0.14971914905E+03  0.79901878175E+02 0.  0.
          5    1    3    3  501    0  0.83052397245E+02 -0.34386408009E+02 -0.40311834131E+02  0.98626871161E+02  0.47000000000E+01 0. -1.
        -13    1    4    4    0    0  0.18553738522E+02  0.41498828539E+02 -0.67852819398E+02  0.81672511187E+02  0.00000000000E+00 0.  1.
         14    1    4    4    0    0 -0.37416684179E+02 -0.10247756705E+01 -0.12046617984E+02  0.39321488082E+02  0.00000000000E+00 0. -1.
         -5    1    5    5    0  502 -0.52225992180E+02 -0.53899371534E+02  0.22797450072E+03  0.24005657560E+03  0.47000000000E+01 0.  1.
         13    1    6    6    0    0  0.10023464316E+02  0.81114662249E+01  0.10085156971E+03  0.10167253727E+03  0.00000000000E+00 0. -1.
        -14    1    6    6    0    0 -0.21986923724E+02  0.39700260450E+02  0.15777877203E+02  0.48046611781E+02  0.00000000000E+00 0.  1.
</event>
<event>
12    1  0.8406581E-002  0.1804899E+03  0.7818608E-02  0.1167443E+00
         21   -1    0    0  503  502  0.00000000000E+00  0.00000000000E+00  0.17841090090E+03  0.17841090090E+03  0.00000000000E+00 0.  1.
         21   -1    0    0  501  503 -0.00000000000E+00 -0.00000000000E+00 -0.18762193786E+03  0.18762193786E+03  0.00000000000E+00 0.  1.
          6    2    1    2  501    0  0.50022805830E+02  0.19624625761E+02 -0.35942329375E+02  0.18357419596E+03  0.17181451435E+03 0.  0.
         24    2    3    3    0    0  0.92493469156E+02  0.26489832745E+02 -0.51922972371E+02  0.13744005176E+03  0.83288772906E+02 0.  0.
         -6    2    1    2    0  502 -0.50022805830E+02 -0.19624625761E+02  0.26731292418E+02  0.18245864280E+03  0.17230550571E+03 0.  0.
        -24    2    5    5    0    0 -0.61432403830E+02  0.50005396714E+02  0.25128502847E+02  0.11172549717E+03  0.74677072262E+02 0.  0.
          5    1    3    3  501    0 -0.42470663326E+02 -0.68652069836E+01  0.15980642996E+02  0.46134144198E+02  0.47000000000E+01 0. -1.
        -13    1    4    4    0    0  0.30641219095E+02  0.48727646054E+02 -0.41333397707E+02  0.70864078090E+02  0.00000000000E+00 0.  1.
         14    1    4    4    0    0  0.61852250061E+02 -0.22237813309E+02 -0.10589574665E+02  0.66575973669E+02  0.00000000000E+00 0. -1.
         -5    1    5    5    0  502  0.11409597999E+02 -0.69630022475E+02  0.16027895710E+01  0.70733145630E+02  0.47000000000E+01 0.  1.
         13    1    6    6    0    0  0.16693063417E+02  0.76646316689E+01 -0.27953547960E+01  0.18580068711E+02  0.00000000000E+00 0. -1.
        -14    1    6    6    0    0 -0.78125467247E+02  0.42340765045E+02  0.27923857643E+02  0.93145428459E+02  0.00000000000E+00 0.  1.
</event>
<event>
12    1  0.8406581E-002  0.2392550E+03  0.7818608E-02  0.1120343E+00
         21   -1    0    0  503  502  0.00000000000E+00  0.00000000000E+00  0.55612796563E+03  0.55612796563E+03  0.00000000000E+00 0.  1.
         21   -1    0    0  501  503 -0.00000000000E+00 -0.00000000000E+00 -0.18218333150E+03  0.18218333150E+03  0.00000000000E+00 0. -1.
          6    2    1    2  501    0  0.10427207826E+03 -0.12885262936E+03 -0.56784222824E+02  0.24559402910E+03  0.17209390684E+03 0.  0.
         24    2    3    3    0    0  0.73838744440E+02 -0.53720401958E+02  0.31391490632E+02  0.12572707850E+03  0.80522238033E+02 0.  0.
         -6    2    1    2    0  502 -0.10427207826E+03  0.12885262936E+03  0.43072885695E+03  0.49271726803E+03  0.17253200168E+03 0.  0.
        -24    2    5    5    0    0 -0.20118030783E+02  0.12408385546E+01  0.11917677190E+03  0.14565320397E+03  0.81274091957E+02 0.  0.
          5    1    3    3  501    0  0.30433333819E+02 -0.75132227404E+02 -0.88175713456E+02  0.11986695060E+03  0.47000000000E+01 0. -1.
        -13    1    4    4    0    0  0.32414762195E+02 -0.69446521461E+02  0.12911100450E+02  0.77718933768E+02  0.00000000000E+00 0.  1.
         14    1    4    4    0    0  0.41423982245E+02  0.15726119503E+02  0.18480390182E+02  0.48008144736E+02  0.00000000000E+00 0. -1.
         -5    1    5    5    0  502 -0.84154047475E+02  0.12761179081E+03  0.31155208505E+03  0.34706406406E+03  0.47000000000E+01 0.  1.
         13    1    6    6    0    0 -0.39003560301E+01  0.29553877451E+02  0.95941304184E+01  0.31315998914E+02  0.00000000000E+00 0. -1.
        -14    1    6    6    0    0 -0.16217674753E+02 -0.28313038896E+02  0.10958264148E+03  0.11433720506E+03  0.00000000000E+00 0.  1.
</event>
<event>
12    1  0.8406581E-002  0.1792066E+03  0.7818608E-02  0.1168610E+00
         21   -1    0    0  503  502  0.00000000000E+00  0.00000000000E+00  0.57524269366E+03  0.57524269366E+03  0.00000000000E+00 0. -1.
         21   -1    0    0  501  503 -0.00000000000E+00 -0.00000000000E+00 -0.58354255700E+02  0.58354255700E+02  0.00000000000E+00 0. -1.
          6    2    1    2  501    0  0.63806973377E+01 -0.47240340259E+02  0.19202524676E+03  0.26265698829E+03  0.17275021001E+03 0.  0.
         24    2    3    3    0    0 -0.31763014909E+02 -0.38383063895E+02  0.20107480690E+03  0.22219245237E+03  0.80350850712E+02 0.  0.
         -6    2    1    2    0  502 -0.63806973377E+01  0.47240340259E+02  0.32486319120E+03  0.37093996107E+03  0.17259200061E+03 0.  0.
        -24    2    5    5    0    0 -0.46806338011E+02  0.42120747368E+02  0.30727808308E+03  0.32631072533E+03  0.89965985175E+02 0.  0.
          5    1    3    3  501    0  0.38143712247E+02 -0.88572763635E+01 -0.90495601418E+01  0.40464535921E+02  0.47000000000E+01 0. -1.
        -13    1    4    4    0    0 -0.37132462451E+02 -0.56605683425E+01  0.30388338998E+02  0.48314728073E+02  0.00000000000E+00 0.  1.
         14    1    4    4    0    0  0.53694475419E+01 -0.32722495553E+02  0.17068646790E+03  0.17387772430E+03  0.00000000000E+00 0. -1.
         -5    1    5    5    0  502  0.40425640673E+02  0.51195928909E+01  0.17585108128E+02  0.44629235744E+02  0.47000000000E+01 0.  1.
         11    1    6    6    0    0 -0.84532216213E+01  0.21540154670E+02  0.89275947630E+01  0.24801958940E+02  0.00000000000E+00 0. -1.
        -12    1    6    6    0    0 -0.38353116389E+02  0.20580592698E+02  0.29835048831E+03  0.30150876639E+03  0.00000000000E+00 0.  1.
</event>
<event>
12    1  0.8406581E-002  0.1968961E+03  0.7818608E-02  0.1152709E+00
         21   -1    0    0  503  502  0.00000000000E+00  0.00000000000E+00  0.69771746742E+03  0.69771746742E+03  0.00000000000E+00 0. -1.
         21   -1    0    0  501  503 -0.00000000000E+00 -0.00000000000E+00 -0.11379131957E+03  0.11379131957E+03  0.00000000000E+00 0.  1.
          6    2    1    2  501    0 -0.70354241025E+01  0.92890815359E+02  0.12046404305E+01  0.19689978906E+03  0.17346433352E+03 0.  0.
         24    2    3    3    0    0  0.32390306826E+02  0.95741062750E+02 -0.45081652249E+02  0.13585043969E+03  0.78787711735E+02 0.  0.
         -6    2    1    2    0  502  0.70354241025E+01 -0.92890815359E+02  0.58272150741E+03  0.61460899793E+03  0.17176048544E+03 0.  0.
        -24    2    5    5    0    0 -0.18291527710E+02 -0.10592180965E+03  0.56506603602E+03  0.58077015973E+03  0.80251751530E+02 0.  0.
          5    1    3    3  501    0 -0.39425730929E+02 -0.28502473918E+01  0.46286292679E+02  0.61049349378E+02  0.47000000000E+01 0. -1.
        -13    1    4    4    0    0  0.46171605747E+02  0.62845813767E+02 -0.58769425340E+02  0.97648649966E+02  0.00000000000E+00 0.  1.
         14    1    4    4    0    0 -0.13781298921E+02  0.32895248983E+02  0.13687773091E+02  0.38201789720E+02  0.00000000000E+00 0. -1.
         -5    1    5    5    0  502  0.25326951813E+02  0.13030994289E+02  0.17655471389E+02  0.33838838193E+02  0.47000000000E+01 0.  1.
         11    1    6    6    0    0  0.25202538605E+02 -0.58673804821E+02  0.19546825928E+03  0.20563468508E+03  0.00000000000E+00 0. -1.
        -12    1    6    6    0    0 -0.43494066316E+02 -0.47248004826E+02  0.36959777675E+03  0.37513547465E+03  0.00000000000E+00 0.  1.
</event>
<event>
12    1  0.8406581E-002  0.1822917E+03  0.7818608E-02  0.1167372E+00
         21   -1    0    0  503  502  0.00000000000E+00  0.00000000000E+00  0.18184721850E+03  0.18184721850E+03  0.00000000000E+00 0.  1.
         21   -1    0    0  501  503 -0.00000000000E+00 -0.00000000000E+00 -0.25639669052E+03  0.25639669052E+03  0.00000000000E+00 0.  1.
          6    2    1    2  501    0 -0.23390070729E+02 -0.28637546095E+02 -0.15980376156E+03  0.23700136963E+03  0.17107075303E+03 0.  0.
         24    2    3    3    0    0 -0.14831580708E+02 -0.69501196501E+02 -0.16286636433E+03  0.19487589976E+03  0.80004822205E+02 0.  0.
         -6    2    1    2    0  502  0.23390070729E+02  0.28637546095E+02  0.85254289536E+02  0.20124253940E+03  0.17850227260E+03 0.  0.
        -24    2    5    5    0    0  0.48122494030E+02 -0.41711043651E+02  0.29203879170E+02  0.10783828177E+03  0.81979527090E+02 0.  0.
          5    1    3    3  501    0 -0.85584900207E+01  0.40863650407E+02  0.30626027694E+01  0.42125469869E+02  0.47000000000E+01 0. -1.
        -13    1    4    4    0    0  0.81063842624E+00 -0.70203775143E+02 -0.64717923204E+02  0.95486317149E+02  0.00000000000E+00 0.  1.
         14    1    4    4    0    0 -0.15642219135E+02  0.70257864145E+00 -0.98148441123E+02  0.99389582609E+02  0.00000000000E+00 0. -1.
         -5    1    5    5    0  502 -0.24732423301E+02  0.70348589746E+02  0.56050410365E+02  0.93404257632E+02  0.47000000000E+01 0.  1.
         13    1    6    6    0    0  0.39465879715E+01 -0.52951333206E+02 -0.10848690432E+01  0.53109285306E+02  0.00000000000E+00 0. -1.
        -14    1    6    6    0    0  0.44175906058E+02  0.11240289555E+02  0.30288748214E+02  0.54728996462E+02  0.00000000000E+00 0.  1.
</event>
<event>
12    1  0.8406581E-002  0.1911722E+03  0.7818608E-02  0.1158409E+00
         21   -1    0    0  501  502  0.00000000000E+00  0.00000000000E+00  0.16698532435E+04  0.16698532435E+04  0.00000000000E+00 0.  1.
         21   -1    0    0  502  503 -0.00000000000E+00 -0.00000000000E+00 -0.21431790771E+02  0.21431790771E+02  0.00000000000E+00 0. -1.
         -6    2    1    2    0  503 -0.35240023377E+02 -0.64302591182E+02  0.79368915187E+03  0.81638793588E+03  0.17655058644E+03 0.  0.
        -24    2    3    3    0    0  0.17835023407E+02 -0.21326916691E+02  0.18109606368E+03  0.19998202182E+03  0.80150479318E+02 0.  0.
          6    2    1    2  501    0  0.35240023377E+02  0.64302591182E+02  0.85473230082E+03  0.87489709835E+03  0.17175838892E+03 0.  0.
         24    2    5    5    0    0  0.25675812542E+02  0.21628056634E+01  0.22818781665E+03  0.24518850883E+03  0.85929041180E+02 0.  0.
          5    1    5    5  501    0  0.95642108354E+01  0.62139785519E+02  0.62654448417E+03  0.62970858952E+03  0.47000000000E+01 0. -1.
        -13    1    6    6    0    0  0.16294584523E+02 -0.12932458675E+02  0.22636895611E+03  0.22732282390E+03  0.00000000000E+00 0.  1.
         14    1    6    6    0    0  0.93812280189E+01  0.15095264338E+02  0.18188605356E+01  0.17865684936E+02  0.00000000000E+00 0. -1.
         -5    1    3    3    0  503 -0.53075046784E+02 -0.42975674491E+02  0.61259308820E+03  0.61640591407E+03  0.47000000000E+01 0.  1.
         11    1    4    4    0    0  0.42868433679E+02 -0.33495777955E+02  0.94716282211E+02  0.10922840227E+03  0.00000000000E+00 0. -1.
        -12    1    4    4    0    0 -0.25033410272E+02  0.12168861264E+02  0.86379781465E+02  0.90753619544E+02  0.00000000000E+00 0.  1.
</event>
<event>
12    1  0.8406581E-002  0.1729755E+03  0.7818608E-02  0.1174883E+00
         21   -1    0    0  501  502  0.00000000000E+00  0.00000000000E+00  0.39525614609E+03  0.39525614609E+03  0.00000000000E+00 0.  1.
         21   -1    0    0  502  503 -0.00000000000E+00 -0.00000000000E+00 -0.14496817774E+03  0.14496817774E+03  0.00000000000E+00 0.  1.
         -6    2    1    2    0  503 -0.15115852180E+02 -0.41203940568E+01 -0.61883231506E+02  0.18333303052E+03  0.17186040586E+03 0.  0.
        -24    2    3    3    0    0  0.90923708719E+01  0.50783899953E+02  0.11936446583E+01  0.96147585223E+02  0.81124950873E+02 0.  0.
          6    2    1    2  501    0  0.15115852180E+02  0.41203940568E+01  0.31217119986E+03  0.35689129332E+03  0.17226453667E+03 0.  0.
         24    2    5    5    0    0  0.57232328076E+02 -0.29138166125E+02  0.26776379322E+03  0.28707698868E+03  0.81186060205E+02 0.  0.
          5    1    5    5  501    0 -0.42116475896E+02  0.33258560182E+02  0.44407406641E+02  0.69814304636E+02  0.47000000000E+01 0. -1.
        -13    1    6    6    0    0  0.44608220512E+02  0.20949351024E+02  0.99050326810E+02  0.11063333985E+03  0.00000000000E+00 0.  1.
         14    1    6    6    0    0  0.12624107564E+02 -0.50087517150E+02  0.16871346641E+03  0.17644364883E+03  0.00000000000E+00 0. -1.
         -5    1    3    3    0  503 -0.24208223052E+02 -0.54904294010E+02 -0.63076876165E+02  0.87185445292E+02  0.47000000000E+01 0.  1.
         13    1    4    4    0    0 -0.86511904446E+01  0.64772107148E+02 -0.16559694638E+02  0.67412850756E+02  0.00000000000E+00 0. -1.
        -14    1    4    4    0    0  0.17743561317E+02 -0.13988207195E+02  0.17753339296E+02  0.28734734467E+02  0.00000000000E+00 0.  1.
</event>
<event>
12    1  0.8406581E-002  0.1988519E+03  0.7818608E-02  0.1150783E+00
         21   -1    0    0  501  502  0.00000000000E+00  0.00000000000E+00  0.89559207062E+02  0.89559207062E+02  0.00000000000E+00 0.  1.
         21   -1    0    0  502  503 -0.00000000000E+00 -0.00000000000E+00 -0.44150334783E+03  0.44150334783E+03  0.00000000000E+00 0.  1.
         -6    2    1    2    0  503 -0.98196445992E+02 -0.54864297079E+01 -0.16502188029E+03  0.25814863412E+03  0.17244086931E+03 0.  0.
        -24    2    3    3    0    0 -0.97810939014E+02 -0.11186194776E+02 -0.19191400600E+03  0.23025755377E+03  0.80594321286E+02 0.  0.
          6    2    1    2  501    0  0.98196445992E+02  0.54864297079E+01 -0.18692226048E+03  0.27291392077E+03  0.17282775752E+03 0.  0.
         24    2    5    5    0    0  0.11438710342E+03 -0.25801113755E+02 -0.85908417645E+02  0.16583014885E+03  0.79807738636E+02 0.  0.
          5    1    5    5  501    0 -0.16190657428E+02  0.31287543463E+02 -0.10101384284E+03  0.10708377192E+03  0.47000000000E+01 0. -1.
        -11    1    6    6    0    0  0.61131162077E+02  0.10794962876E+02 -0.79543530811E+02  0.10089957133E+03  0.00000000000E+00 0.  1.
         12    1    6    6    0    0  0.53255941343E+02 -0.36596076631E+02 -0.63648868340E+01  0.64930577523E+02  0.00000000000E+00 0. -1.
         -5    1    3    3    0  503 -0.38550697856E+00  0.56997650678E+01  0.26892125718E+02  0.27891080350E+02  0.47000000000E+01 0.  1.
         13    1    4    4    0    0 -0.10498893447E+02  0.11727448091E+02  0.24731659868E+01  0.15933497806E+02  0.00000000000E+00 0. -1.
        -14    1    4    4    0    0 -0.87312045567E+02 -0.22913642867E+02 -0.19438717199E+03  0.21432405596E+03  0.00000000000E+00 0.  1.
</event>
<event>
12    1  0.8406581E-002  0.1863752E+03  0.7818608E-02  0.1161825E+00
         21   -1    0    0  503  502  0.00000000000E+00  0.00000000000E+00  0.20591841870E+04  0.20591841870E+04  0.00000000000E+00 0. -1.
         21   -1    0    0  501  503 -0.00000000000E+00 -0.00000000000E+00 -0.35410615520E+02  0.35410615520E+02  0.00000000000E+00 0.  1.
          6    2    1    2  501    0 -0.25245417015E+02 -0.70077984870E+02  0.25391278335E+03  0.31497206223E+03  0.17084332996E+03 0.  0.
         24    2    3    3    0    0  0.27393239758E+02 -0.37112980483E+02  0.67814660385E+02  0.11872700861E+03  0.85845858982E+02 0.  0.
         -6    2    1    2    0  502  0.25245417015E+02  0.70077984870E+02  0.17698607882E+04  0.17796227403E+04  0.17059200848E+03 0.  0.
        -24    2    5    5    0    0  0.73415920451E+02  0.33953291851E+02  0.77736326259E+03  0.78528938621E+03  0.76439876092E+02 0.  0.
          5    1    3    3  501    0 -0.52638656772E+02 -0.32965004387E+02  0.18609812297E+03  0.19624505363E+03  0.47000000000E+01 0. -1.
        -11    1    4    4    0    0  0.42883365654E+02 -0.25899775506E+02  0.81181913650E+02  0.95395411446E+02  0.00000000000E+00 0.  1.
         12    1    4    4    0    0 -0.15490125896E+02 -0.11213204977E+02 -0.13367253265E+02  0.23331597159E+02  0.00000000000E+00 0. -1.
         -5    1    5    5    0  502 -0.48170503437E+02  0.36124693019E+02  0.99249752558E+03  0.99433335412E+03  0.47000000000E+01 0.  1.
         13    1    6    6    0    0  0.25168451820E+02 -0.24628313312E+02  0.26794475635E+03  0.27024876917E+03  0.00000000000E+00 0. -1.
        -14    1    6    6    0    0  0.48247468631E+02  0.58581605163E+02  0.50941850624E+03  0.51504061704E+03  0.00000000000E+00 0.  1.
</event>
<event>
12    1  0.8406581E-002  0.2215183E+03  0.7818608E-02  0.1132774E+00
         21   -1    0    0  503  502  0.00000000000E+00  0.00000000000E+00  0.42688105671E+02  0.42688105671E+02  0.00000000000E+00 0.  1.
         21   -1    0    0  501  503 -0.00000000000E+00 -0.00000000000E+00 -0.13840752809E+04  0.13840752809E+04  0.00000000000E+00 0. -1.
          6    2    1    2  501    0  0.10698036937E+03  0.90027570179E+02 -0.96480304585E+03  0.98990670544E+03  0.17181561445E+03 0.  0.
         24    2    3    3    0    0  0.65671721066E+02  0.69146780061E+02 -0.31115884194E+03  0.33460887458E+03  0.77776743897E+02 0.  0.
         -6    2    1    2    0  502 -0.10698036937E+03 -0.90027570179E+02 -0.37658412937E+03  0.43685668113E+03  0.17169272124E+03 0.  0.
        -24    2    5    5    0    0 -0.94281029573E+02 -0.12218542516E+03 -0.35665192146E+03  0.39667230878E+03  0.79562156939E+02 0.  0.
          5    1    3    3  501    0  0.41308648306E+02  0.20880790118E+02 -0.65364420391E+03  0.65529783086E+03  0.47000000000E+01 0. -1.
        -13    1    4    4    0    0  0.45434190486E+01  0.53003924522E+02 -0.89570401204E+02  0.10417732691E+03  0.00000000000E+00 0.  1.
         14    1    4    4    0    0  0.61128302017E+02  0.16142855540E+02 -0.22158844074E+03  0.23043154767E+03  0.00000000000E+00 0. -1.
         -5    1    5    5    0  502 -0.12699339799E+02  0.32157854982E+02 -0.19932207919E+02  0.40184372346E+02  0.47000000000E+01 0.  1.
         13    1    6    6    0    0 -0.29667167649E+02 -0.30831095437E+02 -0.19775242977E+03  0.20232825004E+03  0.00000000000E+00 0. -1.
        -14    1    6    6    0    0 -0.64613861924E+02 -0.91354329724E+02 -0.15889949168E+03  0.19434405874E+03  0.00000000000E+00 0.  1.
</event>
<event>
12    1  0.8406581E-002  0.3638591E+03  0.7818608E-02  0.1057088E+00
         21   -1    0    0  501  502  0.00000000000E+00  0.00000000000E+00  0.20712726593E+03  0.20712726593E+03  0.00000000000E+00 0. -1.
         21   -1    0    0  502  503 -0.00000000000E+00 -0.00000000000E+00 -0.11924688079E+04  0.11924688079E+04  0.00000000000E+00 0.  1.
         -6    2    1    2    0  503 -0.29560106140E+03 -0.12377669151E+03 -0.96959712781E+03  0.10356215715E+04  0.17231596650E+03 0.  0.
        -24    2    3    3    0    0 -0.24475011642E+03 -0.87218653097E+02 -0.90697653336E+03  0.94693257770E+03  0.81025685495E+02 0.  0.
          6    2    1    2  501    0  0.29560106140E+03  0.12377669151E+03 -0.15744414175E+02  0.36397450231E+03  0.17183973606E+03 0.  0.
         24    2    5    5    0    0  0.16227482820E+03  0.12807817185E+03  0.28170838476E+02  0.22345750473E+03  0.80015762869E+02 0.  0.
          5    1    5    5  501    0  0.13332623320E+03 -0.43014803421E+01 -0.43915252650E+02  0.14051699758E+03  0.47000000000E+01 0. -1.
        -11    1    6    6    0    0  0.10205385321E+03  0.38597883952E+02 -0.87407056344E+01  0.10945860193E+03  0.00000000000E+00 0.  1.
         12    1    6    6    0    0  0.60220974984E+02  0.89480287901E+02  0.36911544110E+02  0.11399890280E+03  0.00000000000E+00 0. -1.
         -5    1    3    3    0  503 -0.50850944984E+02 -0.36558038413E+02 -0.62620594454E+02  0.88688993839E+02  0.47000000000E+01 0.  1.
         11    1    4    4    0    0 -0.50340745153E+02  0.52595868334E+01 -0.26587183347E+03  0.27064679143E+03  0.00000000000E+00 0. -1.
        -12    1    4    4    0    0 -0.19440937126E+03 -0.92478239930E+02 -0.64110469988E+03  0.67628578627E+03  0.00000000000E+00 0.  1.
</event>
<event>
12    1  0.8406581E-002  0.2714166E+03  0.7818608E-02  0.1101148E+00
         21   -1    0    0  501  502  0.00000000000E+00  0.00000000000E+00  0.48146282906E+03  0.48146282906E+03  0.00000000000E+00 0. -1.
         21   -1    0    0  502  503 -0.00000000000E+00 -0.00000000000E+00 -0.21667869473E+03  0.21667869473E+03  0.00000000000E+00 0.  1.
         -6    2    1    2    0  503  0.13644456539E+03  0.15961903608E+03 -0.59915072717E+02  0.27795101445E+03  0.17196393341E+03 0.  0.
        -24    2    3    3    0    0  0.47114614274E+02  0.14649625382E+03 -0.10376068451E+02  0.17485760766E+03  0.82380707078E+02 0.  0.
          6    2    1    2  501    0 -0.13644456539E+03 -0.15961903608E+03  0.32469920704E+03  0.42019050934E+03  0.16442363876E+03 0.  0.
         24    2    5    5    0    0 -0.53526653337E+02 -0.10493610834E+03  0.99378537779E+02  0.17390389435E+03  0.80559178553E+02 0.  0.
          5    1    5    5  501    0 -0.82917912053E+02 -0.54682927739E+02  0.22532066926E+03  0.24628661499E+03  0.47000000000E+01 0. -1.
        -13    1    6    6    0    0 -0.28463005349E+02  0.20158906716E+01  0.39698383149E+02  0.48889345602E+02  0.00000000000E+00 0.  1.
         14    1    6    6    0    0 -0.25063647989E+02 -0.10695199901E+03  0.59680154629E+02  0.12501454875E+03  0.00000000000E+00 0. -1.
         -5    1    3    3    0  503  0.89329951116E+02  0.13122782258E+02 -0.49539004266E+02  0.10309340679E+03  0.47000000000E+01 0.  1.
         11    1    4    4    0    0  0.13870150942E+02  0.11310615316E+03 -0.38141808758E+02  0.12016730231E+03  0.00000000000E+00 0. -1.
        -12    1    4    4    0    0  0.33244463332E+02  0.33390100663E+02  0.27765740307E+02  0.54690305350E+02  0.00000000000E+00 0.  1.
</event>
<event>
12    1  0.8406581E-002  0.1861350E+03  0.7818608E-02  0.1162432E+00
         21   -1    0    0  503  502  0.00000000000E+00  0.00000000000E+00  0.21436569480E+03  0.21436569480E+03  0.00000000000E+00 0. -1.
         21   -1    0    0  501  503 -0.00000000000E+00 -0.00000000000E+00 -0.21167077383E+03  0.21167077383E+03  0.00000000000E+00 0. -1.
          6    2    1    2  501    0  0.62146721466E+02 -0.36982058490E+02 -0.10391143739E+03  0.21153434326E+03  0.16946770760E+03 0.  0.
         24    2    3    3    0    0 -0.29561523571E+02 -0.38668476728E+02 -0.61483734112E+02  0.11036396114E+03  0.77658351702E+02 0.  0.
         -6    2    1    2    0  502 -0.62146721466E+02  0.36982058490E+02  0.10660635836E+03  0.21450212536E+03  0.17151197773E+03 0.  0.
        -24    2    5    5    0    0  0.26905622064E+02  0.32524424838E+02  0.28077136569E+02  0.95594097623E+02  0.81044155821E+02 0.  0.
          5    1    3    3  501    0  0.91708245036E+02  0.16864182379E+01 -0.42427703276E+02  0.10117038213E+03  0.47000000000E+01 0. -1.
        -13    1    4    4    0    0 -0.27014149366E+01 -0.26914878593E+02  0.13223632167E+02  0.30109347054E+02  0.00000000000E+00 0.  1.
         14    1    4    4    0    0 -0.26860108634E+02 -0.11753598135E+02 -0.74707366280E+02  0.80254614082E+02  0.00000000000E+00 0. -1.
         -5    1    5    5    0  502 -0.89052343530E+02  0.44576336520E+01  0.78529221790E+02  0.11890802774E+03  0.47000000000E+01 0.  1.
         13    1    6    6    0    0 -0.79514016777E+01  0.10559966088E+02  0.48030639376E+02  0.49816463055E+02  0.00000000000E+00 0. -1.
        -14    1    6    6    0    0  0.34857023742E+02  0.21964458750E+02 -0.19953502807E+02  0.45777634568E+02  0.00000000000E+00 0.  1.
</event>
<event>
12    1  0.8406581E-002  0.2436536E+03  0.7818608E-02  0.1118715E+00
         21   -1    0    0  503  502  0.00000000000E+00  0.00000000000E+00  0.13902340615E+03  0.13902340615E+03  0.00000000000E+00 0. -1.
         21   -1    0    0  501  503 -0.00000000000E+00 -0.00000000000E+00 -0.45407439363E+03  0.45407439363E+03  0.00000000000E+00 0. -1.
          6    2    1    2  501    0  0.36998023269E+02  0.16474194511E+03 -0.24898541231E+03  0.34836875974E+03  0.17566529258E+03 0.  0.
         24    2    3    3    0    0 -0.20927131046E+02  0.41731108275E+02 -0.44009686090E+02  0.10235224033E+03  0.79747717334E+02 0.  0.
         -6    2    1    2    0  502 -0.36998023269E+02 -0.16474194511E+03 -0.66065575161E+02  0.24472904003E+03  0.16437420908E+03 0.  0.
        -24    2    5    5    0    0 -0.20055812925E+02 -0.36912866197E+02  0.17191927080E+02  0.91167281816E+02  0.79063996825E+02 0.  0.
          5    1    3    3  501    0  0.57925154314E+02  0.12301083684E+03 -0.20497572623E+03  0.24601651941E+03  0.47000000000E+01 0. -1.
        -13    1    4    4    0    0 -0.64003084061E+01  0.16410290070E+02  0.23169409587E+02  0.29104692208E+02  0.00000000000E+00 0.  1.
         14    1    4    4    0    0 -0.14526822640E+02  0.25320818205E+02 -0.67179095677E+02  0.73247548126E+02  0.00000000000E+00 0. -1.
         -5    1    5    5    0  502 -0.16942210343E+02 -0.12782907891E+03 -0.83257502240E+02  0.15356175822E+03  0.47000000000E+01 0.  1.
         11    1    6    6    0    0  0.17396103269E+01 -0.56260250735E+02  0.24078245884E+02  0.61220943979E+02  0.00000000000E+00 0. -1.
        -12    1    6    6    0    0 -0.21795423252E+02  0.19347384537E+02 -0.68863188039E+01  0.29946337837E+02  0.00000000000E+00 0.  1.
</event>
<event>
12    1  0.8406581E-002  0.1774515E+03  0.7818608E-02  0.1170875E+00
         21   -1    0    0  503  502  0.00000000000E+00  0.00000000000E+00  0.35349268684E+03  0.35349268684E+03  0.00000000000E+00 0.  1.
         21   -1    0    0  501  503 -0.00000000000E+00 -0.00000000000E+00 -0.15682679763E+03  0.15682679763E+03  0.00000000000E+00 0.  1.
          6    2    1    2  501    0  0.30857281851E+02 -0.96369144482E-01 -0.70449657632E+02  0.19092454921E+03  0.17474795593E+03 0.  0.
         24    2    3    3    0    0  0.84208362223E+02 -0.48152002403E+01 -0.71573369178E+02  0.13714762227E+03  0.81070886869E+02 0.  0.
         -6    2    1    2    0  502 -0.30857281851E+02  0.96369144482E-01  0.26711554684E+03  0.31939493526E+03  0.17236655178E+03 0.  0.
        -24    2    5    5    0    0  0.42781205729E+02  0.25470768475E+02  0.11345446475E+03  0.14705717055E+03  0.79214293080E+02 0.  0.
          5    1    3    3  501    0 -0.53351080372E+02  0.47188310959E+01  0.11237115457E+01  0.53776926942E+02  0.47000000000E+01 0. -1.
        -13    1    4    4    0    0  0.20967480195E+02 -0.33079572169E+02 -0.52126077216E+02  0.65199856186E+02  0.00000000000E+00 0.  1.
         14    1    4    4    0    0  0.63240882027E+02  0.28264371929E+02 -0.19447291962E+02  0.71947766086E+02  0.00000000000E+00 0. -1.
         -5    1    5    5    0  502 -0.73638487580E+02 -0.25374399331E+02  0.15366108209E+03  0.17233776471E+03  0.47000000000E+01 0.  1.
         13    1    6    6    0    0  0.23575748864E+02  0.15445878778E+02 -0.32383312328E+01  0.28370370017E+02  0.00000000000E+00 0. -1.
        -14    1    6    6    0    0  0.19205456865E+02  0.10024889697E+02  0.11669279598E+03  0.11868680053E+03  0.00000000000E+00 0.  1.
</event>
<event>
12    1  0.8406581E-002  0.1833248E+03  0.7818608E-02  0.1164655E+00
         21   -1    0    0  503  502  0.00000000000E+00  0.00000000000E+00  0.21865541055E+03  0.21865541055E+03  0.00000000000E+00 0.  1.
         21   -1    0    0  501  503 -0.00000000000E+00 -0.00000000000E+00 -0.21849624664E+03  0.21849624664E+03  0.00000000000E+00 0.  1.
          6    2    1    2  501    0 -0.57935970157E+02  0.35423593701E+02 -0.11904826434E+03  0.21858748542E+03  0.17028385687E+03 0.  0.
         24    2    3    3    0    0 -0.26226114804E+02 -0.18465288192E+02 -0.12932642535E+03  0.15504807157E+03  0.79283063998E+02 0.  0.
         -6    2    1    2    0  502  0.57935970157E+02 -0.35423593701E+02  0.11920742825E+03  0.21856417177E+03  0.17014252439E+03 0.  0.
        -24    2    5    5    0    0 -0.90578556886E+01 -0.15665079522E+02  0.16764959435E+01  0.81764385109E+02  0.79719286045E+02 0.  0.
          5    1    3    3  501    0 -0.31709855353E+02  0.53888881892E+02  0.10278161016E+02  0.63539413847E+02  0.47000000000E+01 0. -1.
        -11    1    4    4    0    0 -0.16796937418E+02  0.21585938973E+02 -0.10496662957E+02  0.29296242101E+02  0.00000000000E+00 0.  1.
         12    1    4    4    0    0 -0.94291773861E+01 -0.40051227165E+02 -0.11882976240E+03  0.12575182947E+03  0.00000000000E+00 0. -1.
         -5    1    5    5    0  502  0.66993825846E+02 -0.19758514179E+02  0.11753093230E+03  0.13679978667E+03  0.47000000000E+01 0.  1.
         13    1    6    6    0    0 -0.13082116257E+02  0.26947809898E+02  0.19127246234E+02  0.35541212311E+02  0.00000000000E+00 0. -1.
        -14    1    6    6    0    0  0.40242605685E+01 -0.42612889419E+02 -0.17450750290E+02  0.46223172798E+02  0.00000000000E+00 0.  1.
</event>
<event>
12    1  0.8406581E-002  0.1866970E+03  0.7818608E-02  0.1161787E+00
         21   -1    0    0  501  502  0.00000000000E+00  0.00000000000E+00  0.41195590750E+02  0.41195590750E+02  0.00000000000E+00 0.  1.
         21   -1    0    0  502  503 -0.00000000000E+00 -0.00000000000E+00 -0.20872034823E+04  0.20872034823E+04  0.00000000000E+00 0. -1.
         -6    2    1    2    0  503  0.26404083281E+02 -0.65850919688E+02 -0.18441472612E+04  0.18534381666E+04  0.17123199872E+03 0.  0.
        -24    2    3    3    0    0  0.40284946676E+02 -0.16315056558E+02 -0.16504485125E+04  0.16529692779E+04  0.80237667717E+02 0.  0.
          6    2    1    2  501    0 -0.26404083281E+02  0.65850919688E+02 -0.20186063036E+03  0.27496090640E+03  0.17269124681E+03 0.  0.
         24    2    5    5    0    0 -0.78676704557E+02  0.48816476377E+02 -0.92849319915E+02  0.15278007731E+03  0.78407165536E+02 0.  0.
          5    1    5    5  501    0  0.52272621276E+02  0.17034443310E+02 -0.10901131045E+03  0.12218082910E+03  0.47000000000E+01 0. -1.
        -11    1    6    6    0    0 -0.54618701996E+02 -0.11943958244E+02 -0.40232256631E+02  0.68880296311E+02  0.00000000000E+00 0.  1.
         12    1    6    6    0    0 -0.24058002562E+02  0.60760434621E+02 -0.52617063283E+02  0.83899780996E+02  0.00000000000E+00 0. -1.
         -5    1    3    3    0  503 -0.13880863395E+02 -0.49535863129E+02 -0.19369874869E+03  0.20046888873E+03  0.47000000000E+01 0.  1.
         11    1    4    4    0    0  0.36136313975E+02 -0.47213183824E+02 -0.98758504689E+03  0.98937310594E+03  0.00000000000E+00 0. -1.
        -12    1    4    4    0    0  0.41486327007E+01  0.30898127265E+02 -0.66286346560E+03  0.66359617197E+03  0.00000000000E+00 0.  1.
</event>
<event>
12    1  0.8406581E-002  0.2021577E+03  0.7818608E-02  0.1148571E+00
         21   -1    0    0  503  502  0.00000000000E+00  0.00000000000E+00  0.10092999313E+04  0.10092999313E+04  0.00000000000E+00 0.  1.
         21   -1    0    0  501  503 -0.00000000000E+00 -0.00000000000E+00 -0.43220004086E+02  0.43220004086E+02  0.00000000000E+00 0. -1.
          6    2    1    2  501    0 -0.75623846460E+02  0.66035626241E+02  0.63268121259E+03  0.66419370055E+03  0.17546533848E+03 0.  0.
         24    2    3    3    0    0  0.10844445921E+02  0.13097869457E+02  0.42817498594E+03  0.43588676150E+03  0.79839176335E+02 0.  0.
         -6    2    1    2    0  502  0.75623846460E+02 -0.66035626241E+02  0.33339871461E+03  0.38832623481E+03  0.17193862759E+03 0.  0.
        -24    2    5    5    0    0  0.80829793008E+02 -0.72940951234E+00  0.11963228447E+03  0.16469667398E+03  0.79240920349E+02 0.  0.
          5    1    3    3  501    0 -0.86468292381E+02  0.52937756784E+02  0.20450622665E+03  0.22830693905E+03  0.47000000000E+01 0. -1.
        -13    1    4    4    0    0 -0.14006697215E+02  0.11295096003E+02  0.38927801696E+03  0.38969365051E+03  0.00000000000E+00 0.  1.
         14    1    4    4    0    0  0.24851143136E+02  0.18027734540E+01  0.38896968979E+02  0.46193110991E+02  0.00000000000E+00 0. -1.
         -5    1    5    5    0  502 -0.52059465485E+01 -0.65306216729E+02  0.21376643014E+03  0.22362956083E+03  0.47000000000E+01 0.  1.
         11    1    6    6    0    0  0.39973617946E+02 -0.36417754583E+02  0.35831017595E+02  0.64869135978E+02  0.00000000000E+00 0. -1.
        -12    1    6    6    0    0  0.40856175063E+02  0.35688345071E+02  0.83801266870E+02  0.99827538003E+02  0.00000000000E+00 0.  1.
</event>
<event>
12    1  0.8406581E-002  0.1741431E+03  0.7818608E-02  0.1173653E+00
         21   -1    0    0  501  502  0.00000000000E+00  0.00000000000E+00  0.14306084055E+03  0.14306084055E+03  0.00000000000E+00 0. -1.
         21   -1    0    0  502  503 -0.00000000000E+00 -0.00000000000E+00 -0.21660526288E+03  0.21660526288E+03  0.00000000000E+00 0. -1.
         -6    2    1    2    0  503  0.17331185834E+02  0.19211147595E+02 -0.63867903088E+02  0.18548561241E+03  0.17221023539E+03 0.  0.
        -24    2    3    3    0    0 -0.37940340985E+02  0.46579290214E+02 -0.72220696912E+02  0.12306913965E+03  0.79505247131E+02 0.  0.
          6    2    1    2  501    0 -0.17331185834E+02 -0.19211147595E+02 -0.96765192451E+01  0.17418049102E+03  0.17197607459E+03 0.  0.
         24    2    5    5    0    0 -0.25317765014E+02  0.43014051661E+02 -0.42476617170E+02  0.10323193717E+03  0.79758209483E+02 0.  0.
          5    1    5    5  501    0  0.79865791798E+01 -0.62225199257E+02  0.32800097925E+02  0.70948553850E+02  0.47000000000E+01 0. -1.
        -13    1    6    6    0    0  0.51422569977E+01  0.48683950026E+02  0.20369042530E+01  0.48997130284E+02  0.00000000000E+00 0.  1.
         14    1    6    6    0    0 -0.30460022012E+02 -0.56698983644E+01 -0.44513521423E+02  0.54234806886E+02  0.00000000000E+00 0. -1.
         -5    1    3    3    0  503  0.55271526819E+02 -0.27368142618E+02  0.83527938245E+01  0.62416472761E+02  0.47000000000E+01 0.  1.
         13    1    4    4    0    0 -0.22820700149E+02  0.68783418158E+02 -0.56944380432E+02  0.92166183775E+02  0.00000000000E+00 0. -1.
        -14    1    4    4    0    0 -0.15119640836E+02 -0.22204127944E+02 -0.15276316480E+02  0.30902955877E+02  0.00000000000E+00 0.  1.
</event>
